Control file title. For DL_FIELD 4.10
49894
    1MOL     C1    1   5.760   3.656   3.454 -0.1191  0.2448  0.6159
    1MOL     C2    2   5.643   3.701   3.551 -0.3495  0.2170  0.3556
    1MOL     C3    3   5.610   3.844   3.519  0.2110  0.2510 -0.7174
    1MOL     O4    4   5.689   3.932   3.547  0.6124  0.1930  0.3625
    1MOL     N5    5   5.491   3.870   3.462 -0.0040  0.1126 -0.2668
    1MOL     H6    6   5.767   3.724   3.370  0.1303 -1.4783 -0.7991
    1MOL     H7    7   5.860   3.655   3.498  1.0935 -0.0565 -2.0399
    1MOL     H8    8   5.553   3.646   3.524  0.9191 -1.4716 -0.5485
    1MOL     H9    9   5.415   3.805   3.447  0.1543  0.0373 -0.7605
    1MOL    H10   10   5.469   3.965   3.433  0.4067  0.7888  1.5633
    1MOL    H11   11   5.743   3.561   3.402 -1.4407  1.2713 -0.8604
    1MOL    C12   12   5.684   3.697   3.694 -0.1417 -0.4999  0.5100
    1MOL    C13   13   5.694   3.545   3.741 -0.1502 -0.4413 -0.7697
    1MOL    C14   14   5.550   3.499   3.767  0.2610  0.3100  0.0262
    1MOL    O15   15   5.473   3.582   3.820  0.1403  0.2638  0.1186
    1MOL    N16   16   5.505   3.379   3.734 -0.3273  0.2135  0.5873
    1MOL    H17   17   5.616   3.758   3.754  1.1555  0.3526  1.1500
    1MOL    H18   18   5.785   3.738   3.702 -0.4352  0.1725  0.8796
    1MOL    H19   19   5.728   3.492   3.652 -0.3870 -0.1121 -1.0551
    1MOL    H20   20   5.410   3.348   3.724 -0.1739 -0.0510 -0.0948
    1MOL    H21   21   5.578   3.322   3.693 -0.8633 -0.3470  0.4095
    1MOL    C22   22   5.788   3.526   3.865  0.3689 -0.5719 -0.0980
    1MOL    C23   23   5.861   3.383   3.866  0.6641 -0.2731  0.5051
    1MOL    C24   24   5.794   3.282   3.959 -0.4888  0.4011  0.1352
    1MOL    O25   25   5.788   3.310   4.078 -0.2277 -0.0130 -0.2551
    1MOL    N26   26   5.755   3.163   3.922  0.5300  0.4102 -0.0681
    1MOL    H27   27   5.733   3.536   3.958  0.4648 -3.1684  0.2724
    1MOL    H28   28   5.857   3.611   3.862 -1.3744  0.8982  0.4423
    1MOL    H29   29   5.856   3.353   3.761  2.2726  0.1159  0.3067
    1MOL    H30   30   5.773   3.125   3.830  0.4001 -0.4149  0.2368
    1MOL    H31   31   5.709   3.109   3.994  1.0092 -1.0177 -0.7986
    1MOL    C32   32   6.015   3.378   3.885  0.1243 -0.9124 -0.2126
    1MOL    C33   33   6.074   3.379   4.030 -0.4967  0.6152 -0.0465
    1MOL    C34   34   6.045   3.524   4.089  0.1547 -0.0298 -0.2449
    1MOL    O35   35   6.118   3.621   4.082 -0.1568  0.4770  0.3393
    1MOL    N36   36   5.935   3.538   4.161 -0.1316  0.0232  0.5868
    1MOL    H37   37   6.067   3.456   3.829  0.0035 -0.7614 -0.1169
    1MOL    H38   38   6.042   3.286   3.834  1.4298 -0.5782 -0.1422
    1MOL    H39   39   6.037   3.302   4.098  1.0008  1.0079  1.2160
    1MOL    H40   40   5.915   3.627   4.205 -1.3244 -0.7073  1.5383
    1MOL    H41   41   5.866   3.465   4.156  1.7787 -1.7215 -1.1208
    1MOL    C42   42   6.224   3.360   4.018  0.1970  0.4769  0.5031
    1MOL    C43   43   6.288   3.346   4.154 -0.5126  0.1258 -0.5105
    1MOL    C44   44   6.387   3.455   4.181 -0.1234 -0.4612 -0.5940
    1MOL    O45   45   6.493   3.454   4.120  0.0841 -0.0103  0.0224
    1MOL    N46   46   6.356   3.553   4.262  0.0256 -0.0571  0.2630
    1MOL    H47   47   6.278   3.437   3.962  0.9968 -0.7446 -0.4395
    1MOL    H48   48   6.242   3.272   3.956 -3.1735  0.4365 -0.5362
    1MOL    H49   49   6.214   3.339   4.234 -0.8328  1.0471 -0.7172
    1MOL    H50   50   6.417   3.632   4.249 -1.1318  0.4967 -2.0015
    1MOL    H51   51   6.267   3.572   4.306 -0.0168  1.2625 -0.3877
    1MOL    C52   52   6.364   3.207   4.172  0.4748  0.3047  0.5969
    1MOL    C53   53   6.362   3.133   4.314  0.6251  0.3900  0.1347
    1MOL    C54   54   6.446   3.225   4.410 -0.4352 -0.2401 -0.0291
    1MOL    O55   55   6.565   3.239   4.397 -0.2340 -0.0156 -0.0613
    1MOL    N56   56   6.374   3.297   4.495  0.0881  0.3960 -0.8634
    1MOL    H57   57   6.471   3.224   4.158  0.7212 -0.1316  1.8235
    1MOL    H58   58   6.335   3.134   4.097  0.1013  0.3128  0.7327
    1MOL    H59   59   6.260   3.117   4.350  0.6406  0.5813  0.2648
    1MOL    H60   60   6.276   3.276   4.501  0.3139 -0.2941  0.5227
    1MOL    H61   61   6.420   3.377   4.537 -0.4484 -0.5040  1.5269
    1MOL    C62   62   6.438   2.996   4.300  0.0498  0.6875  0.1338
    1MOL    C63   63   6.383   2.874   4.373 -0.0249  0.3744 -0.2536
    1MOL    C64   64   6.350   2.909   4.514 -0.4696 -0.5905 -0.3159
    1MOL    O65   65   6.442   2.916   4.600 -0.1375  0.2411 -0.0486
    1MOL    N66   66   6.224   2.929   4.543  0.6066  0.0083 -0.6709
    1MOL    H67   67   6.537   3.010   4.344  0.9935  1.9037 -2.2448
    1MOL    H68   68   6.445   2.963   4.196  0.6881 -0.1220  0.4275
    1MOL    H69   69   6.295   2.841   4.319 -1.2884 -1.4509  2.7703
    1MOL    H70   70   6.155   2.914   4.471 -0.9335 -0.1422  0.7933
    1MOL    H71   71   6.193   2.944   4.638 -0.5921 -0.1269 -1.0349
    1MOL    C72   72   6.476   2.744   4.377  0.2502  0.0030  0.0400
    1MOL    C73   73   6.401   2.610   4.354  0.3804  0.4500  0.4709
    1MOL    C74   74   6.329   2.569   4.482 -0.2575 -0.1945 -0.0845
    1MOL    O75   75   6.395   2.549   4.582 -0.4877  0.1970  0.1286
    1MOL    N76   76   6.200   2.538   4.473  0.1436  0.2147  0.1503
    1MOL    H77   77   6.536   2.738   4.468  0.4620 -0.0977 -0.1061
    1MOL    H78   78   6.552   2.756   4.299  0.0019  0.1737 -0.1756
    1MOL    H79   79   6.332   2.622   4.270  0.4597  1.6428  0.5599
    1MOL    H80   80   6.148   2.496   4.550  1.1047 -0.6677  0.3302
    1MOL    H81   81   6.145   2.564   4.393  1.5870  0.5500 -0.7386
    1MOL    C82   82   6.498   2.492   4.315  0.2641 -0.5241 -0.5094
    1MOL    C83   83   6.569   2.508   4.181  0.2224  0.0992 -0.3540
    1MOL    C84   84   6.465   2.496   4.068 -0.4081 -0.0735  0.2241
    1MOL    O85   85   6.393   2.394   4.056  0.9683 -0.2762  0.0604
    1MOL    N86   86   6.450   2.597   3.990 -0.0028 -0.0741  0.0251
    1MOL    H87   87   6.442   2.399   4.310  0.1773 -0.4573 -0.7753
    1MOL    H88   88   6.564   2.457   4.395  0.5914 -2.9329 -1.7990
    1MOL    H89   89   6.623   2.603   4.175  1.2751 -0.5097 -0.5686
    1MOL    H90   90   6.406   2.586   3.899 -1.3120 -0.4123  0.6941
    1MOL    H91   91   6.510   2.679   3.989  0.0135 -0.0226 -3.8490
    1MOL    C92   92   6.671   2.401   4.173  0.1118 -0.2676  0.3480
    1MOL    C93   93   6.809   2.413   4.248  0.2643 -0.2484  0.4630
    1MOL    C94   94   6.871   2.551   4.222 -0.8703 -0.6766  0.5379
    1MOL    O95   95   6.897   2.584   4.108 -0.8051 -0.0017  0.0898
    1MOL    N96   96   6.893   2.630   4.328  0.5905 -0.0873  0.3194
    1MOL    H97   97   6.693   2.377   4.069 -2.1839 -2.8088  0.4044
    1MOL    H98   98   6.628   2.304   4.194 -2.2312  0.4551 -0.8907
    1MOL    H99   99   6.788   2.399   4.354 -0.7203 -2.0818  0.0474
    1MOL   H100  100   6.925   2.723   4.306 -0.0122 -0.2926 -1.6133
    1MOL   H101  101   6.873   2.598   4.422 -0.3092 -0.7817 -0.0920
    1MOL   C102  102   6.897   2.290   4.207  0.4140 -0.0398 -0.5138
    1MOL   C103  103   7.000   2.240   4.315 -0.4339  0.8853 -0.9108
    1MOL   C104  104   7.114   2.336   4.349  0.2689 -0.8633 -0.4243
    1MOL   O105  105   7.119   2.383   4.462 -0.1607  0.2944 -0.1402
    1MOL   N106  106   7.202   2.359   4.255  0.2181  0.1136 -0.3681
    1MOL   H107  107   6.950   2.323   4.117  0.8867 -0.6173 -0.4505
    1MOL   H108  108   6.834   2.205   4.182  0.3977  0.4284 -2.1456
    1MOL   H109  109   6.938   2.230   4.404  1.0179  1.4003  0.1873
    1MOL   H110  110   7.274   2.426   4.278  0.2890 -0.3029  0.6869
    1MOL   H111  111   7.180   2.320   4.164 -0.3816  1.5937 -0.8621
    1MOL   C112  112   7.057   2.102   4.284  0.6650 -0.5635  0.6021
    1MOL   C113  113   6.962   1.986   4.300 -0.3008 -0.0276 -0.5448
    1MOL   C114  114   6.876   1.993   4.434 -0.1609  0.0230 -0.0126
    1MOL   O115  115   6.920   1.974   4.548  0.4628 -0.6330 -0.4985
    1MOL   N116  116   6.754   2.027   4.421 -0.5768  0.2410 -0.5472
    1MOL   H117  117   7.145   2.086   4.347  0.5206 -2.1752  0.4277
    1MOL   H118  118   7.084   2.097   4.179  0.7579 -0.9173  0.6414
    1MOL   H119  119   6.894   1.989   4.214  0.0529 -2.2822 -0.9341
    1MOL   H120  120   6.733   2.059   4.327  0.5341 -0.6846 -1.1223
    1MOL   H121  121   6.692   2.042   4.500 -1.9373  0.1783 -1.5694
    1MOL   C122  122   7.028   1.848   4.270 -0.1943 -0.1804 -0.1611
    1MOL   C123  123   7.166   1.807   4.336  0.7837 -0.2836 -0.9960
    1MOL   C124  124   7.278   1.824   4.230  0.1973  0.2502  0.1569
    1MOL   O125  125   7.281   1.748   4.135 -0.2601 -0.0284  0.5731
    1MOL   N126  126   7.366   1.920   4.242  0.2584  0.1882  0.1570
    1MOL   H127  127   7.030   1.847   4.162  1.5507 -1.6517 -0.1391
    1MOL   H128  128   6.955   1.771   4.293 -2.7811  2.3926  0.6525
    1MOL   H129  129   7.188   1.877   4.417 -0.3195 -0.9676 -0.0875
    1MOL   H130  130   7.348   1.988   4.314 -1.7825  0.7272 -0.8140
    1MOL   H131  131   7.436   1.927   4.170 -3.1508  0.4312 -3.3293
    1MOL   C132  132   7.175   1.670   4.400 -0.1768  0.1139 -0.0659
    1MOL   C133  133   7.103   1.670   4.536  1.1375  0.4682 -0.0792
    1MOL   C134  134   7.180   1.728   4.662  0.2486 -0.2830 -0.2344
    1MOL   O135  135   7.272   1.665   4.712 -0.2899  0.2638  0.2860
    1MOL   N136  136   7.146   1.848   4.706 -0.1136 -0.3955  0.1080
    1MOL   H137  137   7.281   1.643   4.406 -0.1761  0.2090  0.3426
    1MOL   H138  138   7.129   1.612   4.320 -2.1096 -2.0627  2.5268
    1MOL   H139  139   7.015   1.731   4.512  1.1629  0.4781 -0.1467
    1MOL   H140  140   7.069   1.902   4.672 -0.4872 -0.3683  0.9809
    1MOL   H141  141   7.199   1.888   4.783  0.1345 -0.0859 -0.2210
    1MOL   C142  142   7.057   1.536   4.591 -0.1059 -0.1193 -0.8642
    1MOL   C143  143   6.934   1.521   4.689  0.1072  0.5037  0.1110
    1MOL   C144  144   6.918   1.389   4.758 -0.1152  0.2570  0.1660
    1MOL   O145  145   6.967   1.288   4.714  0.1327 -0.5286  0.3993
    1MOL   N146  146   6.841   1.379   4.867  0.3795 -0.7437 -0.2204
    1MOL   H147  147   7.138   1.481   4.638  1.9905  0.5031 -3.6031
    1MOL   H148  148   7.039   1.479   4.499 -0.1529  0.2817 -1.1067
    1MOL   H149  149   6.958   1.587   4.773 -0.9661  1.7402 -0.5505
    1MOL   H150  150   6.781   1.457   4.890  1.7701  0.9591 -2.1859
    1MOL   H151  151   6.812   1.293   4.911 -0.5422 -0.9231 -1.1490
    1MOL   C152  152   6.793   1.548   4.625 -0.0886  0.1581  0.2918
    1MOL   C153  153   6.740   1.694   4.634  0.4946  0.0824 -0.2943
    1MOL   C154  154   6.738   1.745   4.779 -0.5397  0.4867 -0.1826
    1MOL   O155  155   6.698   1.669   4.867  0.2296 -0.0456  0.0989
    1MOL   N156  156   6.772   1.873   4.796 -0.3157  0.5041  0.7039
    1MOL   H157  157   6.716   1.476   4.652 -0.7202 -0.1650 -2.2504
    1MOL   H158  158   6.792   1.526   4.518 -1.5112 -0.7776  0.4853
    1MOL   H159  159   6.807   1.751   4.570  0.1213  2.3907  1.2699
    1MOL   H160  160   6.805   1.924   4.716 -2.9097 -1.0607 -1.4480
    1MOL   H161  161   6.758   1.928   4.880 -0.1984  1.4472  0.1207
    1MOL   C162  162   6.600   1.700   4.564 -0.4751  0.2016 -0.6730
    1MOL   C163  163   6.463   1.658   4.638 -0.2662 -0.0009 -0.3440
    1MOL   C164  164   6.460   1.510   4.691 -0.1386  0.0657  0.3727
    1MOL   O165  165   6.425   1.421   4.617  0.6932  0.4554  0.2709
    1MOL   N166  166   6.494   1.487   4.812  0.3408  0.0793 -0.4854
    1MOL   H167  167   6.599   1.642   4.472 -1.2238 -0.8013 -0.0473
    1MOL   H168  168   6.588   1.806   4.541  1.2620  0.7045  0.6588
    1MOL   H169  169   6.449   1.727   4.721  0.0727  0.6536 -0.8255
    1MOL   H170  170   6.492   1.392   4.847  0.3722  1.2181  2.7811
    1MOL   H171  171   6.519   1.566   4.870 -0.3098  2.1595 -2.9455
    1MOL   C172  172   6.339   1.681   4.551 -0.8463 -0.0454 -0.0931
    1MOL   C173  173   6.303   1.822   4.524 -0.5319  0.2210  0.3297
    1MOL   C174  174   6.160   1.843   4.567 -0.6682 -0.4236  0.2011
    1MOL   O175  175   6.066   1.794   4.505  0.3057 -1.0484  0.4830
    1MOL   N176  176   6.144   1.919   4.675  0.3699  0.5416  0.0621
    1MOL   H177  177   6.260   1.619   4.593 -0.2838 -0.7272 -0.0218
    1MOL   H178  178   6.352   1.636   4.453  1.1023  1.8148 -0.7356
    1MOL   H179  179   6.376   1.883   4.577  0.4164 -2.1415  1.8183
    1MOL   H180  180   6.047   1.938   4.696  0.4993  1.5289 -0.1967
    1MOL   H181  181   6.222   1.959   4.726  1.6445 -1.2372 -0.4572
    1MOL   C182  182   6.326   1.864   4.370 -0.4009  0.7116  0.2240
    1MOL   C183  183   6.291   2.006   4.316  0.3251  0.4846 -0.9188
    1MOL   C184  184   6.365   2.121   4.392 -0.6555 -0.1373  0.9932
    1MOL   O185  185   6.484   2.132   4.369  0.3781 -0.6882 -0.3343
    1MOL   N186  186   6.309   2.202   4.481 -0.4651 -0.9691  0.6072
    1MOL   H187  187   6.277   1.789   4.308 -0.0496 -2.2952  3.4060
    1MOL   H188  188   6.434   1.853   4.360 -0.6173 -0.4282 -0.9143
    1MOL   H189  189   6.335   2.000   4.216 -0.5294  1.6752 -1.3698
    1MOL   H190  190   6.369   2.271   4.523  0.9480 -2.6320  1.3905
    1MOL   H191  191   6.213   2.202   4.514 -1.2333 -3.1338 -1.4751
    1MOL   C192  192   6.139   2.037   4.296 -0.3034 -0.1342 -0.3275
    1MOL   C193  193   6.109   2.158   4.200 -0.0012  0.1902  0.1844
    1MOL   C194  194   6.109   2.120   4.053  0.4907  0.4084  0.3072
    1MOL   O195  195   6.027   2.033   4.024 -0.1703  0.3927 -0.1142
    1MOL   N196  196   6.180   2.196   3.972  0.2976  0.5977  0.4415
    1MOL   H197  197   6.088   2.059   4.390  0.1195 -2.7758  0.5755
    1MOL   H198  198   6.076   1.951   4.273 -0.6121 -0.1860  0.6740
    1MOL   H199  199   6.008   2.194   4.222  0.3390 -0.2053  2.5450
    1MOL   H200  200   6.242   2.263   4.015  0.4709 -0.1718  1.4241
    1MOL   H201  201   6.191   2.166   3.876 -0.7671 -0.8879  0.7635
    1MOL   H202  202   6.182   2.233   4.230 -0.7010  0.8604  0.2526
    2MOL     C1  203   1.256   6.419   2.585  0.4675  0.6524 -0.7939
    2MOL     C2  204   1.383   6.479   2.644  0.0092  0.0320  0.1078
    2MOL     C3  205   1.492   6.501   2.531 -0.8435  1.2608 -0.6771
    2MOL     O4  206   1.517   6.419   2.444 -0.1587 -0.6303 -0.2376
    2MOL     N5  207   1.560   6.617   2.525 -0.1562  0.2164 -0.5645
    2MOL     H6  208   1.273   6.313   2.571  0.1630  0.3555  0.9236
    2MOL     H7  209   1.173   6.423   2.657 -0.7479  0.3615 -2.1587
    2MOL     H8  210   1.370   6.580   2.684  0.2373 -0.0680  0.4375
    2MOL     H9  211   1.624   6.636   2.449  2.2712  1.6331  1.7375
    2MOL    H10  212   1.538   6.697   2.583  0.7222  0.7566 -0.9572
    2MOL    H11  213   1.218   6.463   2.493 -1.0983 -1.2452 -1.0772
    2MOL    C12  214   1.440   6.384   2.759 -0.2406 -0.1743  0.2998
    2MOL    C13  215   1.543   6.466   2.841  0.3124 -0.4237 -0.0843
    2MOL    C14  216   1.650   6.368   2.889  0.3289  0.2798 -0.1119
    2MOL    O15  217   1.625   6.295   2.985  0.0191  0.0067 -0.6966
    2MOL    N16  218   1.758   6.365   2.820 -0.0383 -0.8118  0.3866
    2MOL    H17  219   1.486   6.297   2.712  0.9817  0.5515  0.1332
    2MOL    H18  220   1.366   6.345   2.829 -0.4298 -0.9772 -0.3383
    2MOL    H19  221   1.597   6.541   2.783 -0.3021  0.6403  0.7102
    2MOL    H20  222   1.769   6.435   2.748  0.9162 -0.3199  0.9999
    2MOL    H21  223   1.834   6.314   2.863  0.2861  0.4152  1.2731
    2MOL    C22  224   1.484   6.541   2.966 -0.2893  0.3630 -0.0923
    2MOL    C23  225   1.586   6.625   3.051 -0.0122  0.0530 -0.2114
    2MOL    C24  226   1.532   6.637   3.190 -0.8508  0.8361 -0.2977
    2MOL    O25  227   1.433   6.709   3.213 -0.9379  0.0776 -0.0170
    2MOL    N26  228   1.586   6.553   3.284  0.4717 -0.1078 -0.2810
    2MOL    H27  229   1.431   6.470   3.030  1.9882 -0.3341  1.0933
    2MOL    H28  230   1.400   6.602   2.933 -0.9378  1.1474  2.8723
    2MOL    H29  231   1.682   6.577   3.072 -1.3187 -1.8371  1.5836
    2MOL    H30  232   1.660   6.488   3.264  1.8227  1.6751 -1.2585
    2MOL    H31  233   1.553   6.572   3.377  2.1865  2.2584 -0.0938
    2MOL    C32  234   1.622   6.763   2.988 -0.1444  0.9037 -0.0432
    2MOL    C33  235   1.738   6.849   3.057 -1.1711 -0.7230 -0.3539
    2MOL    C34  236   1.686   6.939   3.173  0.5867 -0.4708 -0.1087
    2MOL    O35  237   1.602   7.031   3.144 -0.3359  0.3971 -0.4515
    2MOL    N36  238   1.715   6.906   3.300  0.0700 -0.1864 -0.1932
    2MOL    H37  239   1.534   6.824   2.968 -2.0878 -2.5788 -2.6326
    2MOL    H38  240   1.660   6.745   2.888 -1.0864  1.2279 -0.4627
    2MOL    H39  241   1.808   6.775   3.096 -0.3407 -0.3254 -1.0477
    2MOL    H40  242   1.784   6.834   3.315 -0.1899 -0.2668  0.6435
    2MOL    H41  243   1.693   6.969   3.376  0.7513  2.7210 -2.3446
    2MOL    C42  244   1.820   6.941   2.953  0.2273  0.2590 -0.8575
    2MOL    C43  245   1.966   6.976   2.998 -0.7305  0.4277 -0.1313
    2MOL    C44  246   2.022   7.069   2.894  0.0808 -0.0872  0.8800
    2MOL    O45  247   2.000   7.063   2.770  0.3461  0.0879 -0.2498
    2MOL    N46  248   2.117   7.153   2.934  0.5298 -0.2077  0.0859
    2MOL    H47  249   1.761   7.032   2.944 -0.8120 -0.1628  1.3895
    2MOL    H48  250   1.807   6.887   2.859  2.0101 -0.5327 -0.6637
    2MOL    H49  251   1.965   7.021   3.097  0.5028 -0.3038  0.2190
    2MOL    H50  252   2.140   7.172   3.030 -0.4497  0.2687  0.2278
    2MOL    H51  253   2.149   7.222   2.868 -1.2344 -0.8407 -1.4878
    2MOL    C52  254   2.061   6.846   3.024  0.1710 -0.8029  0.1241
    2MOL    C53  255   2.117   6.760   2.901 -0.1729  0.4233 -0.1807
    2MOL    C54  256   2.012   6.687   2.823  0.5848  0.4930 -0.1809
    2MOL    O55  257   1.976   6.576   2.850  1.1473  0.0773 -0.6946
    2MOL    N56  258   1.964   6.753   2.721  0.5361  0.2804 -0.4179
    2MOL    H57  259   2.037   6.786   3.112 -1.3320  0.4088  0.5730
    2MOL    H58  260   2.147   6.896   3.069 -0.1863 -1.8382  2.0179
    2MOL    H59  261   2.173   6.826   2.835  1.2527 -1.8612 -1.3407
    2MOL    H60  262   1.907   6.699   2.658 -0.8340  1.5371 -0.2711
    2MOL    H61  263   2.017   6.834   2.695  0.9570  0.0523 -0.2738
    2MOL    C62  264   2.227   6.662   2.960 -0.3859 -0.0285  0.8031
    2MOL    C63  265   2.343   6.730   3.034  0.1645  0.8146  0.1277
    2MOL    C64  266   2.399   6.858   2.966  0.3412 -0.4693 -0.5797
    2MOL    O65  267   2.462   6.853   2.860  0.3267 -0.4659  0.3840
    2MOL    N66  268   2.389   6.967   3.034  0.0317  0.0919  0.3314
    2MOL    H67  269   2.279   6.615   2.877  0.2982  0.0940  1.1549
    2MOL    H68  270   2.179   6.590   3.025 -0.8068 -0.6794 -0.2189
    2MOL    H69  271   2.321   6.757   3.137 -4.3103 -1.3763 -0.1312
    2MOL    H70  272   2.443   7.042   2.994  1.6752 -0.3723  1.6118
    2MOL    H71  273   2.344   6.975   3.123 -1.9811  0.1906 -0.6676
    2MOL    C72  274   2.461   6.639   3.059  0.1703 -0.1230 -0.9203
    2MOL    C73  275   2.461   6.583   3.205  0.0506 -0.0909  0.2226
    2MOL    C74  276   2.544   6.660   3.308 -0.4492 -0.6590 -0.6740
    2MOL    O75  277   2.632   6.742   3.281 -0.0095  0.5524 -0.6596
    2MOL    N76  278   2.514   6.640   3.436 -0.3345  0.3036  0.6026
    2MOL    H77  279   2.549   6.698   3.033 -0.4608  0.6804 -1.2528
    2MOL    H78  280   2.454   6.554   2.991  1.1953 -0.9349 -0.0288
    2MOL    H79  281   2.359   6.569   3.242 -0.3481 -1.5086 -1.3258
    2MOL    H80  282   2.442   6.578   3.470 -0.5807  0.4355  0.3219
    2MOL    H81  283   2.578   6.678   3.504 -0.0834  0.4057  0.3108
    2MOL    C82  284   2.506   6.433   3.208  0.2799 -0.2340 -0.1523
    2MOL    C83  285   2.657   6.393   3.193  0.5374  0.6762  0.1362
    2MOL    C84  286   2.718   6.420   3.051 -0.6313  0.1248  0.1945
    2MOL    O85  287   2.666   6.365   2.954  0.3947 -0.1226 -0.4960
    2MOL    N86  288   2.826   6.496   3.042  0.4876 -0.8671  0.6078
    2MOL    H87  289   2.452   6.391   3.123  0.0387  1.0149 -0.6176
    2MOL    H88  290   2.469   6.393   3.303  1.8107 -1.0921  0.1078
    2MOL    H89  291   2.714   6.445   3.270 -1.0341  0.4100  1.5219
    2MOL    H90  292   2.843   6.534   2.950 -2.0034  1.1503  0.9223
    2MOL    H91  293   2.877   6.546   3.113  0.6564 -1.1238  0.6675
    2MOL    C92  294   2.659   6.243   3.232  0.2295 -1.2043  0.5194
    2MOL    C93  295   2.789   6.172   3.267  0.5630  0.3042  0.3554
    2MOL    C94  296   2.843   6.221   3.400 -0.1089 -0.2370 -0.0535
    2MOL    O95  297   2.917   6.318   3.413  0.0161  0.0729  0.4826
    2MOL    N96  298   2.804   6.156   3.506  0.7597 -0.1411 -0.1740
    2MOL    H97  299   2.605   6.191   3.154 -0.0085  1.7182 -1.3365
    2MOL    H98  300   2.609   6.231   3.328  1.5010 -2.4716  1.0482
    2MOL    H99  301   2.753   6.070   3.283 -2.0938  1.4454  2.0468
    2MOL   H100  302   2.725   6.096   3.488  0.9614 -0.3957 -0.2220
    2MOL   H101  303   2.838   6.187   3.596  0.0281  0.2146 -0.0206
    2MOL   C102  304   2.898   6.174   3.152 -0.0350 -0.4524  0.6074
    2MOL   C103  305   2.996   6.049   3.134 -0.4342  0.2593  0.3263
    2MOL   C104  306   2.922   5.916   3.141 -0.2422 -0.3425  0.1584
    2MOL   O105  307   2.917   5.842   3.237  0.4271  0.3412 -0.4221
    2MOL   N106  308   2.852   5.881   3.032  0.0433 -1.4505  0.3130
    2MOL   H107  309   2.954   6.267   3.148  0.9175 -1.0511 -0.2519
    2MOL   H108  310   2.838   6.183   3.062 -1.8079  1.6800  1.9619
    2MOL   H109  311   3.047   6.058   3.038 -0.2400  1.3736  0.5219
    2MOL   H110  312   2.784   5.806   3.024 -0.2976 -0.9703 -1.5359
    2MOL   H111  313   2.835   5.952   2.962  2.2790  1.0566  2.2229
    2MOL   C112  314   3.114   6.047   3.236  0.2670 -0.3313  0.7148
    2MOL   C113  315   3.238   6.125   3.185  0.5071 -0.2016  0.3353
    2MOL   C114  316   3.326   6.049   3.089  0.1219 -0.4421 -0.0480
    2MOL   O115  317   3.374   5.939   3.114 -0.3311 -0.3046 -0.4139
    2MOL   N116  318   3.349   6.102   2.973  0.0667  0.1246  0.0213
    2MOL   H117  319   3.138   5.942   3.254  0.6546 -0.0534  1.8677
    2MOL   H118  320   3.074   6.079   3.332  1.0142  0.1850  0.8576
    2MOL   H119  321   3.213   6.222   3.143 -2.7692 -0.5448  1.3406
    2MOL   H120  322   3.414   6.057   2.910 -0.4238 -1.1249  0.3835
    2MOL   H121  323   3.303   6.185   2.939  1.7829  0.5553 -1.3164
    2MOL   C122  324   3.341   6.173   3.292 -0.4389  0.4728  0.1552
    2MOL   C123  325   3.300   6.281   3.398  0.4576 -0.5146 -0.4166
    2MOL   C124  326   3.263   6.410   3.325 -0.0894  0.4803 -1.0565
    2MOL   O125  327   3.358   6.476   3.276  0.1734  0.9241  0.2173
    2MOL   N126  328   3.139   6.438   3.315  0.8610 -0.2626  0.3578
    2MOL   H127  329   3.432   6.204   3.241 -0.7427 -1.1917 -1.4647
    2MOL   H128  330   3.357   6.082   3.350 -0.7428  0.3105 -0.0183
    2MOL   H129  331   3.204   6.245   3.436  0.7405 -0.3277  0.4763
    2MOL   H130  332   3.104   6.522   3.271 -0.7140 -1.7485 -1.3060
    2MOL   H131  333   3.070   6.375   3.352 -0.8851  1.9471  0.9593
    2MOL   C132  334   3.390   6.304   3.521  0.6765 -0.5364  0.7078
    2MOL   C133  335   3.314   6.291   3.653  0.0803 -0.8022 -0.5828
    2MOL   C134  336   3.242   6.435   3.681 -0.3746  0.1893  0.5272
    2MOL   O135  337   3.300   6.530   3.731 -0.5181  0.1467  0.6233
    2MOL   N136  338   3.116   6.445   3.639  0.0900 -0.4914 -0.5031
    2MOL   H137  339   3.444   6.397   3.505  1.2939 -1.2306 -1.3717
    2MOL   H138  340   3.473   6.233   3.517 -1.0737 -2.6941  1.6519
    2MOL   H139  341   3.228   6.224   3.642  0.5093 -1.3642 -0.5048
    2MOL   H140  342   3.070   6.531   3.665 -0.9656 -0.2553 -3.0932
    2MOL   H141  343   3.062   6.360   3.631 -1.2044  0.1997  0.6596
    2MOL   C142  344   3.413   6.261   3.776 -0.4436 -0.8515  0.2672
    2MOL   C143  345   3.344   6.226   3.913 -0.5852  0.1008 -0.6334
    2MOL   C144  346   3.440   6.254   4.025 -0.1262 -0.1830  0.7824
    2MOL   O145  347   3.553   6.208   4.026 -0.6826 -0.2010  0.3208
    2MOL   N146  348   3.403   6.318   4.134  0.5915  0.6084 -0.0007
    2MOL   H147  349   3.480   6.345   3.789 -0.2583 -0.9745  0.1051
    2MOL   H148  350   3.478   6.177   3.750  0.7678  0.4610 -1.0032
    2MOL   H149  351   3.255   6.287   3.927 -0.3567  1.0822 -3.1547
    2MOL   H150  352   3.470   6.311   4.210  0.9380  2.5081 -0.0930
    2MOL   H151  353   3.313   6.359   4.153 -0.3933 -1.3951 -0.2735
    2MOL   C152  354   3.314   6.081   3.925  0.1998 -0.1426  0.2128
    2MOL   C153  355   3.262   6.013   4.058  0.2887 -0.0793  0.1539
    2MOL   C154  356   3.295   5.859   4.062  0.3935  0.9501 -0.6613
    2MOL   O155  357   3.360   5.812   4.157 -0.1517 -0.4255  0.4225
    2MOL   N156  358   3.259   5.782   3.961  0.0958 -0.1554 -0.8656
    2MOL   H157  359   3.404   6.024   3.904 -1.3970 -2.1853 -1.3717
    2MOL   H158  360   3.245   6.056   3.843 -2.2812 -1.1422  2.5328
    2MOL   H159  361   3.305   6.056   4.149 -0.7156  0.8239  0.2061
    2MOL   H160  362   3.284   5.684   3.960 -1.4451 -0.5898  0.8953
    2MOL   H161  363   3.207   5.814   3.880  0.2156  0.2244 -0.7936
    2MOL   C162  364   3.106   6.034   4.068  0.4622  0.1036  0.4393
    2MOL   C163  365   3.055   6.017   4.215 -0.9486  0.4257  0.1241
    2MOL   C164  366   2.914   5.960   4.210 -0.0272  0.6188 -0.3842
    2MOL   O165  367   2.821   6.028   4.174  0.3561 -0.1280  0.2024
    2MOL   N166  368   2.893   5.834   4.244  0.5063  0.1720  0.0875
    2MOL   H167  369   3.058   5.957   4.007  1.1751 -0.2982  0.3746
    2MOL   H168  370   3.075   6.129   4.024  0.2008 -1.5157 -3.0049
    2MOL   H169  371   3.120   5.949   4.270 -2.2844 -1.1624 -0.2125
    2MOL   H170  372   2.802   5.790   4.247  1.2789 -1.3509  2.5246
    2MOL   H171  373   2.963   5.769   4.277  0.8714  0.1431 -0.7231
    2MOL   C172  374   3.066   6.152   4.282 -0.0732 -0.5831 -0.2809
    2MOL   C173  375   3.041   6.146   4.436  0.2204  0.2989  0.0273
    2MOL   C174  376   3.071   6.280   4.503  0.1559 -0.1538  0.8639
    2MOL   O175  377   2.990   6.358   4.539  0.3830 -0.1089  0.2461
    2MOL   N176  378   3.202   6.309   4.522 -0.7742  0.1025  0.4135
    2MOL   H177  379   3.003   6.231   4.241  0.8634  1.4883  2.0769
    2MOL   H178  380   3.166   6.193   4.272 -1.0800  1.8811 -0.6285
    2MOL   H179  381   2.933   6.139   4.446  0.4469 -0.6095  1.9722
    2MOL   H180  382   3.269   6.238   4.497  0.0276  1.3139 -0.9205
    2MOL   H181  383   3.232   6.404   4.540 -2.1306  0.1238  2.8303
    2MOL   C182  384   3.095   6.024   4.510 -0.2368 -0.0780 -0.4104
    2MOL   C183  385   3.108   6.025   4.666 -0.8015  0.0738 -0.3099
    2MOL   C184  386   3.204   5.913   4.714  0.4791 -0.0457  0.2710
    2MOL   O185  387   3.218   5.812   4.650 -0.1392  0.3056 -0.2273
    2MOL   N186  388   3.276   5.942   4.822  1.4089 -0.3633 -0.2672
    2MOL   H187  389   3.199   6.008   4.482  0.4769  0.0952  2.0663
    2MOL   H188  390   3.028   5.945   4.477  0.8116 -1.1062 -0.0901
    2MOL   H189  391   3.165   6.116   4.683  0.5923 -0.8795  0.1598
    2MOL   H190  392   3.263   6.031   4.868 -3.0292 -1.2149  0.3075
    2MOL   H191  393   3.325   5.864   4.864 -3.9571 -1.8636  3.7115
    2MOL   C192  394   2.965   6.032   4.722  0.0171 -0.1868  0.1132
    2MOL   C193  395   2.950   6.024   4.870 -1.0445  0.1929  0.1081
    2MOL   C194  396   2.994   6.152   4.936 -0.3949 -0.3132 -0.7993
    2MOL   O195  397   3.113   6.169   4.947  0.2098 -0.3615  0.2372
    2MOL   N196  398   2.908   6.246   4.970 -0.0667  0.3286 -0.5435
    2MOL   H197  399   2.921   5.937   4.693 -0.5430 -0.5294  2.0377
    2MOL   H198  400   2.903   6.109   4.677 -0.2272  0.2515  1.1741
    2MOL   H199  401   2.848   5.998   4.898 -0.2484 -1.1120  1.9083
    2MOL   H200  402   2.815   6.226   4.936  0.3399  0.6636 -1.8865
    2MOL   H201  403   2.936   6.337   5.004  2.6594 -0.5697 -0.3027
    2MOL   H202  404   3.014   5.949   4.917  0.7058  0.9944 -0.9269
    3MOL     C1  405   6.895   3.663   4.231  0.4093 -0.7157 -0.3444
    3MOL     C2  406   6.861   3.737   4.358  0.0815 -0.1503  0.1906
    3MOL     C3  407   6.945   3.867   4.358  1.0256 -0.4353  0.0186
    3MOL     O4  408   7.071   3.866   4.358  0.1699  0.4162 -0.3351
    3MOL     N5  409   6.877   3.984   4.357 -0.3220  0.2507  0.3637
    3MOL     H6  410   6.810   3.602   4.201  0.5582 -0.7383 -0.7302
    3MOL     H7  411   6.924   3.725   4.146 -1.0565 -0.0662 -0.3749
    3MOL     H8  412   6.757   3.770   4.360  0.1571  0.0506  0.8270
    3MOL     H9  413   6.781   3.986   4.387  0.0023  0.0439  1.4330
    3MOL    H10  414   6.929   4.070   4.357  0.4612 -0.1903 -1.5039
    3MOL    H11  415   6.983   3.598   4.242  0.1969 -0.7219  1.3330
    3MOL    C12  416   6.892   3.658   4.487  0.1763 -0.1490  0.1882
    3MOL    C13  417   6.818   3.528   4.522  0.2592 -0.0190  0.6429
    3MOL    C14  418   6.671   3.550   4.527 -0.2156 -0.5182 -0.4335
    3MOL    O15  419   6.605   3.558   4.632 -0.2792  0.5433 -0.2151
    3MOL    N16  420   6.608   3.554   4.413 -0.1937  0.0040 -0.4199
    3MOL    H17  421   6.874   3.731   4.565 -0.0097 -0.5619  0.5363
    3MOL    H18  422   6.993   3.619   4.499  1.1954  2.3957  0.1171
    3MOL    H19  423   6.838   3.461   4.438 -0.8758 -1.1327  1.2483
    3MOL    H20  424   6.657   3.525   4.329  2.3753 -2.0092  1.7083
    3MOL    H21  425   6.509   3.569   4.403 -0.4050 -1.0758  0.0299
    3MOL    C22  426   6.872   3.454   4.638  0.0757  0.3173 -0.2635
    3MOL    C23  427   6.904   3.526   4.776 -0.0520 -0.4482 -0.5891
    3MOL    C24  428   7.041   3.594   4.771  0.2072  0.2243  0.1378
    3MOL    O25  429   7.130   3.542   4.711 -0.1853 -0.0799  0.1608
    3MOL    N26  430   7.051   3.714   4.819  0.5516 -0.1066  0.1394
    3MOL    H27  431   6.952   3.385   4.611 -1.4890 -1.3999 -0.6392
    3MOL    H28  432   6.798   3.380   4.669 -0.6065  0.5267 -1.3810
    3MOL    H29  433   6.831   3.607   4.789  1.2233  0.4221  1.3860
    3MOL    H30  434   6.983   3.754   4.882  1.6706 -0.6962  1.7553
    3MOL    H31  435   7.134   3.767   4.796  1.1997 -0.9466  0.5135
    3MOL    C32  436   6.890   3.421   4.886  0.7045  0.0651  0.1326
    3MOL    C33  437   6.905   3.469   5.032 -0.3697  0.3098  0.7315
    3MOL    C34  438   7.053   3.462   5.082  0.9952 -0.6986  0.5460
    3MOL    O35  439   7.104   3.356   5.115  0.1724 -0.0559  0.5753
    3MOL    N36  440   7.115   3.573   5.119 -0.4506 -0.0138 -0.4700
    3MOL    H37  441   6.956   3.337   4.862  0.0648 -0.6182  0.7703
    3MOL    H38  442   6.794   3.372   4.877  1.5483 -1.3918 -1.2474
    3MOL    H39  443   6.865   3.571   5.034 -2.4299 -0.4631  0.7228
    3MOL    H40  444   7.196   3.578   5.179 -0.9167  0.4161  0.1270
    3MOL    H41  445   7.071   3.662   5.101  0.3814  0.2173 -1.4138
    3MOL    C42  446   6.811   3.390   5.132 -0.9566  0.3242  0.2515
    3MOL    C43  447   6.774   3.465   5.269  0.6499  0.4252 -0.0079
    3MOL    C44  448   6.714   3.356   5.354  0.4045 -0.4043  0.0236
    3MOL    O45  449   6.594   3.355   5.383 -0.5237  0.4956  0.2935
    3MOL    N46  450   6.786   3.255   5.387 -0.6283  0.3536 -0.2942
    3MOL    H47  451   6.862   3.296   5.151  1.4734  1.5605  0.0587
    3MOL    H48  452   6.718   3.357   5.085 -2.6999  1.0277  3.0756
    3MOL    H49  453   6.866   3.490   5.323  1.3547 -2.8212  0.4243
    3MOL    H50  454   6.748   3.179   5.442 -0.4620  1.7145  1.7770
    3MOL    H51  455   6.885   3.260   5.404 -1.1011  0.7826  2.7673
    3MOL    C52  456   6.690   3.601   5.251 -0.5797 -0.2193 -0.0320
    3MOL    C53  457   6.565   3.587   5.148 -0.5041 -0.1861  0.1655
    3MOL    C54  458   6.600   3.629   5.002 -0.0623 -0.3004  0.5843
    3MOL    O55  459   6.639   3.741   4.975 -0.1118 -0.1796 -0.5577
    3MOL    N56  460   6.579   3.535   4.912  0.3255 -0.0451  0.3066
    3MOL    H57  461   6.761   3.669   5.205 -2.5312  1.6831 -0.2967
    3MOL    H58  462   6.670   3.634   5.353  2.4433 -0.5730  0.7118
    3MOL    H59  463   6.526   3.486   5.133 -0.8810 -0.1581  0.9213
    3MOL    H60  464   6.551   3.439   4.924  3.7021 -1.0879  0.5469
    3MOL    H61  465   6.594   3.557   4.815  0.6870 -0.2434  0.3164
    3MOL    C62  466   6.444   3.672   5.197 -0.0436  0.5835  0.2586
    3MOL    C63  467   6.350   3.598   5.295 -0.3927  0.2786 -0.4987
    3MOL    C64  468   6.267   3.486   5.226  0.5091 -0.0023  0.4104
    3MOL    O65  469   6.181   3.515   5.138 -0.4710  0.0367  0.0479
    3MOL    N66  470   6.306   3.365   5.253 -0.2567  0.0285 -0.4146
    3MOL    H67  471   6.380   3.697   5.113 -0.2480 -2.5172 -0.5866
    3MOL    H68  472   6.488   3.759   5.245  2.9287 -0.7706  0.1318
    3MOL    H69  473   6.425   3.548   5.356  1.3007  3.8474  0.4629
    3MOL    H70  474   6.378   3.357   5.323  2.3074  0.7939 -2.8426
    3MOL    H71  475   6.269   3.279   5.215  0.1025 -0.4395  0.2840
    3MOL    C72  476   6.269   3.697   5.382  0.0682 -0.7347 -0.0094
    3MOL    C73  477   6.194   3.637   5.502  0.2571 -0.5895  0.0256
    3MOL    C74  478   6.097   3.742   5.570  0.0721 -0.6297 -0.1788
    3MOL    O75  479   6.112   3.857   5.550  0.4061 -0.7407  0.0557
    3MOL    N76  480   6.013   3.690   5.652  0.2078  0.8364  0.7627
    3MOL    H77  481   6.195   3.742   5.316 -0.1752 -0.4224  0.4730
    3MOL    H78  482   6.340   3.773   5.414 -1.0254 -0.7883  2.6656
    3MOL    H79  483   6.130   3.567   5.448 -0.2623  1.1963 -1.7634
    3MOL    H80  484   5.940   3.737   5.703 -2.6010 -3.0571  0.5065
    3MOL    H81  485   6.011   3.589   5.656  0.6491  0.7564 -0.7346
    3MOL    C82  486   6.278   3.565   5.605 -0.8448 -0.4421 -0.0354
    3MOL    C83  487   6.267   3.413   5.607 -0.5278 -0.5654  0.8860
    3MOL    C84  488   6.132   3.365   5.650  0.9570 -0.7206  0.8414
    3MOL    O85  489   6.067   3.293   5.571  0.1074  0.0323  0.1997
    3MOL    N86  490   6.077   3.406   5.762 -0.4795 -0.0109 -0.5388
    3MOL    H87  491   6.263   3.606   5.705  1.4759  1.3538 -0.3886
    3MOL    H88  492   6.379   3.597   5.579 -0.8076 -0.8886 -0.4586
    3MOL    H89  493   6.286   3.400   5.501 -2.4946  0.0770  0.4347
    3MOL    H90  494   5.984   3.380   5.793 -0.0282 -0.3316  0.5769
    3MOL    H91  495   6.128   3.458   5.831 -0.1202 -0.2098 -0.6535
    3MOL    C92  496   6.388   3.348   5.679 -0.0403  0.2696  0.1271
    3MOL    C93  497   6.406   3.198   5.659 -0.3225 -0.6596 -0.2268
    3MOL    C94  498   6.324   3.137   5.779 -0.3999 -0.1495  0.4002
    3MOL    O95  499   6.361   3.156   5.895  0.2394  0.0808 -0.1663
    3MOL    N96  500   6.215   3.069   5.746 -0.5528  0.4109 -0.2005
    3MOL    H97  501   6.394   3.377   5.784 -2.0480  0.6551  0.1556
    3MOL    H98  502   6.479   3.390   5.636 -0.8947  1.9970 -0.0406
    3MOL    H99  503   6.364   3.159   5.567 -2.7163 -0.0635  0.5785
    3MOL   H100  504   6.165   3.019   5.817  0.5697  0.4936  0.6531
    3MOL   H101  505   6.179   3.055   5.652  3.4823 -1.0646 -1.6187
    3MOL   C102  506   6.556   3.140   5.673 -0.2442 -0.5678  0.4277
    3MOL   C103  507   6.583   2.984   5.651 -0.6894 -0.3564 -0.5517
    3MOL   C104  508   6.501   2.916   5.545 -0.1361  0.2620  0.3934
    3MOL   O105  509   6.413   2.840   5.571 -0.5879 -0.5880  0.2554
    3MOL   N106  510   6.528   2.938   5.420 -0.6418  0.4424  0.3653
    3MOL   H107  511   6.597   3.167   5.770 -1.0043  0.6016  0.4309
    3MOL   H108  512   6.613   3.192   5.594 -1.7260 -0.9609 -0.9175
    3MOL   H109  513   6.683   2.977   5.609 -0.4758  0.1513 -0.1486
    3MOL   H110  514   6.482   2.879   5.352 -1.9812  1.8754  0.0166
    3MOL   H111  515   6.597   3.000   5.380 -1.9638  1.1974 -0.8135
    3MOL   C112  516   6.585   2.907   5.786 -0.2589  0.3054  0.0144
    3MOL   C113  517   6.677   2.953   5.904 -0.7461 -0.3146  0.5470
    3MOL   C114  518   6.822   2.966   5.858 -0.5786  0.3900 -0.3438
    3MOL   O115  519   6.877   2.869   5.812 -0.0969  0.3499 -0.0774
    3MOL   N116  520   6.889   3.082   5.864  0.2752  0.3552  0.0102
    3MOL   H117  521   6.623   2.806   5.766  1.2726  1.3255 -2.4228
    3MOL   H118  522   6.483   2.900   5.823 -0.0004 -1.2946  0.4858
    3MOL   H119  523   6.632   3.039   5.954 -2.2050  0.1126 -1.4277
    3MOL   H120  524   6.979   3.074   5.818 -0.6674  1.1263 -1.9980
    3MOL   H121  525   6.827   3.161   5.856 -2.1091 -1.5769 -1.4480
    3MOL   C122  526   6.662   2.844   6.019  0.2631 -0.3747 -0.2373
    3MOL   C123  527   6.524   2.790   6.065  0.8372  0.1405  0.0761
    3MOL   C124  528   6.503   2.801   6.214 -0.1502 -1.2209  0.5186
    3MOL   O125  529   6.576   2.733   6.289  0.0968  0.0926 -0.0647
    3MOL   N126  530   6.422   2.891   6.266 -0.0835  0.2371 -0.1115
    3MOL   H127  531   6.709   2.890   6.106 -0.1335 -0.2192 -0.1044
    3MOL   H128  532   6.730   2.761   5.999 -2.5166 -2.2675 -2.1545
    3MOL   H129  533   6.451   2.866   6.036  0.6960 -0.4408 -1.1216
    3MOL   H130  534   6.406   2.887   6.365 -1.0229 -0.8727 -0.3086
    3MOL   H131  535   6.355   2.933   6.203 -1.1860 -1.3219  0.0096
    3MOL   C132  536   6.492   2.644   6.023  0.8102 -0.2049  1.0042
    3MOL   C133  537   6.418   2.626   5.884 -0.8259  0.0358 -0.5668
    3MOL   C134  538   6.279   2.685   5.903  0.4783 -0.3900 -0.3962
    3MOL   O135  539   6.215   2.676   6.007 -0.0251  0.5037  0.2066
    3MOL   N136  540   6.225   2.751   5.801 -0.1137  0.5579 -0.1812
    3MOL   H137  541   6.421   2.591   6.087 -0.2842 -1.8124 -1.4255
    3MOL   H138  542   6.584   2.586   6.018  0.8727  0.0230 -1.1063
    3MOL   H139  543   6.469   2.683   5.806  1.5643  0.1973  1.0627
    3MOL   H140  544   6.134   2.793   5.810 -0.2740  0.1387  0.1087
    3MOL   H141  545   6.273   2.758   5.712 -1.4113 -0.6727 -0.9750
    3MOL   C142  546   6.410   2.483   5.845 -0.0255 -0.0995 -0.1342
    3MOL   C143  547   6.526   2.429   5.762  0.3745  0.0296 -0.9115
    3MOL   C144  548   6.664   2.433   5.825  0.3359  0.3710  0.2513
    3MOL   O145  549   6.737   2.534   5.816  0.0390 -0.1514 -0.3065
    3MOL   N146  550   6.694   2.339   5.911  0.4959 -0.7988 -0.2818
    3MOL   H147  551   6.319   2.466   5.788 -0.0169  0.2622 -0.2515
    3MOL   H148  552   6.401   2.434   5.943  1.3233  1.7701  0.9468
    3MOL   H149  553   6.499   2.326   5.739 -0.2890 -0.0524  0.2092
    3MOL   H150  554   6.640   2.255   5.923  0.1208 -0.4916  0.2101
    3MOL   H151  555   6.782   2.350   5.960  0.2815  0.9293 -0.2385
    3MOL   C152  556   6.534   2.502   5.626  0.0488 -0.2033 -0.1643
    3MOL   C153  557   6.547   2.412   5.499 -0.0625  0.2535 -0.1059
    3MOL   C154  558   6.610   2.489   5.377  0.1743 -0.1287  0.2747
    3MOL   O155  559   6.667   2.429   5.285  0.3884 -0.6186  0.1270
    3MOL   N156  560   6.587   2.622   5.368  0.0496  0.4129  0.1087
    3MOL   H157  561   6.624   2.564   5.626 -0.5532  0.7061 -1.5886
    3MOL   H158  562   6.451   2.572   5.616  2.1396  2.3075 -0.5105
    3MOL   H159  563   6.623   2.341   5.531 -0.8964 -0.0336  1.2630
    3MOL   H160  564   6.522   2.670   5.428  0.5036  0.4354  0.5863
    3MOL   H161  565   6.625   2.666   5.285 -1.2398 -2.0271 -1.8506
    3MOL   C162  566   6.435   2.315   5.452  0.4211 -0.1027 -0.6594
    3MOL   C163  567   6.305   2.362   5.374  0.4074 -0.5175 -0.0572
    3MOL   C164  568   6.216   2.450   5.463 -0.0522 -0.0961 -0.7791
    3MOL   O165  569   6.151   2.403   5.555  0.1963  0.2811 -0.1684
    3MOL   N166  570   6.214   2.577   5.427 -0.2619 -0.1429  0.4373
    3MOL   H167  571   6.413   2.247   5.535 -0.4964  0.7830 -0.1758
    3MOL   H168  572   6.481   2.252   5.375 -1.4541  0.4943 -2.2959
    3MOL   H169  573   6.342   2.426   5.295  1.1091 -1.8341 -0.8086
    3MOL   H170  574   6.264   2.623   5.352  2.1499  1.3794  2.8913
    3MOL   H171  575   6.149   2.636   5.477 -0.0491 -1.4494  2.3089
    3MOL   C172  576   6.231   2.246   5.311  0.2431  0.2976  0.1658
    3MOL   C173  577   6.294   2.195   5.179  0.1149 -0.3621  0.1026
    3MOL   C174  578   6.329   2.312   5.077  0.1990 -0.5614 -0.0121
    3MOL   O175  579   6.246   2.391   5.026 -0.0718  0.4191  0.0912
    3MOL   N176  580   6.455   2.315   5.046 -0.1279 -0.0881  0.1460
    3MOL   H177  581   6.127   2.278   5.300  0.5939  1.1816 -0.5527
    3MOL   H178  582   6.216   2.165   5.383 -0.9740 -0.3101 -0.7525
    3MOL   H179  583   6.379   2.138   5.217 -0.9364 -1.1874  1.2612
    3MOL   H180  584   6.524   2.244   5.067  1.4753  1.4375  0.1726
    3MOL   H181  585   6.485   2.400   5.000  0.0079 -0.7019 -0.9157
    3MOL   C182  586   6.203   2.096   5.109  0.2785  0.3254  0.7075
    3MOL   C183  587   6.277   1.975   5.050  0.4632 -0.5940  0.3089
    3MOL   C184  588   6.354   2.007   4.920  0.0566  0.4544 -0.2405
    3MOL   O185  589   6.312   2.079   4.830 -0.0572 -0.0223 -0.5248
    3MOL   N186  590   6.475   1.952   4.910  0.6600 -0.0408  0.3824
    3MOL   H187  591   6.135   2.151   5.043 -1.3080 -3.1446 -0.6317
    3MOL   H188  592   6.135   2.058   5.185  0.8192 -2.4239 -0.1283
    3MOL   H189  593   6.343   1.944   5.131  0.1533  1.2045  1.2670
    3MOL   H190  594   6.532   1.985   4.833 -0.3435  0.2031 -0.2586
    3MOL   H191  595   6.514   1.906   4.991  1.7585  0.0356 -0.0879
    3MOL   C192  596   6.180   1.855   5.032  0.4044  0.6767  0.1205
    3MOL   C193  597   6.247   1.720   4.989  0.4802  0.4498 -0.4692
    3MOL   C194  598   6.289   1.647   5.118  0.8055  0.1208 -0.2555
    3MOL   O195  599   6.201   1.609   5.194  0.6025  0.0711  0.5843
    3MOL   N196  600   6.416   1.634   5.149  0.2266  0.1654 -0.0857
    3MOL   H197  601   6.112   1.884   4.952 -0.1938 -0.5383  0.1665
    3MOL   H198  602   6.122   1.831   5.121  1.4287  0.2150  0.6648
    3MOL   H199  603   6.172   1.656   4.942  1.6577 -0.3105 -1.3530
    3MOL   H200  604   6.493   1.688   5.113  1.1798 -1.0773  0.0934
    3MOL   H201  605   6.427   1.574   5.229 -1.9576 -0.4051 -0.1710
    3MOL   H202  606   6.328   1.727   4.917 -0.1466  1.3404 -1.1120
    4MOL     C1  607   2.020   5.732   5.261 -0.6356  0.2612 -0.1294
    4MOL     C2  608   2.011   5.862   5.192 -1.0399  0.4542 -0.8657
    4MOL     C3  609   2.135   5.944   5.229 -0.2222  0.5599  0.3168
    4MOL     O4  610   2.179   5.944   5.345 -0.0865 -0.6275 -0.0814
    4MOL     N5  611   2.188   6.021   5.131  0.1842 -0.0306  0.2494
    4MOL     H6  612   2.002   5.742   5.368  0.0225 -1.1074  0.1277
    4MOL     H7  613   1.958   5.653   5.218  1.6645 -1.4198 -0.4899
    4MOL     H8  614   2.018   5.834   5.087 -0.7253  0.8525 -0.9543
    4MOL     H9  615   2.264   6.080   5.165  1.4011 -1.5869  0.2919
    4MOL    H10  616   2.168   5.996   5.036  4.8393 -2.7314 -0.1935
    4MOL    H11  617   2.124   5.700   5.260 -0.6531  0.2077 -0.6226
    4MOL    C12  618   1.887   5.944   5.232 -0.2456  1.3666 -0.0151
    4MOL    C13  619   1.746   5.880   5.234  0.9142 -0.5449 -0.4778
    4MOL    C14  620   1.696   5.871   5.088 -0.5224 -0.5465 -0.0029
    4MOL    O15  621   1.669   5.969   5.023  0.2767 -0.0516  0.0045
    4MOL    N16  622   1.681   5.746   5.043 -0.8119  0.2473  0.1932
    4MOL    H17  623   1.882   6.035   5.172 -0.4119  1.5014  0.2041
    4MOL    H18  624   1.904   5.989   5.330  0.9828 -1.1990  0.9742
    4MOL    H19  625   1.764   5.779   5.270  0.1292 -0.9988 -1.3361
    4MOL    H20  626   1.677   5.730   4.943  0.6542  1.0818 -0.0164
    4MOL    H21  627   1.716   5.678   5.109 -1.0203 -0.0260  0.0178
    4MOL    C22  628   1.644   5.959   5.332 -0.4202  0.4045  0.9249
    4MOL    C23  629   1.526   5.875   5.392 -0.2052 -0.1725  0.6133
    4MOL    C24  630   1.440   5.798   5.293  0.3033 -0.3755  0.3193
    4MOL    O25  631   1.364   5.860   5.219  0.3597 -0.9358  0.8629
    4MOL    N26  632   1.446   5.673   5.287 -0.5803  0.6569  0.1445
    4MOL    H27  633   1.599   6.037   5.271  0.8942 -1.4685 -2.5761
    4MOL    H28  634   1.696   6.012   5.412 -0.3798  1.0680  0.4557
    4MOL    H29  635   1.582   5.806   5.454 -0.0940  0.1701  0.8913
    4MOL    H30  636   1.504   5.613   5.345  0.3471  2.0500  0.6684
    4MOL    H31  637   1.373   5.632   5.230  0.3413  0.0255 -0.6041
    4MOL    C32  638   1.428   5.962   5.476  0.1079  0.3487  0.0068
    4MOL    C33  639   1.317   5.894   5.556 -0.1934  0.0071 -0.4202
    4MOL    C34  640   1.220   5.998   5.609  0.0517 -0.7437 -0.7988
    4MOL    O35  641   1.226   6.043   5.722  0.2850 -0.2865  0.4715
    4MOL    N36  642   1.126   6.042   5.522 -0.5232  0.0999 -0.6149
    4MOL    H37  643   1.386   6.031   5.402  2.5705  1.7663 -0.1419
    4MOL    H38  644   1.476   6.035   5.541  1.2161  0.8123 -1.3162
    4MOL    H39  645   1.254   5.828   5.495 -0.2125 -0.2925 -0.0790
    4MOL    H40  646   1.091   6.132   5.551  1.3020  0.5879  0.1599
    4MOL    H41  647   1.114   6.002   5.430  0.4689  0.9911 -1.1332
    4MOL    C42  648   1.366   5.806   5.671  0.4732  0.3194  0.8821
    4MOL    C43  649   1.451   5.854   5.787  0.5726 -0.3270  0.9658
    4MOL    C44  650   1.591   5.901   5.748 -0.5382  0.2170  0.1316
    4MOL    O45  651   1.664   5.817   5.693  0.4763 -0.1838 -0.1591
    4MOL    N46  652   1.618   6.025   5.792  0.8895 -0.3272  0.1954
    4MOL    H47  653   1.424   5.727   5.624  0.0373  0.7587 -0.4405
    4MOL    H48  654   1.277   5.755   5.709  1.5741 -0.3676  2.5890
    4MOL    H49  655   1.399   5.934   5.840  1.8152  1.0983  0.0475
    4MOL    H50  656   1.570   6.064   5.872  1.5857 -0.0496  0.4748
    4MOL    H51  657   1.707   6.064   5.765  0.7844 -0.3896 -0.2439
    4MOL    C52  658   1.473   5.744   5.898  0.3478 -0.0736  0.3861
    4MOL    C53  659   1.405   5.778   6.029  0.9405 -0.6280 -0.1921
    4MOL    C54  660   1.452   5.676   6.136 -0.1433 -0.1101 -0.4985
    4MOL    O55  661   1.419   5.559   6.137 -0.2031 -0.1442 -0.0922
    4MOL    N56  662   1.530   5.719   6.240  0.4113  0.2280  0.1800
    4MOL    H57  663   1.579   5.734   5.918  0.5970  0.6597 -0.5533
    4MOL    H58  664   1.437   5.649   5.856 -0.5015 -0.5861  2.2210
    4MOL    H59  665   1.436   5.879   6.055 -1.2959 -0.3015  1.3661
    4MOL    H60  666   1.549   5.652   6.313 -0.3450  1.9323  1.9910
    4MOL    H61  667   1.556   5.816   6.249 -0.7368  0.6022 -0.4327
    4MOL    C62  668   1.249   5.769   6.012 -0.4697 -0.0834  0.5434
    4MOL    C63  669   1.173   5.821   6.132  0.1159  0.3462 -0.2058
    4MOL    C64  670   1.025   5.785   6.114 -0.7307  0.3751  0.1290
    4MOL    O65  671   0.977   5.777   6.000 -0.0545  0.1567 -0.0456
    4MOL    N66  672   0.951   5.780   6.228  0.1824  0.0820  0.3744
    4MOL    H67  673   1.231   5.667   5.978  0.0627  0.0061 -0.0252
    4MOL    H68  674   1.214   5.829   5.928 -0.8574  0.4423  1.0766
    4MOL    H69  675   1.202   5.744   6.204 -0.4875 -0.7451 -1.1286
    4MOL    H70  676   0.998   5.768   6.317 -0.4343 -0.3981  0.6410
    4MOL    H71  677   0.851   5.778   6.245  0.0448  2.4887  0.0602
    4MOL    C72  678   1.193   5.965   6.183  0.3963  0.3009  0.2472
    4MOL    C73  679   1.157   6.085   6.086 -0.1788  0.9039 -0.1256
    4MOL    C74  680   1.294   6.157   6.056  0.1200 -0.6733 -0.0168
    4MOL    O75  681   1.354   6.217   6.147  0.3511  0.6322 -0.4745
    4MOL    N76  682   1.336   6.168   5.934  0.3632 -0.0061 -0.0932
    4MOL    H77  683   1.296   5.971   6.217  0.3861  0.3037  0.2780
    4MOL    H78  684   1.127   5.970   6.270  0.4548 -2.1568  0.4656
    4MOL    H79  685   1.112   6.052   5.992  1.0400 -0.7622 -0.1421
    4MOL    H80  686   1.289   6.121   5.858  2.7582  0.3262 -1.8457
    4MOL    H81  687   1.423   6.218   5.921  1.0829 -0.4915  2.6052
    4MOL    C82  688   1.060   6.186   6.141 -0.1050 -1.0917  0.4506
    4MOL    C83  689   0.916   6.132   6.153 -0.5072  0.1555 -0.3556
    4MOL    C84  690   0.846   6.153   6.019  0.3342 -0.3387  0.2249
    4MOL    O85  691   0.804   6.265   5.991  0.4840 -0.2489 -0.0233
    4MOL    N86  692   0.836   6.048   5.941 -0.2427  0.2312  0.3982
    4MOL    H87  693   1.054   6.276   6.080  0.9581 -1.7924 -0.7185
    4MOL    H88  694   1.097   6.218   6.239 -0.5271  0.0017  0.2664
    4MOL    H89  695   0.912   6.024   6.166  2.6984  0.0215 -0.0690
    4MOL    H90  696   0.883   5.960   5.959 -1.2889 -0.5232 -0.5179
    4MOL    H91  697   0.796   6.060   5.849 -1.5422  1.4480  1.1077
    4MOL    C92  698   0.824   6.197   6.265 -0.0629  0.2751  0.4974
    4MOL    C93  699   0.849   6.140   6.408  0.0172 -0.3070 -0.2196
    4MOL    C94  700   0.811   5.993   6.408 -0.1175 -0.1191  0.3935
    4MOL    O95  701   0.723   5.951   6.329  0.7294  0.3844 -0.3801
    4MOL    N96  702   0.871   5.919   6.501 -0.3758  0.0376 -0.4864
    4MOL    H97  703   0.721   6.180   6.235 -0.3275 -0.4652  1.7837
    4MOL    H98  704   0.836   6.305   6.268 -1.8172  0.4582  1.3606
    4MOL    H99  705   0.954   6.124   6.436 -0.2635 -0.4916  0.7668
    4MOL   H100  706   0.943   5.959   6.559  0.6943 -1.0831 -1.0315
    4MOL   H101  707   0.843   5.823   6.520 -2.2384  0.5066 -0.7412
    4MOL   C102  708   0.779   6.219   6.526 -0.2461 -0.3513  0.1458
    4MOL   C103  709   0.862   6.341   6.582  0.2931 -0.6657  0.2528
    4MOL   C104  710   1.008   6.308   6.607  0.0889 -1.0524 -0.3236
    4MOL   O105  711   1.045   6.250   6.708  0.4029 -0.0294 -0.3463
    4MOL   N106  712   1.097   6.344   6.517  0.1383  0.5855  0.0237
    4MOL   H107  713   0.754   6.145   6.601 -2.4663  1.2775  1.0423
    4MOL   H108  714   0.686   6.258   6.486 -0.0327  1.3410  1.2786
    4MOL   H109  715   0.863   6.405   6.494 -0.0242  1.2225  1.6001
    4MOL   H110  716   1.196   6.328   6.526 -0.2212 -1.5251  0.5920
    4MOL   H111  717   1.070   6.389   6.430  2.1593 -0.3670 -1.1442
    4MOL   C112  718   0.800   6.432   6.693 -0.1940 -0.2112  0.8947
    4MOL   C113  719   0.835   6.584   6.689  0.4243 -0.0097 -0.2703
    4MOL   C114  720   0.966   6.608   6.762 -0.0677  0.2077  0.4041
    4MOL   O115  721   0.971   6.592   6.882 -0.3953  0.4116  0.3441
    4MOL   N116  722   1.073   6.640   6.697 -0.3093 -0.5626 -0.2781
    4MOL   H117  723   0.819   6.390   6.792  0.6555  2.2972  1.8473
    4MOL   H118  724   0.692   6.419   6.688 -0.3619  0.9307  1.2790
    4MOL   H119  725   0.847   6.629   6.590 -2.1875  1.1860 -0.0780
    4MOL   H120  726   1.157   6.642   6.753 -0.3588  0.7923 -0.2200
    4MOL   H121  727   1.069   6.631   6.596  0.1010 -1.3397 -0.2235
    4MOL   C122  728   0.733   6.675   6.754 -0.1524 -0.6376 -0.1729
    4MOL   C123  729   0.607   6.718   6.670 -0.0708  0.4225  0.2581
    4MOL   C124  730   0.626   6.846   6.591  0.5760 -0.0113 -0.0585
    4MOL   O125  731   0.705   6.929   6.629  0.0060 -0.1637 -0.2340
    4MOL   N126  732   0.554   6.851   6.478 -0.3642 -0.5167  0.4952
    4MOL   H127  733   0.782   6.768   6.783 -0.5420 -0.5765  0.2982
    4MOL   H128  734   0.696   6.626   6.845  0.0202 -2.1630 -0.9042
    4MOL   H129  735   0.585   6.639   6.598  1.0052 -1.2017  1.6767
    4MOL   H130  736   0.568   6.928   6.414  0.9649  0.0798  1.4610
    4MOL   H131  737   0.470   6.797   6.466 -0.6343  0.1086 -0.4643
    4MOL   C132  738   0.481   6.739   6.760  0.3596  0.7634  0.3946
    4MOL   C133  739   0.395   6.613   6.777  0.5797 -0.9052  0.9646
    4MOL   C134  740   0.293   6.589   6.664 -0.7674  0.6773  0.6477
    4MOL   O135  741   0.266   6.684   6.595 -0.0014 -0.0712  0.2545
    4MOL   N136  742   0.248   6.470   6.643  0.1182 -0.2223 -0.4745
    4MOL   H137  743   0.412   6.818   6.731  0.0890  0.2613 -0.3155
    4MOL   H138  744   0.515   6.768   6.860 -1.0290  2.0825  0.5116
    4MOL   H139  745   0.475   6.538   6.782  0.1464 -1.3153  1.9466
    4MOL   H140  746   0.180   6.449   6.570  1.5097  0.1041 -1.8815
    4MOL   H141  747   0.286   6.399   6.703 -1.0078 -1.6844 -1.4202
    4MOL   C142  748   0.324   6.606   6.915 -0.2309 -0.0225 -0.1332
    4MOL   C143  749   0.276   6.459   6.961 -0.2675 -0.1238  0.6307
    4MOL   C144  750   0.125   6.467   6.988  0.1134 -0.2903  0.5371
    4MOL   O145  751   0.079   6.530   7.077  0.0464 -0.1833 -0.1061
    4MOL   N146  752   0.045   6.415   6.898 -0.1886 -0.3048  0.4656
    4MOL   H147  753   0.239   6.674   6.916  0.7403  1.2221 -0.9773
    4MOL   H148  754   0.392   6.641   6.993 -0.9348 -0.9698  0.9266
    4MOL   H149  755   0.301   6.384   6.885  0.1092 -0.0395  0.6718
    4MOL   H150  756   7.603   6.413   6.917 -0.5593 -2.2364 -1.4791
    4MOL   H151  757   0.084   6.389   6.808  1.5751 -0.1419  1.1716
    4MOL   C152  758   0.347   6.418   7.091 -0.7289  0.0744  0.5807
    4MOL   C153  759   0.498   6.370   7.078 -0.4819 -0.6677 -0.6503
    4MOL   C154  760   0.500   6.237   6.997  0.3967  0.6317 -0.4860
    4MOL   O155  761   0.421   6.148   7.025 -0.4338 -0.2882 -0.0033
    4MOL   N156  762   0.597   6.220   6.907 -0.2850 -0.1016  0.5684
    4MOL   H157  763   0.294   6.343   7.150  0.1979 -1.3061 -0.2960
    4MOL   H158  764   0.342   6.497   7.166 -3.1384  0.1941  0.3204
    4MOL   H159  765   0.554   6.446   7.024  2.1179 -2.6588 -0.8443
    4MOL   H160  766   0.673   6.285   6.918 -0.9263  0.7027  0.3408
    4MOL   H161  767   0.610   6.145   6.840  0.0072 -0.6900  1.2894
    4MOL   C162  768   0.559   6.352   7.219 -0.5928  0.2566  0.1882
    4MOL   C163  769   0.640   6.471   7.275  0.3784 -0.2852 -0.7261
    4MOL   C164  770   0.549   6.586   7.327  0.2424  0.1358 -0.5442
    4MOL   O165  771   0.534   6.700   7.271 -0.2660 -0.0556 -0.0046
    4MOL   N166  772   0.475   6.557   7.438  0.4834  0.7529  0.0933
    4MOL   H167  773   0.622   6.264   7.227 -0.9807 -0.0245  0.1156
    4MOL   H168  774   0.471   6.327   7.278 -0.8867 -0.4290 -0.5286
    4MOL   H169  775   0.678   6.437   7.372 -1.0463  1.0409  0.3255
    4MOL   H170  776   0.425   6.633   7.483 -2.1588 -0.7691 -0.1858
    4MOL   H171  777   0.479   6.468   7.484  1.2769  0.2566 -0.8991
    4MOL   C172  778   0.764   6.517   7.193  0.4748  0.2857 -0.1108
    4MOL   C173  779   0.889   6.548   7.274  0.2569 -0.0408  0.6258
    4MOL   C174  780   0.939   6.694   7.249 -0.1431  0.3248 -0.5997
    4MOL   O175  781   0.898   6.783   7.316 -0.1964  0.1064 -0.3007
    4MOL   N176  782   1.017   6.717   7.138  0.3911 -0.2866  0.2259
    4MOL   H177  783   0.729   6.608   7.145 -0.8688 -0.5536 -0.7555
    4MOL   H178  784   0.775   6.446   7.112  0.4128  0.2556 -0.0924
    4MOL   H179  785   0.857   6.562   7.377  0.6640 -0.8599  0.8656
    4MOL   H180  786   1.043   6.814   7.124 -1.9558  0.4668  0.8277
    4MOL   H181  787   1.032   6.645   7.070 -0.6229 -2.5456  2.3144
    4MOL   C182  788   1.004   6.441   7.273  0.2311  0.1763  0.1387
    4MOL   C183  789   1.032   6.388   7.415 -0.0810 -0.2955  0.1305
    4MOL   C184  790   1.187   6.369   7.428 -0.4448  0.3513 -0.7008
    4MOL   O185  791   1.255   6.331   7.336 -0.4581  0.1328 -0.2511
    4MOL   N186  792   1.247   6.384   7.543  0.3084  0.3600 -0.1467
    4MOL   H187  793   1.087   6.488   7.220 -1.0189  0.2280 -1.8350
    4MOL   H188  794   0.970   6.360   7.209  1.9022 -0.6798  0.3074
    4MOL   H189  795   0.996   6.451   7.497 -1.1056  2.2886 -2.1999
    4MOL   H190  796   1.193   6.408   7.625 -0.0402 -1.6590  0.2223
    4MOL   H191  797   1.342   6.355   7.557 -0.2210 -1.4333 -0.1813
    4MOL   C192  798   0.953   6.253   7.436  0.2256  0.2326 -0.4205
    4MOL   C193  799   0.974   6.179   7.568 -0.1807  0.0727 -0.2048
    4MOL   C194  800   1.021   6.036   7.536  0.0692 -0.1956 -0.4408
    4MOL   O195  801   1.142   6.022   7.503 -0.0895  0.1389 -0.4077
    4MOL   N196  802   0.933   5.938   7.541  0.0868  0.3294  0.6242
    4MOL   H197  803   0.991   6.186   7.359 -0.5987 -0.0205 -0.6090
    4MOL   H198  804   0.849   6.275   7.416  0.1893  0.7355  0.2976
    4MOL   H199  805   1.051   6.216   7.635  0.8579 -2.1826 -0.1360
    4MOL   H200  806   0.840   5.958   7.574 -0.3309 -2.7327  1.4506
    4MOL   H201  807   0.968   5.844   7.541  1.8606  0.9476 -1.3431
    4MOL   H202  808   0.890   6.175   7.638 -0.8967 -0.6990 -1.0926
    5MOL     C1  809   3.087   0.266   6.959 -0.9338 -0.3543  0.3074
    5MOL     C2  810   3.137   0.408   6.918  0.7372  0.3344 -0.1764
    5MOL     C3  811   3.015   0.507   6.932 -0.1868  0.5790  0.4353
    5MOL     O4  812   2.906   0.487   6.880  0.2934  0.4869  0.0064
    5MOL     N5  813   3.036   0.620   7.000  0.7529 -0.0963  0.6473
    5MOL     H6  814   3.037   0.257   7.055 -0.4508 -0.0761  0.5881
    5MOL     H7  815   3.030   0.227   6.875  0.5713  2.1133 -1.9377
    5MOL     H8  816   3.219   0.440   6.983  0.2513 -1.5933  1.4493
    5MOL     H9  817   3.124   0.652   7.037  2.6736  0.9872 -4.4695
    5MOL    H10  818   2.952   0.675   7.009  0.6080  0.0648 -1.4855
    5MOL    H11  819   3.178   0.208   6.975 -0.6116  0.5199  1.7701
    5MOL    C12  820   3.192   0.419   6.774 -0.1210 -0.5173 -0.3372
    5MOL    C13  821   3.320   0.338   6.747 -0.3662 -0.4621 -0.6563
    5MOL    C14  822   3.448   0.410   6.796  0.5962 -0.3151  0.3194
    5MOL    O15  823   3.446   0.526   6.830  0.2736 -0.4594  0.0435
    5MOL    N16  824   3.559   0.338   6.808 -0.1470  0.0313 -0.6431
    5MOL    H17  825   3.199   0.524   6.747 -2.3341 -0.3919 -0.5143
    5MOL    H18  826   3.109   0.374   6.720 -0.8813 -0.3429  0.6736
    5MOL    H19  827   3.317   0.245   6.804 -0.0738 -0.7359 -1.0844
    5MOL    H20  828   3.638   0.390   6.844 -0.8416  1.2523 -0.8701
    5MOL    H21  829   3.563   0.237   6.805  0.8073  0.1086 -2.8017
    5MOL    C22  830   3.332   0.302   6.598 -0.9580 -0.2176 -0.5709
    5MOL    C23  831   3.363   0.152   6.575  0.4426 -0.4797 -0.5950
    5MOL    C24  832   3.418   0.126   6.436 -0.2229  0.1148  0.6045
    5MOL    O25  833   3.345   0.139   6.341  0.1812  0.0466  0.1059
    5MOL    N26  834   3.531   0.061   6.420 -0.0849  0.6774 -0.0918
    5MOL    H27  835   3.410   0.363   6.551  0.5306 -1.0834  0.7099
    5MOL    H28  836   3.239   0.317   6.543  0.4997  0.9823 -2.8154
    5MOL    H29  837   3.444   0.133   6.645  0.4142  1.9650  0.1415
    5MOL    H30  838   3.572   0.030   6.507 -0.1691  1.7694  0.3471
    5MOL    H31  839   3.562   0.023   6.332  0.1821  0.3053  0.1584
    5MOL    C32  840   3.243   0.058   6.617 -0.6092  0.4245 -0.6709
    5MOL    C33  841   3.276   7.579   6.683 -0.1875 -0.2315 -0.3234
    5MOL    C34  842   3.351   7.605   6.819  0.3451  0.5842  0.2124
    5MOL    O35  843   3.292   7.634   6.921  0.1478  0.0296  0.2797
    5MOL    N36  844   3.475   7.578   6.829 -0.1739  0.0966  0.0107
    5MOL    H37  845   3.175   0.045   6.532 -0.3475 -0.5526 -0.7353
    5MOL    H38  846   3.172   0.120   6.672  0.1390  1.1984 -0.5774
    5MOL    H39  847   3.189   7.527   6.725  1.3822 -2.3105  0.4561
    5MOL    H40  848   3.522   7.576   6.919  0.2573 -1.1919 -0.2332
    5MOL    H41  849   3.523   7.570   6.741 -0.5165 -1.9828 -0.0152
    5MOL    C42  850   3.353   7.482   6.587 -0.6955 -0.3960  0.1811
    5MOL    C43  851   3.306   7.335   6.585  0.1973 -0.2172 -0.2688
    5MOL    C44  852   3.340   7.253   6.711  0.0807  0.0035 -0.0582
    5MOL    O45  853   3.431   7.288   6.786  0.2473  0.7722 -0.1015
    5MOL    N46  854   3.256   7.150   6.724  0.0212 -0.3046  0.0431
    5MOL    H47  855   3.461   7.488   6.603 -0.6515 -0.5515 -0.0486
    5MOL    H48  856   3.346   7.516   6.484  0.6867  1.4726  0.6758
    5MOL    H49  857   3.197   7.340   6.583  0.0806 -1.1569  2.0248
    5MOL    H50  858   3.186   7.123   6.656 -0.5115  0.7437  0.1645
    5MOL    H51  859   3.266   7.094   6.807  3.9615  0.4998  0.2043
    5MOL    C52  860   3.357   7.273   6.457 -0.1057 -0.2680 -0.0393
    5MOL    C53  861   3.307   7.135   6.409  1.0919 -0.3312 -0.3594
    5MOL    C54  862   3.157   7.124   6.415 -0.4970 -1.2085  1.1101
    5MOL    O55  863   3.087   7.215   6.373 -0.3305  0.6410  0.1866
    5MOL    N56  864   3.110   7.020   6.490  0.6142  0.3816  0.3173
    5MOL    H57  865   3.466   7.276   6.458 -0.1450  3.0480 -0.4413
    5MOL    H58  866   3.332   7.345   6.380 -1.5852  0.7389  1.3582
    5MOL    H59  867   3.323   7.137   6.301 -0.3490  2.5022 -0.5858
    5MOL    H60  868   3.171   6.945   6.518  1.9923  0.7564 -1.6098
    5MOL    H61  869   3.011   7.009   6.503  0.5455 -0.2915 -0.7260
    5MOL    C62  870   3.395   7.019   6.465  0.6329 -0.1467  0.1212
    5MOL    C63  871   3.418   6.896   6.372 -0.6704  0.7830  0.2956
    5MOL    C64  872   3.289   6.804   6.377 -0.5300  0.0730 -0.4229
    5MOL    O65  873   3.237   6.772   6.487 -0.4423 -0.3126 -0.1166
    5MOL    N66  874   3.241   6.764   6.264  0.3542  0.1323 -0.0792
    5MOL    H67  875   3.371   6.996   6.569  0.0471  3.3453  0.8074
    5MOL    H68  876   3.494   7.061   6.479  1.1328 -0.9656 -0.9010
    5MOL    H69  877   3.432   6.942   6.275  2.8699  1.0857  0.9046
    5MOL    H70  878   3.149   6.721   6.261  0.4138 -0.2769  3.0802
    5MOL    H71  879   3.285   6.788   6.176  1.3372  1.1448  0.6784
    5MOL    C72  880   3.544   6.809   6.419 -0.1549 -0.0804  0.4637
    5MOL    C73  881   3.680   6.877   6.435  0.3849  0.0542  0.0685
    5MOL    C74  882   3.719   6.963   6.312 -1.4224 -0.8835  0.3525
    5MOL    O75  883   3.724   7.089   6.323 -0.3399  0.2301 -0.2140
    5MOL    N76  884   3.736   6.907   6.193  0.5073  0.3826  0.6286
    5MOL    H77  885   3.545   6.719   6.357  0.6101 -0.3418  0.8436
    5MOL    H78  886   3.529   6.769   6.520  3.5709  2.4739  2.1658
    5MOL    H79  887   3.663   6.940   6.522 -0.3131  1.5177 -1.1132
    5MOL    H80  888   3.721   6.809   6.175  0.8899  0.1824  1.4101
    5MOL    H81  889   3.761   6.961   6.111  1.1810 -0.6357  0.1622
    5MOL    C82  890   3.788   6.782   6.495 -0.6657  0.0001 -0.4966
    5MOL    C83  891   3.902   6.845   6.578  0.2126 -0.3614  0.4169
    5MOL    C84  892   4.000   6.737   6.618  0.6731  0.7202 -0.6429
    5MOL    O85  893   3.953   6.630   6.654  0.6050 -0.2704  0.0224
    5MOL    N86  894   4.132   6.755   6.617  0.1667  0.2740 -0.1972
    5MOL    H87  895   3.836   6.730   6.413 -2.1054 -0.6187 -0.9513
    5MOL    H88  896   3.735   6.700   6.542 -1.3506  0.8119  0.1668
    5MOL    H89  897   3.958   6.902   6.504  0.7215 -1.2566  0.1057
    5MOL    H90  898   4.169   6.847   6.594  1.0743  0.1971  0.9277
    5MOL    H91  899   4.190   6.674   6.633 -0.5131  0.2031  1.9660
    5MOL    C92  900   3.868   6.943   6.694  0.0677  0.1639 -0.3204
    5MOL    C93  901   3.823   6.881   6.829  0.4137  0.3274 -0.0412
    5MOL    C94  902   3.691   6.809   6.806  0.0417 -0.7283 -0.6900
    5MOL    O95  903   3.580   6.856   6.835 -0.4709 -0.0786 -0.2377
    5MOL    N96  904   3.701   6.684   6.770  0.1109 -0.0576  0.6455
    5MOL    H97  905   3.794   7.008   6.648  0.5538 -0.2574 -1.7394
    5MOL    H98  906   3.958   7.001   6.715 -0.7386  0.9791  0.9848
    5MOL    H99  907   3.898   6.806   6.855 -0.1638 -0.4239 -0.5083
    5MOL   H100  908   3.610   6.649   6.742 -0.2655  1.8948 -0.6278
    5MOL   H101  909   3.780   6.642   6.723 -0.4019 -2.2978  1.6844
    5MOL   C102  910   3.821   6.985   6.941 -0.0122 -0.5404 -0.0782
    5MOL   C103  911   3.736   7.113   6.931  0.0935  0.5952  0.5697
    5MOL   C104  912   3.790   7.211   6.833 -0.1383  0.6749 -0.5573
    5MOL   O105  913   3.906   7.250   6.839 -0.4705 -0.0605  1.0562
    5MOL   N106  914   3.706   7.268   6.746 -0.5777  0.1943 -0.1404
    5MOL   H107  915   3.921   7.025   6.955  0.2767 -0.7758 -1.3937
    5MOL   H108  916   3.781   6.943   7.033  1.4068 -2.2638 -0.2110
    5MOL   H109  917   3.634   7.093   6.901 -0.2777  0.8673  1.6271
    5MOL   H110  918   3.727   7.342   6.681 -1.4115 -0.5597 -1.2945
    5MOL   H111  919   3.612   7.235   6.762  0.1771 -1.8779  0.1836
    5MOL   C112  920   3.743   7.180   7.073  0.5849 -0.8267  0.4649
    5MOL   C113  921   3.626   7.149   7.178  0.5221 -0.1358  0.0939
    5MOL   C114  922   3.507   7.213   7.127  1.1292 -0.6252  0.2353
    5MOL   O115  923   3.405   7.150   7.108  0.1765 -0.1137 -0.1153
    5MOL   N116  924   3.508   7.342   7.089  0.0486  0.1571  0.0092
    5MOL   H117  925   3.738   7.287   7.050  0.2312 -1.5160 -2.8087
    5MOL   H118  926   3.843   7.178   7.116  0.7276  1.4942  0.3079
    5MOL   H119  927   3.621   7.040   7.173  0.8669 -0.2132  1.1640
    5MOL   H120  928   3.585   7.405   7.104 -1.4008  2.2864 -1.3219
    5MOL   H121  929   3.424   7.369   7.041 -0.0913  0.8399  0.6330
    5MOL   C122  930   3.663   7.191   7.320 -0.5310 -0.2028 -0.6727
    5MOL   C123  931   3.564   7.137   7.427  0.4994  0.1502 -0.9419
    5MOL   C124  932   3.595   7.218   7.547 -0.2086  0.4641 -0.0050
    5MOL   O125  933   3.714   7.220   7.585  0.2832  0.1034  0.4743
    5MOL   N126  934   3.493   7.279   7.609 -0.4821 -0.2650  0.2117
    5MOL   H127  935   3.660   7.300   7.315  0.5484 -0.2491 -3.1531
    5MOL   H128  936   3.764   7.157   7.342 -1.2572 -2.7656 -1.1562
    5MOL   H129  937   3.457   7.144   7.406  0.2436 -1.5228 -0.2899
    5MOL   H130  938   3.506   7.336   0.035  0.4988  0.3299 -0.3481
    5MOL   H131  939   3.402   7.262   7.569  0.0259 -1.0675 -0.6315
    5MOL   C132  940   3.594   6.986   7.463 -0.0366  0.1210  0.2711
    5MOL   C133  941   3.486   6.917   7.552  0.1004 -0.0472 -0.3671
    5MOL   C134  942   3.341   6.967   7.552  0.4039 -0.2074  0.5710
    5MOL   O135  943   3.304   7.055   7.627 -0.0827  0.7372  0.1263
    5MOL   N136  944   3.259   6.917   7.464  0.3841  0.4114 -0.1319
    5MOL   H137  945   3.695   6.960   7.494 -0.2129  1.2091  1.8404
    5MOL   H138  946   3.595   6.940   7.365 -2.6372 -0.3169  0.4100
    5MOL   H139  947   3.488   6.815   7.515 -3.7262 -0.7575  1.1986
    5MOL   H140  948   3.170   6.962   7.447 -0.7622 -1.0360  1.7871
    5MOL   H141  949   3.292   6.845   7.402 -0.2862  2.6332 -3.1471
    5MOL   C142  950   3.543   6.887   0.038 -0.3731 -0.1337 -0.1490
    5MOL   C143  951   3.522   6.751   0.119  1.0469  0.1632 -0.0022
    5MOL   C144  952   3.373   6.722   0.152  0.3077 -0.3244 -0.4057
    5MOL   O145  953   3.328   6.610   0.122 -0.1908 -0.0283 -0.2024
    5MOL   N146  954   3.294   6.794   0.230 -0.4266  0.1155  0.3521
    5MOL   H147  955   3.512   6.972   0.099 -1.2415  0.0291 -0.8059
    5MOL   H148  956   3.649   6.908   0.046 -0.1645 -1.6890  1.4307
    5MOL   H149  957   3.545   6.682   0.037  0.6162  0.5818 -0.4833
    5MOL   H150  958   3.213   6.752   0.272 -1.7779  0.9204 -1.3799
    5MOL   H151  959   3.331   6.871   0.284  0.8290 -0.6128  0.5582
    5MOL   C152  960   3.616   6.732   0.245 -0.2137  1.0207 -0.7444
    5MOL   C153  961   3.777   6.737   0.235  0.0804  0.4061  0.3870
    5MOL   C154  962   3.838   6.670   0.111  0.1049  0.4073 -0.1479
    5MOL   O155  963   3.817   6.551   0.083 -0.2790  0.2996 -0.2682
    5MOL   N156  964   3.897   6.752   0.025  0.1229 -0.4726  0.1240
    5MOL   H157  965   3.591   6.630   0.274  0.1884  0.6355 -1.7238
    5MOL   H158  966   3.583   6.793   0.329 -2.2485 -1.2081  0.1371
    5MOL   H159  967   3.787   6.845   0.234 -2.0783  0.6365 -1.0044
    5MOL   H160  968   3.917   6.847   0.054 -1.0929 -0.4086  0.7905
    5MOL   H161  969   3.923   6.733   7.586 -2.2912  0.1640 -0.7040
    5MOL   C162  970   3.836   6.668   0.365 -0.2966 -0.5047 -0.1666
    5MOL   C163  971   3.986   6.648   0.379  0.0869 -0.4911 -0.2596
    5MOL   C164  972   4.009   6.596   0.530  0.8303  0.2542  0.4786
    5MOL   O165  973   3.978   6.667   0.628 -0.1604  0.0217 -0.6414
    5MOL   N166  974   4.056   6.473   0.530 -0.0380  0.8705 -0.2053
    5MOL   H167  975   3.785   6.573   0.380  0.4234 -0.9222 -0.3619
    5MOL   H168  976   3.817   6.725   0.455 -1.8956 -1.0407 -0.1421
    5MOL   H169  977   4.015   6.567   0.312 -1.1584 -1.4293  0.3125
    5MOL   H170  978   4.062   6.431   0.622  0.4039  2.7619  0.6500
    5MOL   H171  979   4.093   6.449   0.439  1.2064  0.3608  0.4222
    5MOL   C172  980   4.079   6.775   0.361  0.3187 -0.0606  0.2638
    5MOL   C173  981   4.201   6.766   0.269 -0.8213 -0.2590 -0.4816
    5MOL   C174  982   4.281   6.645   0.279  0.5517  0.0855 -0.0951
    5MOL   O175  983   4.333   6.620   0.386 -0.7408 -0.4023 -0.0657
    5MOL   N176  984   4.295   6.572   0.169  0.0707  0.3834 -0.0899
    5MOL   H177  985   4.121   6.801   0.458  1.7598  2.2347 -0.9312
    5MOL   H178  986   4.011   6.852   0.323  0.8509 -0.6424 -1.9819
    5MOL   H179  987   4.170   6.781   0.166 -0.6762 -0.8220 -0.6117
    5MOL   H180  988   4.261   6.587   0.075 -2.2992 -2.4110  0.2714
    5MOL   H181  989   4.352   6.490   0.184 -1.9633 -0.8639  0.9083
    5MOL   C182  990   4.299   6.890   0.282 -0.1980  0.8607 -0.5167
    5MOL   C183  991   4.235   7.022   0.233 -0.5883 -0.2129  0.0450
    5MOL   C184  992   4.214   7.031   0.080 -0.0108  0.4272  0.0490
    5MOL   O185  993   4.307   6.999   0.010  0.4454 -0.1921 -0.1705
    5MOL   N186  994   4.099   7.073   0.036  0.1506  0.0939 -0.0698
    5MOL   H187  995   4.380   6.862   0.215  0.2182  0.2565  0.2401
    5MOL   H188  996   4.345   6.896   0.380 -1.6750  2.1546  0.1175
    5MOL   H189  997   4.137   7.034   0.280  0.8685  1.2391  2.8806
    5MOL   H190  998   4.096   7.113   7.600  2.9788 -1.1294 -0.7349
    5MOL   H191  999   4.023   7.096   0.100  1.2376 -0.8961  1.6236
    5MOL   C192 1000   4.316   7.138   0.289  0.3890  0.5163 -0.4221
    5MOL   C193 1001   4.252   7.278   0.264  0.3569 -0.0905  0.1774
    5MOL   C194 1002   4.310   7.349   0.146 -0.0562  0.4911  0.2017
    5MOL   O195 1003   4.427   7.336   0.109 -0.2600 -0.0032  0.4404
    5MOL   N196 1004   4.229   7.426   0.074 -0.0327  0.2485 -0.1122
    5MOL   H197 1005   4.421   7.132   0.260  0.8024 -1.7605  1.3795
    5MOL   H198 1006   4.311   7.123   0.397 -2.2259 -0.0146 -0.5871
    5MOL   H199 1007   4.145   7.264   0.253  0.6281 -1.2368 -1.2476
    5MOL   H200 1008   4.132   7.437   0.099 -0.3164  1.6719 -1.7009
    5MOL   H201 1009   4.272   7.490   0.009  0.7525  0.3109  0.4591
    5MOL   H202 1010   4.268   7.339   0.353 -0.7879 -1.7452  1.5231
    6MOL     C1 1011   6.068   4.791   2.584  0.0064 -0.1117 -0.3828
    6MOL     C2 1012   6.131   4.754   2.732  0.2199  0.0830 -0.3416
    6MOL     C3 1013   6.228   4.866   2.776  0.3259  0.4458  0.8327
    6MOL     O4 1014   6.348   4.855   2.749 -0.3365 -0.1520  0.1690
    6MOL     N5 1015   6.173   4.967   2.845 -0.0820 -0.2684  0.4582
    6MOL     H6 1016   6.006   4.878   2.606  1.2871  0.4474  1.1080
    6MOL     H7 1017   6.146   4.818   2.513 -0.6942 -0.6744 -1.3741
    6MOL     H8 1018   6.050   4.749   2.805  0.7358  0.8516  0.2880
    6MOL     H9 1019   6.072   4.978   2.847 -0.2402 -1.7949  1.2081
    6MOL    H10 1020   6.227   5.050   2.865 -0.0959 -0.1330 -0.0728
    6MOL    H11 1021   6.003   4.715   2.540  2.0924 -1.2396 -1.5677
    6MOL    C12 1022   6.210   4.612   2.719 -0.1737 -0.0981  0.3627
    6MOL    C13 1023   6.218   4.530   2.848 -0.6327 -0.5319 -0.2204
    6MOL    C14 1024   6.274   4.613   2.970  0.3041 -0.3516 -1.0107
    6MOL    O15 1025   6.391   4.621   2.998  0.4949  0.1899  0.0159
    6MOL    N16 1026   6.184   4.679   3.046  0.0194 -0.8736  0.0270
    6MOL    H17 1027   6.310   4.629   2.679  0.0258 -0.4287  0.7140
    6MOL    H18 1028   6.157   4.545   2.652  0.4445  2.0292 -2.3275
    6MOL    H19 1029   6.118   4.498   2.875 -0.8715  2.2067  2.4484
    6MOL    H20 1030   6.214   4.734   3.125  0.6264  0.1039 -0.8704
    6MOL    H21 1031   6.088   4.649   3.052  0.0793 -0.9974  0.3557
    6MOL    C22 1032   6.308   4.404   2.816 -0.0282 -0.7116 -0.3116
    6MOL    C23 1033   6.338   4.302   2.934 -0.1257  0.0309 -0.3212
    6MOL    C24 1034   6.486   4.257   2.930  0.5726 -0.0036  0.2327
    6MOL    O25 1035   6.516   4.143   2.890  0.4402  0.8007  0.4665
    6MOL    N26 1036   6.575   4.337   2.987 -0.2660 -0.4936  0.0029
    6MOL    H27 1037   6.401   4.440   2.773 -0.7542  0.2923 -1.0837
    6MOL    H28 1038   6.270   4.350   2.729  0.1898 -0.5022 -0.5354
    6MOL    H29 1039   6.325   4.353   3.030 -0.6153 -2.7744  1.1628
    6MOL    H30 1040   6.559   4.428   3.027  1.0492 -0.4762  0.5310
    6MOL    H31 1041   6.674   4.314   2.985 -0.5203 -1.6722  0.4159
    6MOL    C32 1042   6.236   4.183   2.930  0.0650 -0.0588 -0.3735
    6MOL    C33 1043   6.087   4.217   2.968 -0.1139 -0.3516 -0.5058
    6MOL    C34 1044   6.079   4.265   3.108 -0.5432 -0.0103  0.1715
    6MOL    O35 1045   6.109   4.208   3.218  0.1717  0.0710 -0.0824
    6MOL    N36 1046   6.032   4.388   3.122  0.0818 -0.4591  0.5214
    6MOL    H37 1047   6.263   4.111   3.008 -1.1903  0.7134  0.8065
    6MOL    H38 1048   6.245   4.128   2.836  0.4908 -0.3134 -0.1844
    6MOL    H39 1049   6.049   4.295   2.902  2.0914  1.4305  0.2446
    6MOL    H40 1050   5.984   4.427   3.042 -3.4568 -2.4028  1.5928
    6MOL    H41 1051   6.027   4.431   3.214  0.7973 -0.5482  0.6088
    6MOL    C42 1052   5.994   4.095   2.942  0.0307 -0.2078 -0.4020
    6MOL    C43 1053   5.870   4.128   2.860 -0.1454 -0.2334 -0.2030
    6MOL    C44 1054   5.911   4.164   2.712 -0.1301 -0.7401 -0.2875
    6MOL    O45 1055   5.910   4.282   2.681 -0.8781 -0.0522 -0.2471
    6MOL    N46 1056   5.936   4.074   2.623  0.1149  0.2611  0.1912
    6MOL    H47 1057   5.957   4.058   3.037  1.1201 -0.3254 -0.0164
    6MOL    H48 1058   6.056   4.017   2.897  0.7569 -0.8053  1.6051
    6MOL    H49 1059   5.812   4.036   2.850 -0.9262  0.4141 -1.7522
    6MOL    H50 1060   5.959   4.105   2.530 -0.5205 -0.3202 -0.1677
    6MOL    H51 1061   5.953   3.982   2.663  0.7411 -0.3434 -1.4295
    6MOL    C52 1062   5.759   4.219   2.928  0.2273 -0.1917 -0.0086
    6MOL    C53 1063   5.617   4.201   2.872  0.7074 -0.2705  0.3117
    6MOL    C54 1064   5.531   4.324   2.911  0.0795 -0.0765  0.2616
    6MOL    O55 1065   5.549   4.398   3.014  0.3061  0.5047  0.4872
    6MOL    N56 1066   5.432   4.354   2.831 -0.1030  0.0230 -0.5258
    6MOL    H57 1067   5.787   4.322   2.912 -2.3393  0.5988  0.3255
    6MOL    H58 1068   5.763   4.215   3.037  0.3049 -1.0658 -0.0401
    6MOL    H59 1069   5.625   4.194   2.764  1.4323  0.8966  0.2771
    6MOL    H60 1070   5.367   4.427   2.857  0.7413  0.3672  0.6456
    6MOL    H61 1071   5.411   4.286   2.759  0.0415  0.4842 -1.0064
    6MOL    C62 1072   5.550   4.075   2.933  0.0864 -0.1962  0.5535
    6MOL    C63 1073   5.512   4.064   3.083 -0.6821 -0.8833 -0.1723
    6MOL    C64 1074   5.627   4.018   3.172  0.2329 -0.2462 -0.3763
    6MOL    O65 1075   5.701   3.929   3.156 -0.5065  0.3245  0.6071
    6MOL    N66 1076   5.643   4.095   3.279  0.1585 -0.3670 -0.4204
    6MOL    H67 1077   5.607   3.985   2.910  1.1297  0.7679 -0.7604
    6MOL    H68 1078   5.462   4.062   2.870 -0.6008  0.1117  1.4475
    6MOL    H69 1079   5.469   4.157   3.122 -0.1020 -0.7265  0.1057
    6MOL    H70 1080   5.715   4.080   3.347  0.6887 -1.1760 -1.1614
    6MOL    H71 1081   5.584   4.177   3.290 -1.3957 -1.6082  0.7497
    6MOL    C72 1082   5.398   3.965   3.089  0.0670 -0.5959 -0.1776
    6MOL    C73 1083   5.263   4.036   3.055 -0.1616 -0.3626  0.2717
    6MOL    C74 1084   5.204   4.098   3.181 -0.2371 -0.4170 -0.8657
    6MOL    O75 1085   5.261   4.092   3.293  0.0154  0.7701  0.3600
    6MOL    N76 1086   5.103   4.175   3.159  0.1284 -0.2997  0.3501
    6MOL    H77 1087   5.400   3.921   3.188 -1.3182 -1.0449 -0.3344
    6MOL    H78 1088   5.422   3.881   3.024 -0.1699  0.6301 -1.8959
    6MOL    H79 1089   5.287   4.118   2.987 -2.0894  0.2977  0.3506
    6MOL    H80 1090   5.074   4.242   3.229 -1.6798  0.1516 -0.8010
    6MOL    H81 1091   5.085   4.192   3.061  0.1194 -1.1708  0.2009
    6MOL    C82 1092   5.153   3.944   2.996  0.0222  0.6194  1.3460
    6MOL    C83 1093   5.142   3.965   2.843  0.1271 -0.6253  0.0343
    6MOL    C84 1094   5.095   4.109   2.818 -0.6048  0.2710  0.2028
    6MOL    O85 1095   5.001   4.153   2.882  0.0143 -0.0360  0.4524
    6MOL    N86 1096   5.159   4.177   2.724  0.0068  0.1316 -0.3315
    6MOL    H87 1097   5.057   3.940   3.046 -0.5144  1.8582  0.4287
    6MOL    H88 1098   5.191   3.842   3.010 -3.1338 -0.7250  0.5375
    6MOL    H89 1099   5.243   3.963   2.801  1.1491 -0.3055  2.4316
    6MOL    H90 1100   5.243   4.149   2.676 -0.8523 -0.3849 -1.5884
    6MOL    H91 1101   5.133   4.274   2.714  1.0316  0.5991  1.4456
    6MOL    C92 1102   5.051   3.866   2.768  1.2310  0.7089  1.1507
    6MOL    C93 1103   5.120   3.726   2.724 -0.1185  0.1813  0.5511
    6MOL    C94 1104   5.188   3.763   2.593 -0.0386 -0.0679  0.2920
    6MOL    O95 1105   5.110   3.787   2.495  0.2055  0.4489 -0.0844
    6MOL    N96 1106   5.326   3.774   2.586  0.3900  0.0782  0.1747
    6MOL    H97 1107   4.990   3.900   2.684  0.7588  0.1436  1.2578
    6MOL    H98 1108   4.971   3.839   2.837  0.1616  0.2493 -0.2506
    6MOL    H99 1109   5.195   3.696   2.797  0.2049 -1.6887 -0.5231
    6MOL   H100 1110   5.368   3.767   2.677 -1.6179  0.7686  1.1878
    6MOL   H101 1111   5.370   3.777   2.495 -1.0880 -3.0213 -0.7173
    6MOL   C102 1112   5.027   3.605   2.698 -0.4747 -0.5300  0.6062
    6MOL   C103 1113   5.075   3.476   2.625 -0.0628 -0.0637  0.5129
    6MOL   C104 1114   4.963   3.370   2.631 -0.1332  0.2425  0.0310
    6MOL   O105 1115   4.926   3.331   2.739  0.7968 -0.8410 -0.0332
    6MOL   N106 1116   4.937   3.307   2.514  0.3232 -0.2527  0.1152
    6MOL   H107 1117   4.942   3.637   2.638  0.7131  1.5332 -0.0458
    6MOL   H108 1118   4.981   3.575   2.792 -1.6315 -2.1914 -0.4477
    6MOL   H109 1119   5.086   3.505   2.521 -1.7008 -0.2514  0.2687
    6MOL   H110 1120   4.868   3.234   2.507 -1.3931  1.4119 -1.0706
    6MOL   H111 1121   4.995   3.341   2.439  1.6221 -1.3871  0.5978
    6MOL   C112 1122   5.204   3.407   2.675 -0.2731  0.1459 -0.1900
    6MOL   C113 1123   5.314   3.375   2.562  1.1219  0.1403  0.0405
    6MOL   C114 1124   5.255   3.295   2.438  0.8960 -0.5058 -0.3921
    6MOL   O115 1125   5.187   3.351   2.348 -0.1761  0.6612 -0.1759
    6MOL   N116 1126   5.261   3.164   2.436  0.2772  0.3379 -0.1242
    6MOL   H117 1127   5.187   3.307   2.717 -1.3329 -0.5265 -2.1183
    6MOL   H118 1128   5.241   3.464   2.760  2.2612 -0.6019 -0.7701
    6MOL   H119 1129   5.342   3.471   2.520 -2.2817  0.8559 -0.7104
    6MOL   H120 1130   5.210   3.116   2.363 -0.9563  0.6378  0.5294
    6MOL   H121 1131   5.340   3.125   2.485 -1.0022 -0.4819  1.3260
    6MOL   C122 1132   5.436   3.292   2.614 -0.6066 -0.5563 -0.3263
    6MOL   C123 1133   5.565   3.375   2.639  0.1616 -0.4918 -0.0244
    6MOL   C124 1134   5.675   3.271   2.684 -0.0129  0.4436  0.0925
    6MOL   O125 1135   5.750   3.229   2.597 -0.8187 -0.0798  0.2981
    6MOL   N126 1136   5.679   3.217   2.807  0.4378 -0.1292  0.0821
    6MOL   H127 1137   5.464   3.214   2.544 -1.3482  0.2257 -1.5208
    6MOL   H128 1138   5.411   3.242   2.708 -0.3889 -1.3453 -0.6820
    6MOL   H129 1139   5.607   3.418   2.548  0.2171  0.4928  0.4587
    6MOL   H130 1140   5.753   3.151   2.827  2.4083  1.4464 -1.7281
    6MOL   H131 1141   5.608   3.237   2.875  1.0598  1.6392  0.2513
    6MOL   C132 1142   5.545   3.487   2.739  0.3084  0.5445 -0.2999
    6MOL   C133 1143   5.663   3.584   2.775 -0.3922 -0.0220 -0.9826
    6MOL   C134 1144   5.619   3.693   2.871 -0.0090 -0.0374 -0.2567
    6MOL   O135 1145   5.504   3.734   2.866  0.3193  0.5802 -0.1842
    6MOL   N136 1146   5.705   3.736   2.960 -0.1585  0.1104 -0.5842
    6MOL   H137 1147   5.497   3.444   2.828 -2.9024  3.0324 -0.7418
    6MOL   H138 1148   5.475   3.552   2.687  3.0988  2.6585 -1.4979
    6MOL   H139 1149   5.742   3.528   2.826 -0.2815  0.1989 -0.9133
    6MOL   H140 1150   5.668   3.797   3.032  0.5120  0.1901 -0.2958
    6MOL   H141 1151   5.806   3.745   2.951  0.0918 -0.2438  1.4756
    6MOL   C142 1152   5.717   3.658   2.652 -0.4067 -0.0649  0.2998
    6MOL   C143 1153   5.859   3.608   2.626  0.0017  0.1811  0.3776
    6MOL   C144 1154   5.964   3.682   2.703  0.2961 -0.4720  0.0425
    6MOL   O145 1155   5.949   3.800   2.734  0.3348  0.1606 -0.9780
    6MOL   N146 1156   6.080   3.622   2.729 -0.0914  0.0091 -0.0858
    6MOL   H147 1157   5.710   3.767   2.660 -1.4558 -0.1423  0.4468
    6MOL   H148 1158   5.654   3.644   2.565  0.6775  0.2119 -0.5456
    6MOL   H149 1159   5.881   3.506   2.658  0.7138 -0.2151 -1.3224
    6MOL   H150 1160   6.161   3.673   2.761  2.4299 -3.7061 -0.3298
    6MOL   H151 1161   6.099   3.542   2.670 -0.6958 -0.7544  0.7499
    6MOL   C152 1162   5.892   3.606   2.474 -0.6013 -0.4080 -1.3067
    6MOL   C153 1163   5.907   3.747   2.399 -0.1292  0.3281  0.3940
    6MOL   C154 1164   5.779   3.790   2.323 -0.4726 -0.4566  0.1495
    6MOL   O155 1165   5.712   3.890   2.352 -0.1453 -0.3805  0.6373
    6MOL   N156 1166   5.752   3.710   2.220 -0.0840 -0.2537 -0.2529
    6MOL   H157 1167   5.808   3.558   2.424 -3.0086  1.9409  0.3082
    6MOL   H158 1168   5.976   3.537   2.466 -0.7649 -0.9637  1.2414
    6MOL   H159 1169   5.910   3.824   2.476 -0.3428 -0.7974  1.5470
    6MOL   H160 1170   5.688   3.745   2.150  0.5517 -4.2726 -3.0351
    6MOL   H161 1171   5.808   3.626   2.212  1.9864  0.9089  1.5235
    6MOL   C162 1172   6.021   3.771   2.294 -0.1088  0.0008  0.0358
    6MOL   C163 1173   6.172   3.787   2.346 -0.4414 -0.1422  0.2141
    6MOL   C164 1174   6.223   3.654   2.394  0.1640 -0.4443  1.2290
    6MOL   O165 1175   6.193   3.545   2.344  0.3299 -0.3613  0.8519
    6MOL   N166 1176   6.309   3.646   2.494  0.9943  0.4767  0.0252
    6MOL   H167 1177   5.999   3.867   2.248 -0.6621  0.1708  0.6471
    6MOL   H168 1178   6.000   3.697   2.217 -0.1354 -0.7462  0.7560
    6MOL   H169 1179   6.228   3.811   2.255 -1.6092  1.7388 -0.0487
    6MOL   H170 1180   6.350   3.555   2.511 -1.1359 -1.1308 -3.0249
    6MOL   H171 1181   6.332   3.721   2.557 -1.4894  0.8698  0.5028
    6MOL   C172 1182   6.191   3.898   2.443 -0.4413 -0.0758 -0.4455
    6MOL   C173 1183   6.330   3.968   2.439 -0.2171 -0.4534  0.2209
    6MOL   C174 1184   6.348   4.058   2.566  0.1697 -0.5301 -0.4630
    6MOL   O175 1185   6.266   4.148   2.591  0.7225  0.2994  0.1009
    6MOL   N176 1186   6.457   4.041   2.633 -0.1727 -0.5462  0.0045
    6MOL   H177 1187   6.164   3.867   2.545 -0.1265 -1.4997 -0.7842
    6MOL   H178 1188   6.116   3.972   2.415 -1.6560 -0.9377  0.4239
    6MOL   H179 1189   6.416   3.903   2.421  2.1608  3.0376 -1.7626
    6MOL   H180 1190   6.494   4.115   2.692 -1.0294  0.1112 -0.2659
    6MOL   H181 1191   6.526   3.974   2.603  0.9392  0.2918  0.6696
    6MOL   C182 1192   6.321   4.064   2.316 -0.1769 -0.9975 -0.1862
    6MOL   C183 1193   6.459   4.080   2.241  0.2715 -0.2321 -0.0544
    6MOL   C184 1194   6.520   3.950   2.181 -0.1564  0.4001  0.5710
    6MOL   O185 1195   6.630   3.909   2.219  0.4045 -0.0027 -0.2773
    6MOL   N186 1196   6.451   3.880   2.090 -0.4327 -0.1113 -0.0134
    6MOL   H187 1197   6.278   4.157   2.351 -0.5491 -1.6816  1.2377
    6MOL   H188 1198   6.244   4.040   2.244 -0.3743 -0.6823 -0.0793
    6MOL   H189 1199   6.451   4.136   2.148  0.2796 -0.2846 -0.0871
    6MOL   H190 1200   6.363   3.921   2.061 -0.2790  2.5800  3.0803
    6MOL   H191 1201   6.479   3.800   2.034  0.1678 -0.1557  0.3516
    6MOL   C192 1202   6.565   4.163   2.311  0.3512  0.2346  0.1629
    6MOL   C193 1203   6.518   4.293   2.379  0.2151 -0.8026  0.3648
    6MOL   C194 1204   6.481   4.412   2.282  0.2924 -0.3296 -0.6137
    6MOL   O195 1205   6.550   4.432   2.182  0.9265  0.4099 -0.1729
    6MOL   N196 1206   6.386   4.504   2.314 -0.0620 -0.1475 -0.4336
    6MOL   H197 1207   6.645   4.177   2.239 -1.6156  1.2555 -1.8849
    6MOL   H198 1208   6.601   4.113   2.401  1.6911 -1.5034 -1.2976
    6MOL   H199 1209   6.428   4.284   2.441 -0.9067  1.7896 -0.7715
    6MOL   H200 1210   6.329   4.488   2.396  0.8228  0.3112  0.2866
    6MOL   H201 1211   6.355   4.570   2.245 -0.1762  2.8384  2.3421
    6MOL   H202 1212   6.600   4.326   2.443  1.7478 -1.7887 -1.0522
    7MOL     C1 1213   2.986   1.600   5.400  0.3928  0.5863 -0.4041
    7MOL     C2 1214   2.970   1.747   5.444  1.4606  0.5876 -0.1921
    7MOL     C3 1215   2.818   1.772   5.464  0.0186  1.0243  0.0501
    7MOL     O4 1216   2.746   1.801   5.372  0.6445  0.2818  0.3107
    7MOL     N5 1217   2.777   1.787   5.585  0.4133  0.3040  0.1905
    7MOL     H6 1218   2.921   1.533   5.456 -1.0649  1.0535 -1.5032
    7MOL     H7 1219   2.962   1.594   5.294  1.0586  2.3004 -0.6696
    7MOL     H8 1220   3.021   1.756   5.540  0.7201 -0.8986  0.3588
    7MOL     H9 1221   2.685   1.826   5.602  0.8485  0.7941  1.5066
    7MOL    H10 1222   2.848   1.816   5.650  2.7117 -1.1949 -1.5646
    7MOL    H11 1223   3.091   1.572   5.399  0.1913 -0.2542  0.8451
    7MOL    C12 1224   3.044   1.839   5.346  0.3823 -0.0144  0.2931
    7MOL    C13 1225   3.038   1.994   5.384 -0.1287  0.4269 -0.3100
    7MOL    C14 1226   2.993   2.075   5.264 -0.8945 -0.6475  0.8924
    7MOL    O15 1227   3.070   2.158   5.213 -0.1122 -0.0120  0.4594
    7MOL    N16 1228   2.878   2.049   5.207 -0.1399  0.2123  0.3042
    7MOL    H17 1229   3.016   1.822   5.242 -0.5546 -3.0698  0.9988
    7MOL    H18 1230   3.149   1.809   5.351  1.0350  1.9270 -0.7987
    7MOL    H19 1231   2.967   1.997   5.467  0.1843 -2.7808  0.1209
    7MOL    H20 1232   2.863   2.096   5.119 -0.4813  1.2741  0.9074
    7MOL    H21 1233   2.817   1.972   5.227 -1.7438  1.8115  1.7279
    7MOL    C22 1234   3.176   2.045   5.435 -0.1320 -0.7677 -0.1769
    7MOL    C23 1235   3.173   2.190   5.497 -0.2786  0.4748  0.0391
    7MOL    C24 1236   3.314   2.261   5.490  0.0638 -0.4083 -0.1372
    7MOL    O25 1237   3.394   2.261   5.585  0.3182 -0.6112 -0.1752
    7MOL    N26 1238   3.347   2.318   5.376 -0.8034 -0.2550  0.0988
    7MOL    H27 1239   3.251   2.040   5.356 -0.8768  3.2327 -1.2526
    7MOL    H28 1240   3.226   1.976   5.503 -0.4490  1.8265  2.8353
    7MOL    H29 1241   3.098   2.238   5.435 -0.2271 -0.1569 -0.5126
    7MOL    H30 1242   3.432   2.372   5.365 -0.8677 -0.5866 -2.0654
    7MOL    H31 1243   3.296   2.298   5.292  1.0391 -1.1104 -0.8442
    7MOL    C32 1244   3.125   2.188   5.645 -0.7344 -0.0556  0.4494
    7MOL    C33 1245   3.098   2.332   5.699 -0.1198 -0.4644 -0.2057
    7MOL    C34 1246   3.162   2.353   5.835 -1.1894  0.3912 -0.3751
    7MOL    O35 1247   3.099   2.363   5.939  0.1320 -0.4698  0.3509
    7MOL    N36 1248   3.295   2.356   5.841  0.1924  0.1573 -0.0917
    7MOL    H37 1249   3.197   2.128   5.701  0.7349 -1.2750 -2.6570
    7MOL    H38 1250   3.038   2.124   5.654 -0.2533 -0.6887  0.5965
    7MOL    H39 1251   3.146   2.406   5.634  0.6322  0.0338  0.8949
    7MOL    H40 1252   3.330   2.368   5.935 -0.7403 -2.0456  0.5637
    7MOL    H41 1253   3.350   2.337   5.758  1.2022  1.0237  0.3708
    7MOL    C42 1254   2.947   2.360   5.689 -0.3777 -0.3118 -0.7093
    7MOL    C43 1255   2.901   2.503   5.730  0.3340  0.1330  0.0241
    7MOL    C44 1256   2.752   2.497   5.760 -0.1962 -0.0999  0.3102
    7MOL    O45 1257   2.676   2.501   5.669  0.1782 -0.5591  0.4818
    7MOL    N46 1258   2.717   2.496   5.890 -0.0454  0.2352  0.4661
    7MOL    H47 1259   2.899   2.290   5.758  0.7736  0.4411  0.8906
    7MOL    H48 1260   2.913   2.348   5.586 -1.8450 -0.2230 -0.2490
    7MOL    H49 1261   2.948   2.522   5.827  0.1268  1.1544 -0.0705
    7MOL    H50 1262   2.786   2.502   5.964  1.2562  1.0065 -0.7812
    7MOL    H51 1263   2.622   2.523   5.911 -0.5391 -0.2048 -1.1286
    7MOL    C52 1264   2.925   2.616   5.624 -0.0474  0.2131 -0.3128
    7MOL    C53 1265   3.017   2.734   5.660 -0.0549 -0.5624  0.0040
    7MOL    C54 1266   3.162   2.692   5.679 -1.0358 -0.5317 -0.3285
    7MOL    O55 1267   3.212   2.697   5.794 -0.2385  0.2477  0.8746
    7MOL    N56 1268   3.232   2.653   5.574  0.3669  0.4995 -0.0344
    7MOL    H57 1269   2.835   2.667   5.591 -0.0029  0.8201  0.5128
    7MOL    H58 1270   2.957   2.571   5.530 -1.6335  0.4122 -0.9600
    7MOL    H59 1271   3.025   2.790   5.567  1.2284  2.7254  2.0207
    7MOL    H60 1272   3.190   2.672   5.484  1.1594 -0.7459 -0.6839
    7MOL    H61 1273   3.319   2.604   5.587  0.5572  0.6359 -0.8233
    7MOL    C62 1274   2.963   2.827   5.769 -0.2242 -0.0352 -0.0044
    7MOL    C63 1275   2.889   2.948   5.716 -0.5953  0.0199  0.6548
    7MOL    C64 1276   2.973   3.050   5.637  0.4884  0.2387 -0.0538
    7MOL    O65 1277   3.057   3.118   5.681  0.4890  0.2066  0.3153
    7MOL    N66 1278   2.945   3.062   5.506  0.7285  0.2320 -0.4272
    7MOL    H67 1279   3.035   2.878   5.833  1.1725 -0.1195 -1.4673
    7MOL    H68 1280   2.897   2.767   5.831  0.8351  0.2843  1.4631
    7MOL    H69 1281   2.819   2.903   5.645  0.4711 -0.1711 -0.2786
    7MOL    H70 1282   2.850   3.048   5.474  0.9910 -0.5930 -0.8690
    7MOL    H71 1283   3.012   3.108   5.446  0.9631  0.9383  0.3604
    7MOL    C72 1284   2.809   3.014   5.840 -0.0983 -0.1943  0.1401
    7MOL    C73 1285   2.707   3.136   5.813 -0.6997  0.1607 -0.4898
    7MOL    C74 1286   2.647   3.172   5.943 -0.1996 -0.3835 -0.1869
    7MOL    O75 1287   2.580   3.099   6.018  0.1615  0.0017 -0.0813
    7MOL    N76 1288   2.672   3.289   6.001 -0.6194 -0.1248  0.2275
    7MOL    H77 1289   2.891   3.045   5.905 -0.5531  1.6799 -0.1602
    7MOL    H78 1290   2.765   2.937   5.904 -4.8915  2.7607  0.6341
    7MOL    H79 1291   2.771   3.217   5.781 -0.7616  0.3854 -0.0478
    7MOL    H80 1292   2.730   3.367   5.976 -1.7971  1.5253  2.4427
    7MOL    H81 1293   2.631   3.302   6.092 -1.3376  1.6461 -0.3272
    7MOL    C82 1294   2.610   3.121   5.703  0.7989 -0.4711  0.6165
    7MOL    C83 1295   2.470   3.046   5.728  0.5785 -0.1425 -0.9240
    7MOL    C84 1296   2.493   2.894   5.751  0.9030  0.5130 -0.1681
    7MOL    O85 1297   2.473   2.818   5.658  0.0543 -0.2148 -0.3497
    7MOL    N86 1298   2.529   2.851   5.873  0.2370  0.1730 -0.3865
    7MOL    H87 1299   2.656   3.077   5.615 -0.8359 -0.1817 -0.4203
    7MOL    H88 1300   2.583   3.223   5.675 -0.0755 -0.1823  2.3976
    7MOL    H89 1301   2.423   3.087   5.817  1.5414  0.4875 -0.7094
    7MOL    H90 1302   2.536   2.752   5.890 -0.3146  0.2562  0.3417
    7MOL    H91 1303   2.563   2.921   5.938  1.5993 -1.1038  0.2949
    7MOL    C92 1304   2.368   3.069   5.612 -0.3454 -0.0852  0.0136
    7MOL    C93 1305   2.339   3.215   5.569  0.1377  0.8009  0.4524
    7MOL    C94 1306   2.282   3.298   5.683 -0.2762 -0.2126  0.6531
    7MOL    O95 1307   2.214   3.249   5.769  0.4432 -0.1435 -0.5053
    7MOL    N96 1308   2.310   3.429   5.682 -0.0579  0.3186  0.1746
    7MOL    H97 1309   2.270   3.029   5.640 -0.2458 -1.1004 -1.0476
    7MOL    H98 1310   2.400   3.015   5.523 -1.5138 -2.0327  0.7476
    7MOL    H99 1311   2.432   3.257   5.530 -0.0649  1.3572  0.5645
    7MOL   H100 1312   2.379   3.466   5.618 -1.3520  2.5124  0.0086
    7MOL   H101 1313   2.276   3.481   5.762 -1.6681 -2.4700  1.3809
    7MOL   C102 1314   2.241   3.235   5.453 -0.2287 -0.1328  0.1328
    7MOL   C103 1315   2.106   3.147   5.436 -0.0187  0.4078 -0.2492
    7MOL   C104 1316   2.062   3.115   5.288  0.1212 -0.2297  0.0866
    7MOL   O105 1317   2.041   3.204   5.205 -0.6065 -0.0978 -0.0705
    7MOL   N106 1318   2.060   2.987   5.261  0.2453  0.7083 -0.0907
    7MOL   H107 1319   2.295   3.218   5.360  0.3638  0.3496  0.3846
    7MOL   H108 1320   2.216   3.342   5.453  0.1029  0.0720  4.9064
    7MOL   H109 1321   2.126   3.049   5.479 -1.3914  0.8779  1.4990
    7MOL   H110 1322   2.067   2.916   5.332 -2.0878 -0.8518 -1.3421
    7MOL   H111 1323   2.028   2.959   5.169  1.4839  0.7049 -0.5360
    7MOL   C112 1324   1.990   3.218   5.512  0.0933  0.2544 -0.0917
    7MOL   C113 1325   1.888   3.109   5.565  0.1019  0.1986 -0.2608
    7MOL   C114 1326   1.757   3.166   5.605 -0.0391  0.4045 -0.1128
    7MOL   O115 1327   1.750   3.269   5.672  0.2184  0.0026 -0.2298
    7MOL   N116 1328   1.651   3.087   5.586  0.3774 -0.2672  0.3408
    7MOL   H117 1329   1.942   3.277   5.434 -0.0722 -0.5607 -0.6111
    7MOL   H118 1330   2.022   3.294   5.583 -0.8402  1.6165 -1.0939
    7MOL   H119 1331   1.870   3.034   5.487 -0.6561  0.0360  0.0641
    7MOL   H120 1332   1.561   3.124   5.612  0.3271  0.8995 -1.4569
    7MOL   H121 1333   1.656   2.990   5.558 -1.8132 -0.7542  1.5346
    7MOL   C122 1334   1.947   3.037   5.691  0.2939  0.2788 -0.1159
    7MOL   C123 1335   1.894   2.897   5.736  1.1260  1.0195  0.9772
    7MOL   C124 1336   1.935   2.861   5.877 -0.3285 -0.8388  0.2704
    7MOL   O125 1337   2.039   2.905   5.927  0.0548  0.1589 -0.0615
    7MOL   N126 1338   1.848   2.800   5.956  0.5804 -0.1583 -0.8402
    7MOL   H127 1339   1.953   3.104   5.777  1.4039 -0.0158  0.0458
    7MOL   H128 1340   2.053   3.022   5.671  0.4738 -0.0606  1.0682
    7MOL   H129 1341   1.785   2.886   5.743  0.9970  2.4679  1.3599
    7MOL   H130 1342   1.866   2.804   6.055 -0.4660 -1.0216 -0.6105
    7MOL   H131 1343   1.768   2.749   5.923 -0.6877 -0.8030  3.0194
    7MOL   C132 1344   1.943   2.785   5.639 -0.6923  0.1169  0.0038
    7MOL   C133 1345   2.098   2.745   5.633  0.1040  0.1689  0.5686
    7MOL   C134 1346   2.146   2.710   5.491  0.2242  0.2811  0.3673
    7MOL   O135 1347   2.074   2.636   5.420 -0.2160 -0.1289 -0.0769
    7MOL   N136 1348   2.268   2.751   5.457  0.0379 -0.8305  0.0359
    7MOL   H137 1349   1.912   2.816   5.540 -0.2580  1.8519  0.4002
    7MOL   H138 1350   1.895   2.696   5.680  1.2808 -0.1223  1.9162
    7MOL   H139 1351   2.164   2.823   5.673  0.1014  0.6736 -0.3929
    7MOL   H140 1352   2.299   2.720   5.366 -0.4841  2.5640 -1.3589
    7MOL   H141 1353   2.333   2.788   5.526  0.2261 -1.4824  0.2119
    7MOL   C142 1354   2.111   2.623   5.723  0.3620 -0.1526 -0.0665
    7MOL   C143 1355   2.252   2.570   5.758 -0.4983 -0.2939  0.4867
    7MOL   C144 1356   2.292   2.440   5.686 -0.0485 -0.3144 -0.1219
    7MOL   O145 1357   2.231   2.337   5.694 -0.5540 -0.0141 -0.5215
    7MOL   N146 1358   2.395   2.442   5.605  0.1704 -0.7233  0.2407
    7MOL   H147 1359   2.057   2.539   5.677  1.6229 -0.2812 -1.3305
    7MOL   H148 1360   2.068   2.644   5.821  0.3138 -2.2331  0.3828
    7MOL   H149 1361   2.319   2.638   5.705 -0.1022 -0.4536  0.7850
    7MOL   H150 1362   2.422   2.357   5.558 -0.8695 -0.4112 -0.9432
    7MOL   H151 1363   2.459   2.520   5.597 -0.7948  0.0504 -0.0090
    7MOL   C152 1364   2.281   2.562   5.910 -0.0822  0.0885  0.1143
    7MOL   C153 1365   2.204   2.473   6.007 -0.0792 -0.2652  0.1983
    7MOL   C154 1366   2.079   2.547   6.052  0.4669  0.5105 -0.1619
    7MOL   O155 1367   1.969   2.500   6.023 -0.1599 -0.5712 -0.3766
    7MOL   N156 1368   2.095   2.666   6.110 -0.0196 -0.7196 -0.6383
    7MOL   H157 1369   2.294   2.664   5.947  0.1598 -0.3513  1.2555
    7MOL   H158 1370   2.379   2.514   5.912  0.0485  0.3652  0.5854
    7MOL   H159 1371   2.161   2.389   5.952 -0.8686  0.1001  0.2559
    7MOL   H160 1372   2.186   2.707   6.126 -1.2249  1.6559  0.2997
    7MOL   H161 1373   2.012   2.724   6.115  0.9244  0.6573 -0.7100
    7MOL   C162 1374   2.297   2.426   6.126  0.0684  0.2973 -0.1148
    7MOL   C163 1375   2.313   2.275   6.160 -0.0958 -0.3274  0.4530
    7MOL   C164 1376   2.315   2.246   6.309 -0.4971  0.6183 -0.2623
    7MOL   O165 1377   2.406   2.287   6.376  0.1519  0.5036 -0.1226
    7MOL   N166 1378   2.215   2.179   6.361  0.3697  0.1450  0.0493
    7MOL   H167 1379   2.252   2.476   6.212 -0.7650 -0.3331 -0.1807
    7MOL   H168 1380   2.396   2.471   6.117 -0.2084  2.1626  4.5516
    7MOL   H169 1381   2.225   2.229   6.115  0.2546  0.3154 -0.9309
    7MOL   H170 1382   2.216   2.164   6.461  1.1909 -0.8755 -0.0923
    7MOL   H171 1383   2.129   2.165   6.311  0.6810 -2.2645  0.1272
    7MOL   C172 1384   2.439   2.209   6.084 -0.1764  0.4809  0.3402
    7MOL   C173 1385   2.410   2.182   5.938  0.3509  0.1227 -0.5658
    7MOL   C174 1386   2.295   2.081   5.928 -0.1076 -0.1745 -0.5440
    7MOL   O175 1387   2.285   1.989   6.007 -0.7184 -0.8758 -0.1640
    7MOL   N176 1388   2.196   2.112   5.844  0.4734  0.4570 -0.5351
    7MOL   H177 1389   2.483   2.124   6.137 -3.2947 -1.2987  0.1988
    7MOL   H178 1390   2.513   2.288   6.090  0.5086 -0.0156 -1.2173
    7MOL   H179 1391   2.382   2.273   5.886  2.9008 -0.7226 -3.5647
    7MOL   H180 1392   2.114   2.053   5.837  0.7283 -0.0726  0.8090
    7MOL   H181 1393   2.210   2.183   5.773 -0.0528  0.0566 -1.0434
    7MOL   C182 1394   2.535   2.122   5.872  0.2649  0.4633 -0.4258
    7MOL   C183 1395   2.535   2.083   5.717 -0.1887  0.3270  0.2944
    7MOL   C184 1396   2.497   1.931   5.692 -0.0365 -0.0694  0.4572
    7MOL   O185 1397   2.568   1.846   5.745  0.0532 -0.0877 -0.2985
    7MOL   N186 1398   2.404   1.893   5.609 -0.3744 -0.8327  0.3061
    7MOL   H187 1399   2.548   2.028   5.926 -1.9959 -1.4209 -3.0281
    7MOL   H188 1400   2.620   2.187   5.895  1.2529 -0.0872 -2.4355
    7MOL   H189 1401   2.456   2.144   5.673  2.9117  3.8078 -0.7794
    7MOL   H190 1402   2.348   1.957   5.554 -1.0698 -0.9651  0.8526
    7MOL   H191 1403   2.392   1.794   5.599 -1.2841 -0.7241  0.3171
    7MOL   C192 1404   2.669   2.112   5.643 -0.2519  0.2489  0.7802
    7MOL   C193 1405   2.669   2.092   5.491  0.6051 -0.0388  0.3968
    7MOL   C194 1406   2.568   2.163   5.406 -0.5518  0.1443  0.8261
    7MOL   O195 1407   2.529   2.274   5.438  0.6519  0.0631 -0.6379
    7MOL   N196 1408   2.508   2.093   5.311  0.2030 -0.6511  0.2971
    7MOL   H197 1409   2.756   2.085   5.703 -0.0938 -1.3678 -0.1489
    7MOL   H198 1410   2.675   2.220   5.646  3.1196  0.1135  1.2055
    7MOL   H199 1411   2.767   2.104   5.445 -0.2867  0.7401 -1.3201
    7MOL   H200 1412   2.554   2.006   5.286 -1.7758 -1.5519 -0.3266
    7MOL   H201 1413   2.456   2.133   5.234  0.2954 -2.4444 -0.7384
    7MOL   H202 1414   2.645   1.987   5.481  0.4279  0.1793 -1.6854
    8MOL     C1 1415   5.530   2.420   1.880  0.7176  0.0955  0.1312
    8MOL     C2 1416   5.489   2.503   1.759  0.0583 -0.1291  0.1847
    8MOL     C3 1417   5.561   2.454   1.636 -0.0763 -0.0449  0.4205
    8MOL     O4 1418   5.669   2.495   1.600  0.5474 -0.3206  0.4949
    8MOL     N5 1419   5.506   2.342   1.586  0.0025  0.0418 -0.8773
    8MOL     H6 1420   5.506   2.471   1.973  0.8290  0.5487 -0.0896
    8MOL     H7 1421   5.474   2.327   1.887 -0.3090  0.6781 -0.2695
    8MOL     H8 1422   5.380   2.513   1.756  0.1654  1.1136 -0.0208
    8MOL     H9 1423   5.415   2.326   1.626  0.1502  3.3394  1.0097
    8MOL    H10 1424   5.552   2.293   1.511  0.6032 -1.1758  0.2570
    8MOL    H11 1425   5.638   2.402   1.877  0.6460 -0.2777 -0.4326
    8MOL    C12 1426   5.528   2.653   1.782 -0.3757  0.6704 -0.2190
    8MOL    C13 1427   5.488   2.752   1.687  0.2187  0.1886 -0.3007
    8MOL    C14 1428   5.551   2.886   1.731  0.1943 -0.8849  0.7180
    8MOL    O15 1429   5.520   2.948   1.834 -0.3244  0.7311 -0.7682
    8MOL    N16 1430   5.636   2.942   1.650  0.4549  0.6337  0.7256
    8MOL    H17 1431   5.634   2.663   1.808 -0.0856 -2.4693  0.0634
    8MOL    H18 1432   5.475   2.666   1.877 -0.6706 -0.2205 -0.2564
    8MOL    H19 1433   5.519   2.730   1.585 -1.9870  1.5159 -1.3003
    8MOL    H20 1434   5.673   2.895   1.569 -0.7142 -0.4853  0.8125
    8MOL    H21 1435   5.665   3.036   1.673  1.9106  1.0374 -2.4630
    8MOL    C22 1436   5.336   2.764   1.655 -0.0605 -0.1438  0.6270
    8MOL    C23 1437   5.282   2.892   1.582  0.4464  0.4384  0.5836
    8MOL    C24 1438   5.130   2.904   1.591 -0.3853  0.1075 -0.4695
    8MOL    O25 1439   5.089   2.989   1.665 -0.1877 -0.2847  0.2127
    8MOL    N26 1440   5.054   2.821   1.518 -0.3221  0.4773 -0.3531
    8MOL    H27 1441   5.287   2.767   1.752 -2.0411  0.9526 -0.3770
    8MOL    H28 1442   5.297   2.677   1.602 -0.6827  0.3767  0.2278
    8MOL    H29 1443   5.325   2.984   1.622 -0.9091  0.3108  2.3702
    8MOL    H30 1444   4.955   2.837   1.519 -0.7211 -1.8738  0.6506
    8MOL    H31 1445   5.089   2.751   1.454 -0.5401 -1.7993  1.9429
    8MOL    C32 1446   5.328   2.908   1.436 -0.2657  0.0873  0.3353
    8MOL    C33 1447   5.304   3.047   1.367 -0.0892 -0.7738  0.2129
    8MOL    C34 1448   5.337   3.036   1.218 -0.5068 -0.0575  0.2465
    8MOL    O35 1449   5.255   3.071   1.129 -0.6553 -0.0012 -0.1466
    8MOL    N36 1450   5.456   2.997   1.177  0.1657  0.2581  0.5619
    8MOL    H37 1451   5.273   2.836   1.375 -0.9251  0.8726 -0.0137
    8MOL    H38 1452   5.433   2.882   1.419 -0.7849 -1.5699 -0.5072
    8MOL    H39 1453   5.200   3.078   1.377 -0.3760 -2.4924  3.4378
    8MOL    H40 1454   5.519   2.948   1.238  0.6207  1.5141  1.1339
    8MOL    H41 1455   5.488   2.992   1.082 -0.8863  1.0480  0.1627
    8MOL    C42 1456   5.390   3.162   1.425  0.1507 -0.8572 -0.0232
    8MOL    C43 1457   5.328   3.257   1.528  0.4628 -0.7318  0.0779
    8MOL    C44 1458   5.236   3.381   1.491 -0.4072 -0.5848  0.7542
    8MOL    O45 1459   5.223   3.419   1.376  0.5587 -0.2054  0.3833
    8MOL    N46 1460   5.172   3.441   1.587 -0.2471 -0.4590 -0.0693
    8MOL    H47 1461   5.431   3.226   1.348 -0.5122  1.3217  1.4045
    8MOL    H48 1462   5.479   3.117   1.469  0.5768  1.3325  1.4285
    8MOL    H49 1463   5.265   3.186   1.582 -1.4936  0.0302 -1.1414
    8MOL    H50 1464   5.111   3.516   1.558  2.0640  1.8766  0.9316
    8MOL    H51 1465   5.176   3.420   1.686 -2.5009  1.9452  0.5981
    8MOL    C52 1466   5.434   3.307   1.635 -0.5362  0.2196  0.0848
    8MOL    C53 1467   5.542   3.399   1.571  0.2032 -0.4362  0.2322
    8MOL    C54 1468   5.673   3.318   1.554  0.3097 -0.0339 -0.1446
    8MOL    O55 1469   5.724   3.248   1.642  0.4775  0.3002 -0.1969
    8MOL    N56 1470   5.721   3.299   1.430 -0.2569  0.2371  0.3950
    8MOL    H57 1471   5.475   3.224   1.692  0.1061 -0.2650 -1.0651
    8MOL    H58 1472   5.392   3.359   1.721 -1.3821 -1.4031  0.6739
    8MOL    H59 1473   5.512   3.448   1.479 -1.5115 -0.2698  0.8620
    8MOL    H60 1474   5.682   3.367   1.366 -0.4613 -0.1091  0.1498
    8MOL    H61 1475   5.801   3.242   1.406 -0.2251  1.5546 -3.0206
    8MOL    C62 1476   5.571   3.520   1.666 -0.3457 -0.5117 -0.0130
    8MOL    C63 1477   5.485   3.641   1.678 -0.5981  0.2126  0.0860
    8MOL    C64 1478   5.484   3.734   1.553 -0.3647  0.5200  0.1377
    8MOL    O65 1479   5.588   3.790   1.521  0.3148 -0.2409 -0.3978
    8MOL    N66 1480   5.375   3.738   1.478 -0.1134 -0.0510 -0.2835
    8MOL    H67 1481   5.671   3.552   1.638 -0.3512  0.0362  0.5657
    8MOL    H68 1482   5.577   3.488   1.770  1.0666 -0.9251 -0.2155
    8MOL    H69 1483   5.384   3.604   1.694  0.0583 -1.8999 -0.5470
    8MOL    H70 1484   5.358   3.828   1.435  1.0267  0.2612 -0.1008
    8MOL    H71 1485   5.297   3.677   1.496 -0.8636  0.1944 -2.5720
    8MOL    C72 1486   5.534   3.728   1.799  0.3636 -0.2361 -0.0999
    8MOL    C73 1487   5.434   3.821   1.867 -0.1397 -0.3482  0.4782
    8MOL    C74 1488   5.503   3.918   1.959 -0.0569 -1.2197 -0.3669
    8MOL    O75 1489   5.552   3.881   2.069 -0.4019  0.3640 -0.0733
    8MOL    N76 1490   5.518   4.039   1.910 -0.7129  0.1858 -0.3581
    8MOL    H77 1491   5.622   3.789   1.775  0.2902  0.1524  0.5997
    8MOL    H78 1492   5.567   3.668   1.883  0.8248  0.3752  0.1653
    8MOL    H79 1493   5.386   3.880   1.789  0.7750 -1.1943 -0.7460
    8MOL    H80 1494   5.566   4.109   1.965 -3.4021  1.7803  0.0568
    8MOL    H81 1495   5.486   4.076   1.822 -1.1515 -0.3287 -0.4122
    8MOL    C82 1496   5.304   3.762   1.935 -0.0774 -0.0601  0.1121
    8MOL    C83 1497   5.195   3.854   1.982 -0.1729  0.7571 -0.4782
    8MOL    C84 1498   5.104   3.768   2.078 -0.2026 -0.4096 -0.2383
    8MOL    O85 1499   5.010   3.710   2.029  0.3931 -0.0874 -0.3922
    8MOL    N86 1500   5.138   3.762   2.205 -0.3227 -0.6898 -0.5980
    8MOL    H87 1501   5.334   3.708   2.025  1.2149 -1.1090 -0.9313
    8MOL    H88 1502   5.258   3.687   1.871 -2.4699  1.6824 -0.2842
    8MOL    H89 1503   5.230   3.925   2.058 -1.6080  1.0112 -0.0408
    8MOL    H90 1504   5.234   3.788   2.224 -0.4737 -0.4649 -0.1412
    8MOL    H91 1505   5.091   3.713   2.279  1.5494  0.0178  1.1113
    8MOL    C92 1506   5.113   3.938   1.881  0.6502  0.9579  0.1331
    8MOL    C93 1507   5.073   4.078   1.925 -1.1432  0.0159  0.2163
    8MOL    C94 1508   5.185   4.181   1.912 -0.1763  0.3647  0.2947
    8MOL    O95 1509   5.275   4.173   1.828  0.5458 -0.0430 -0.0764
    8MOL    N96 1510   5.199   4.279   1.995  0.9717 -0.2868 -0.6887
    8MOL    H97 1511   5.025   3.881   1.852  1.4012  0.1859 -0.6752
    8MOL    H98 1512   5.172   3.939   1.789 -0.0946 -0.9280 -0.3853
    8MOL    H99 1513   5.002   4.104   1.846 -0.4604 -0.1247 -0.4450
    8MOL   H100 1514   5.288   4.326   1.985 -0.3684  2.5205 -0.0135
    8MOL   H101 1515   5.127   4.299   2.064  1.0513 -0.5360 -0.5322
    8MOL   C102 1516   4.996   4.082   2.064 -0.3949  0.2600  0.0597
    8MOL   C103 1517   4.865   4.173   2.079 -0.4218 -0.2565 -0.3734
    8MOL   C104 1518   4.873   4.315   2.015 -0.0837  0.1635 -0.0089
    8MOL   O105 1519   4.954   4.397   2.053 -0.2919  0.0221 -0.2434
    8MOL   N106 1520   4.784   4.337   1.922  0.3259  0.0722  0.4924
    8MOL   H107 1521   5.064   4.108   2.146  0.5429  0.7339 -0.8629
    8MOL   H108 1522   4.967   3.982   2.095  0.2191  0.0479 -0.0344
    8MOL   H109 1523   4.792   4.111   2.026  0.3368 -0.3262 -1.3464
    8MOL   H110 1524   4.726   4.257   1.903 -0.3561  0.4081  1.1623
    8MOL   H111 1525   4.758   4.429   1.888  3.8158  0.1118 -2.3401
    8MOL   C112 1526   4.822   4.191   2.225  0.4275  0.0211 -0.6401
    8MOL   C113 1527   4.797   4.060   2.314  0.2947 -0.9127 -0.1532
    8MOL   C114 1528   4.687   3.978   2.250  0.7328 -0.0242  0.2209
    8MOL   O115 1529   4.718   3.868   2.209  0.1875  0.5703 -0.3099
    8MOL   N116 1530   4.563   4.030   2.223  0.6283 -0.4826 -0.5514
    8MOL   H117 1531   4.727   4.245   2.230  0.9972  1.0039 -0.2531
    8MOL   H118 1532   4.879   4.267   2.280  0.4350  0.1767 -0.8599
    8MOL   H119 1533   4.880   3.990   2.323  0.9673  0.0121  1.1130
    8MOL   H120 1534   4.497   3.966   2.182 -0.6452 -0.9112  2.0537
    8MOL   H121 1535   4.520   4.116   2.255  1.1268  0.0324 -1.2560
    8MOL   C122 1536   4.747   4.109   2.454 -0.2203  0.5991 -0.6031
    8MOL   C123 1537   4.717   4.006   2.570  0.6411 -0.4221  0.3171
    8MOL   C124 1538   4.580   3.936   2.558  0.4859 -0.4096 -0.6076
    8MOL   O125 1539   4.489   4.004   2.512 -0.3749 -0.4646 -0.1962
    8MOL   N126 1540   4.567   3.803   2.577 -0.3667 -0.0544  0.5313
    8MOL   H127 1541   4.664   4.180   2.449 -1.1853 -0.4838 -0.3123
    8MOL   H128 1542   4.830   4.167   2.496 -1.3124  1.9957 -0.2962
    8MOL   H129 1543   4.801   3.937   2.569  0.2455 -0.8988 -0.1746
    8MOL   H130 1544   4.643   3.752   2.620  0.2843  0.9060  0.5261
    8MOL   H131 1545   4.491   3.750   2.538 -0.1665 -0.8847  1.2444
    8MOL   C132 1546   4.720   4.075   2.709  0.5256 -0.1390 -0.2749
    8MOL   C133 1547   4.646   4.215   2.719 -0.8590 -0.2525  0.1700
    8MOL   C134 1548   4.732   4.344   2.687  0.2193 -0.4481 -1.0736
    8MOL   O135 1549   4.679   4.446   2.643  0.0730 -0.3179 -0.0765
    8MOL   N136 1550   4.863   4.334   2.702 -0.5548  0.4573 -0.2420
    8MOL   H137 1551   4.826   4.089   2.731  0.0187  1.8533  1.0002
    8MOL   H138 1552   4.680   4.006   2.784  0.1334 -1.2997 -1.5400
    8MOL   H139 1553   4.581   4.230   2.633  0.1564 -0.8478 -0.7053
    8MOL   H140 1554   4.930   4.388   2.649  0.6422 -0.0405  0.7189
    8MOL   H141 1555   4.904   4.259   2.756  0.4696 -0.3963 -2.1575
    8MOL   C142 1556   4.564   4.223   2.842 -0.3901  0.4748  0.1047
    8MOL   C143 1557   4.427   4.166   2.838 -0.0342 -0.5099  0.1124
    8MOL   C144 1558   4.332   4.259   2.761 -0.2848 -0.5381  0.3337
    8MOL   O145 1559   4.280   4.364   2.803 -0.8790 -0.1548  0.2586
    8MOL   N146 1560   4.317   4.227   2.638 -0.9954  0.5771 -0.3345
    8MOL   H147 1561   4.554   4.324   2.881  1.2442  0.9584 -0.6523
    8MOL   H148 1562   4.626   4.172   2.915 -0.4680 -1.2601 -0.9909
    8MOL   H149 1563   4.437   4.072   2.783 -0.4337 -1.3587  1.4635
    8MOL   H150 1564   4.263   4.291   2.583 -1.2835  0.1682 -0.5343
    8MOL   H151 1565   4.361   4.150   2.590 -0.3040  0.2808  0.7363
    8MOL   C152 1566   4.375   4.131   2.984 -0.1673 -0.4715 -0.1419
    8MOL   C153 1567   4.301   3.991   3.002  0.0687  0.0878 -0.1467
    8MOL   C154 1568   4.170   3.972   2.920  0.5382  0.5419 -0.2848
    8MOL   O155 1569   4.169   3.929   2.803 -0.3165  0.3994  0.1888
    8MOL   N156 1570   4.060   4.009   2.984  0.2900 -0.9646  0.8950
    8MOL   H157 1571   4.299   4.202   3.014  2.5606  1.9064  1.3925
    8MOL   H158 1572   4.454   4.148   3.057  1.9260 -0.8933 -2.2417
    8MOL   H159 1573   4.359   3.914   2.952  1.3606 -0.4658  2.1010
    8MOL   H160 1574   3.979   4.033   2.928  0.8002 -0.7722  0.2372
    8MOL   H161 1575   4.072   4.035   3.080  0.4276  1.4356  0.2556
    8MOL   C162 1576   4.290   3.948   3.152 -0.2405  0.2646 -0.0300
    8MOL   C163 1577   4.433   3.925   3.231  0.5835  0.4979 -0.7339
    8MOL   C164 1578   4.535   3.842   3.157 -0.0163 -0.3107 -0.1348
    8MOL   O165 1579   4.499   3.736   3.116  0.1086 -0.4536 -0.7430
    8MOL   N166 1580   4.664   3.884   3.156 -0.3133 -0.6060  0.0039
    8MOL   H167 1581   4.238   3.852   3.147  1.6050 -0.7756  0.6374
    8MOL   H168 1582   4.229   4.025   3.198 -0.3820 -0.9147  1.8198
    8MOL   H169 1583   4.473   4.025   3.245 -0.6595  1.0464 -1.0152
    8MOL   H170 1584   4.739   3.833   3.111 -0.2361 -0.7059  0.2479
    8MOL   H171 1585   4.686   3.975   3.192 -1.0721 -0.1505 -0.6740
    8MOL   C172 1586   4.408   3.873   3.375 -0.9691 -0.4381 -0.5881
    8MOL   C173 1587   4.302   3.938   3.467  0.8229  0.1661 -0.2608
    8MOL   C174 1588   4.327   4.090   3.491  0.0102  0.3367 -0.2040
    8MOL   O175 1589   4.416   4.139   3.562 -0.1987 -0.1269 -0.1201
    8MOL   N176 1590   4.243   4.166   3.427  0.2320 -0.9327 -0.4020
    8MOL   H177 1591   4.508   3.869   3.418 -0.9768  2.4920 -0.2054
    8MOL   H178 1592   4.384   3.767   3.376  0.1842 -0.6962  0.5014
    8MOL   H179 1593   4.206   3.929   3.417  0.3911 -0.8698  0.7351
    8MOL   H180 1594   4.256   4.267   3.422 -0.1962 -0.9127 -1.1459
    8MOL   H181 1595   4.175   4.130   3.362 -1.3047 -2.4228  1.9536
    8MOL   C182 1596   4.285   3.854   3.595  0.5052 -0.0927 -0.1300
    8MOL   C183 1597   4.199   3.915   3.712  0.1678 -0.2063  0.3078
    8MOL   C184 1598   4.177   3.798   3.813  0.7146 -0.1719 -0.0843
    8MOL   O185 1599   4.082   3.719   3.800 -0.1486  0.2469  0.0119
    8MOL   N186 1600   4.272   3.774   3.901 -0.0203 -0.0392 -0.4901
    8MOL   H187 1601   4.380   3.839   3.647  1.1043  2.5049 -0.4074
    8MOL   H188 1602   4.244   3.760   3.560 -1.1802  1.9076 -3.7765
    8MOL   H189 1603   4.256   4.000   3.750 -1.3786  1.0309 -0.0608
    8MOL   H190 1604   4.351   3.836   3.906 -0.0452  0.0164 -0.7840
    8MOL   H191 1605   4.251   3.719   3.983  2.3648 -0.6805 -0.2636
    8MOL   C192 1606   4.064   3.976   3.661  0.1356 -0.5239 -0.2902
    8MOL   C193 1607   4.034   4.110   3.731  0.4200 -0.3505 -1.2837
    8MOL   C194 1608   4.002   4.096   3.883 -0.3917 -0.1850 -0.4215
    8MOL   O195 1609   4.095   4.068   3.953 -0.1602 -0.5002 -0.6630
    8MOL   N196 1610   3.877   4.114   3.926  0.4700 -0.4212 -0.3917
    8MOL   H197 1611   3.978   3.909   3.659 -0.5679  0.3211  1.0881
    8MOL   H198 1612   4.053   4.004   3.556  0.4243  2.3886  0.4314
    8MOL   H199 1613   4.107   4.190   3.718  1.1678 -0.9346 -0.7163
    8MOL   H200 1614   3.802   4.146   3.866 -0.9439  1.5611  2.3504
    8MOL   H201 1615   3.857   4.098   4.024 -1.3692 -2.5894 -1.0909
    8MOL   H202 1616   3.950   4.157   3.679  0.7056  2.3416  0.5272
    9MOL     C1 1617   7.027   3.310   1.802 -0.4948  0.1523  0.0369
    9MOL     C2 1618   7.026   3.157   1.851 -0.2171  0.4367  0.1135
    9MOL     C3 1619   7.000   3.142   2.003  0.6038  0.2861  0.1817
    9MOL     O4 1620   6.950   3.035   2.045 -0.4043  0.3744 -0.3255
    9MOL     N5 1621   7.032   3.243   2.091  0.1835  0.1533 -0.3300
    9MOL     H6 1622   6.929   3.352   1.822 -0.8155 -1.4764  2.0718
    9MOL     H7 1623   7.107   3.362   1.853 -0.5409  0.5183 -0.2668
    9MOL     H8 1624   6.936   3.115   1.807  1.1470 -0.0022 -2.3017
    9MOL     H9 1625   7.081   3.320   2.050  1.5652 -0.6047 -0.1370
    9MOL    H10 1626   7.029   3.225   2.190  0.1029  0.2853 -0.3088
    9MOL    H11 1627   7.047   3.311   1.695 -1.3088  1.7664 -0.1063
    9MOL    C12 1628   7.133   3.060   1.808 -0.0122  0.3530 -0.7653
    9MOL    C13 1629   7.266   3.074   1.890  0.2648  0.2137 -0.0459
    9MOL    C14 1630   7.347   3.207   1.861 -0.4874  0.0186 -0.4918
    9MOL    O15 1631   7.377   3.225   1.743  0.6549  0.0068 -0.0054
    9MOL    N16 1632   7.367   3.294   1.958 -0.2057 -0.4335 -0.0082
    9MOL    H17 1633   7.154   3.068   1.701  1.9470 -0.3301 -0.4531
    9MOL    H18 1634   7.099   2.959   1.831  1.0776  0.9605  3.9905
    9MOL    H19 1635   7.244   3.066   1.996  0.6486  0.2868  0.0402
    9MOL    H20 1636   7.347   3.265   2.053 -0.7124 -1.4748 -0.4118
    9MOL    H21 1637   7.426   3.369   1.928  0.1719 -0.0774  1.5937
    9MOL    C22 1638   7.355   2.949   1.855 -0.1799  0.7304 -0.1446
    9MOL    C23 1639   7.435   2.887   1.974  0.2578  0.2850 -0.4854
    9MOL    C24 1640   7.556   2.801   1.924 -0.0762  0.0947 -0.6527
    9MOL    O25 1641   7.547   2.685   1.876 -0.2161  0.1403 -0.5356
    9MOL    N26 1642   0.022   2.842   1.956  0.1424  0.0408  0.1656
    9MOL    H27 1643   7.427   2.975   1.777 -0.8900 -0.5468 -1.2307
    9MOL    H28 1644   7.295   2.868   1.814  2.2167 -0.6797 -0.9473
    9MOL    H29 1645   7.478   2.958   2.045  1.4862  0.3882 -1.3191
    9MOL    H30 1646   0.046   2.928   2.003  0.3035 -1.5047  2.9903
    9MOL    H31 1647   0.093   2.796   1.902 -0.3475  0.6274 -0.9957
    9MOL    C32 1648   7.327   2.801   2.048 -0.0244  0.3790  0.3143
    9MOL    C33 1649   7.379   2.727   2.170  0.4606 -0.1609  0.1313
    9MOL    C34 1650   7.330   2.577   2.158  0.1160 -1.1156 -0.5515
    9MOL    O35 1651   7.213   2.549   2.132 -0.2544 -0.0865 -0.8526
    9MOL    N36 1652   7.415   2.481   2.192  0.4694 -0.0648 -0.7373
    9MOL    H37 1653   7.277   2.735   1.978  1.9504 -1.4002  0.5318
    9MOL    H38 1654   7.249   2.865   2.088 -0.1650 -0.4962  1.4890
    9MOL    H39 1655   7.488   2.730   2.178  0.6301 -2.4402 -1.0091
    9MOL    H40 1656   7.392   2.385   2.173  0.6603  0.0721 -1.6893
    9MOL    H41 1657   7.505   2.507   2.230 -0.5052 -1.1151  2.4348
    9MOL    C42 1658   7.329   2.788   2.307 -0.1326  0.7359  0.0203
    9MOL    C43 1659   7.369   2.935   2.350  0.3826  1.0454 -0.0504
    9MOL    C44 1660   7.519   2.947   2.360  0.0371 -0.4239  0.5881
    9MOL    O45 1661   7.595   2.868   2.409  0.3115 -0.3427  0.4431
    9MOL    N46 1662   7.573   3.050   2.294 -0.3611 -0.0434 -0.3486
    9MOL    H47 1663   7.369   2.714   2.376 -1.0579 -1.0370 -1.3104
    9MOL    H48 1664   7.221   2.775   2.308  0.0799 -1.2738  3.4606
    9MOL    H49 1665   7.342   3.005   2.271 -2.1652  0.0035 -0.1590
    9MOL    H50 1666   7.510   3.108   2.240 -0.4213 -1.3311 -1.6982
    9MOL    H51 1667   0.016   3.062   2.293  0.0463 -2.8966  0.5499
    9MOL    C52 1668   7.293   2.973   2.481 -0.2645  0.3243  0.1576
    9MOL    C53 1669   7.138   2.960   2.484  0.2459  0.0103  0.1205
    9MOL    C54 1670   7.076   3.011   2.360  0.4937  0.8247 -0.1177
    9MOL    O55 1671   7.084   3.129   2.334  0.1915  0.6736  0.5765
    9MOL    N56 1672   6.998   2.928   2.298  0.2281  0.5519  0.3364
    9MOL    H57 1673   7.318   3.077   2.502 -0.0260  0.5678 -1.2775
    9MOL    H58 1674   7.345   2.925   2.563  2.4688  2.4704 -0.2629
    9MOL    H59 1675   7.116   2.854   2.501  0.6044  0.2272  1.9750
    9MOL    H60 1676   6.946   2.959   2.217  0.5061 -0.6287 -0.3043
    9MOL    H61 1677   6.974   2.840   2.340 -1.1538  1.1591  0.8324
    9MOL    C62 1678   7.084   3.024   2.615 -0.9850 -0.0152  0.1839
    9MOL    C63 1679   6.927   3.001   2.626 -0.6070  0.6075 -0.2349
    9MOL    C64 1680   6.854   3.130   2.597  0.2482 -1.1007  0.8206
    9MOL    O65 1681   6.861   3.220   2.672  0.7952 -0.5294  0.0188
    9MOL    N66 1682   6.769   3.132   2.494  0.0061 -0.1264 -0.3193
    9MOL    H67 1683   7.109   3.130   2.621 -2.5345  0.4493 -1.2242
    9MOL    H68 1684   7.144   2.979   2.694 -0.2588  0.6967  0.0541
    9MOL    H69 1685   6.891   2.927   2.554  1.5103 -2.4098  1.6659
    9MOL    H70 1686   6.764   3.050   2.435  0.6150  0.5568 -1.3474
    9MOL    H71 1687   6.721   3.217   2.467  0.5458 -0.2710 -1.7880
    9MOL    C72 1688   6.894   2.932   2.759  0.2074 -0.0792 -0.0134
    9MOL    C73 1689   6.751   2.922   2.816  0.4071  0.4888  0.2975
    9MOL    C74 1690   6.653   2.877   2.710  0.0572  0.0915  0.0820
    9MOL    O75 1691   6.562   2.952   2.667 -0.5768 -0.2656  0.4430
    9MOL    N76 1692   6.663   2.748   2.681 -0.1664 -0.5444  0.7744
    9MOL    H77 1693   6.953   2.976   2.839  1.3679 -0.0842 -0.8498
    9MOL    H78 1694   6.936   2.831   2.764  1.4200  0.3643 -0.7840
    9MOL    H79 1695   6.749   2.844   2.891 -2.3969  0.7147  0.5081
    9MOL    H80 1696   6.601   2.708   2.612 -1.1717  1.5541  0.4281
    9MOL    H81 1697   6.750   2.703   2.705 -0.1501 -0.7666  0.3067
    9MOL    C82 1698   6.707   3.046   2.896 -0.0819 -0.2338  0.4064
    9MOL    C83 1699   6.565   3.046   2.968 -0.1209 -0.1312 -0.1867
    9MOL    C84 1700   6.523   3.191   3.009 -0.1706  0.2688  0.6330
    9MOL    O85 1701   6.605   3.267   3.064  0.1036 -0.3667  0.0769
    9MOL    N86 1702   6.402   3.226   2.972 -0.0121  0.0293 -0.2130
    9MOL    H87 1703   6.707   3.140   2.841  1.2222 -0.0380  0.7298
    9MOL    H88 1704   6.789   3.065   2.965  2.0419  1.4966 -2.4646
    9MOL    H89 1705   6.478   3.018   2.910 -0.4264  0.0267  0.1947
    9MOL    H90 1706   6.349   3.166   2.910  0.6766 -0.5694 -0.2206
    9MOL    H91 1707   6.369   3.319   2.993  2.3321  0.7870  0.2409
    9MOL    C92 1708   6.564   2.958   3.102  0.4317 -0.3497  0.1701
    9MOL    C93 1709   6.537   2.812   3.084  0.3521  0.2610 -0.4133
    9MOL    C94 1710   6.396   2.773   3.034  0.0971  0.7795  0.1121
    9MOL    O95 1711   6.297   2.839   3.056 -0.1744 -0.1769 -0.2115
    9MOL    N96 1712   6.386   2.653   2.974 -0.0759  0.3588  0.4302
    9MOL    H97 1713   6.498   3.001   3.177  0.8280  1.8703 -0.7158
    9MOL    H98 1714   6.661   2.972   3.149  0.5349  2.6300 -0.7977
    9MOL    H99 1715   6.611   2.768   3.017  2.2099  2.9712 -0.2029
    9MOL   H100 1716   6.292   2.626   2.948  0.8889 -0.5569 -2.2298
    9MOL   H101 1717   6.467   2.615   2.927 -1.0791  0.0368 -1.0726
    9MOL   C102 1718   6.556   2.734   3.225 -0.0415 -0.9001 -0.2261
    9MOL   C103 1719   6.696   2.738   3.298 -0.2228  0.6273 -0.1063
    9MOL   C104 1720   6.810   2.714   3.197 -0.1144  0.8044 -0.1744
    9MOL   O105 1721   6.822   2.613   3.126 -0.3765 -0.9097  0.1806
    9MOL   N106 1722   6.903   2.810   3.184  0.0028 -0.3246 -0.8958
    9MOL   H107 1723   6.536   2.631   3.194 -2.4719 -0.0238 -1.6919
    9MOL   H108 1724   6.473   2.755   3.292  1.1787  1.2137  0.6676
    9MOL   H109 1725   6.720   2.840   3.330  0.6959 -0.2019  1.8890
    9MOL   H110 1726   6.891   2.898   3.231 -0.1025  0.3843 -2.2325
    9MOL   H111 1727   6.969   2.793   3.109 -0.1160 -0.7501 -0.9045
    9MOL   C112 1728   6.713   2.647   3.420 -0.4754  0.0370 -0.6847
    9MOL   C113 1729   6.614   2.681   3.537 -0.5276 -0.7524 -0.4507
    9MOL   C114 1730   6.645   2.817   3.594 -0.0791 -0.2774  0.2787
    9MOL   O115 1731   6.744   2.840   3.655 -0.4739 -0.3727 -1.0050
    9MOL   N116 1732   6.554   2.914   3.569 -0.5402 -0.0823 -0.2856
    9MOL   H117 1733   6.812   2.643   3.465 -1.0564  0.4506  0.6682
    9MOL   H118 1734   6.700   2.543   3.392 -1.7426  0.1947 -0.7420
    9MOL   H119 1735   6.515   2.696   3.495 -0.1899 -2.2802 -1.8362
    9MOL   H120 1736   6.472   2.893   3.515 -1.3670  0.4361  0.7379
    9MOL   H121 1737   6.566   2.992   3.633 -1.1059 -1.4685  1.5646
    9MOL   C122 1738   6.605   2.576   3.648 -0.0201  0.5007 -0.7556
    9MOL   C123 1739   6.544   2.438   3.598  0.9259  0.2476 -0.4841
    9MOL   C124 1740   6.391   2.434   3.621  0.0793 -0.1752  0.2158
    9MOL   O125 1741   6.338   2.430   3.735 -0.1916  0.2447 -0.0365
    9MOL   N126 1742   6.312   2.439   3.517  0.6844 -0.8223  0.1812
    9MOL   H127 1743   6.538   2.606   3.728  0.0749 -0.2074 -0.4156
    9MOL   H128 1744   6.706   2.565   3.688  0.4634  1.9695 -1.4961
    9MOL   H129 1745   6.559   2.438   3.490  0.5483  1.2570 -0.5414
    9MOL   H130 1746   6.211   2.434   3.526  0.6694  0.9374  1.0958
    9MOL   H131 1747   6.357   2.455   3.428  0.7386 -0.2173  0.3138
    9MOL   C132 1748   6.606   2.302   3.651 -0.3386 -0.5561  0.1024
    9MOL   C133 1749   6.731   2.248   3.580  0.8012 -0.5586  0.0016
    9MOL   C134 1750   6.743   2.098   3.597  0.1299  0.4014  0.0949
    9MOL   O135 1751   6.736   2.022   3.502 -0.0743  0.1283 -0.2418
    9MOL   N136 1752   6.806   2.048   3.710  0.2356 -0.2218  0.3145
    9MOL   H137 1753   6.521   2.234   3.649 -0.7177 -0.1627  1.7745
    9MOL   H138 1754   6.633   2.319   3.756  3.7121  0.9773 -1.0825
    9MOL   H139 1755   6.706   2.257   3.474 -0.7853  2.3181  0.5591
    9MOL   H140 1756   6.827   1.950   3.712  2.6721  0.2573 -0.2179
    9MOL   H141 1757   6.837   2.099   3.792  1.0973 -1.2170  0.6194
    9MOL   C142 1758   6.867   2.330   3.596 -0.5938 -0.4920 -0.1846
    9MOL   C143 1759   6.966   2.340   3.483  0.4461 -0.5210 -0.7880
    9MOL   C144 1760   7.027   2.209   3.441  0.4250  0.3256  0.6981
    9MOL   O145 1761   7.089   2.138   3.513 -0.4689  0.2943 -0.1713
    9MOL   N146 1762   7.019   2.184   3.313 -0.2544  1.1393  0.0793
    9MOL   H147 1763   6.921   2.293   3.683  2.6563  0.4554 -1.7481
    9MOL   H148 1764   6.844   2.432   3.626 -0.0803 -0.7633  1.1562
    9MOL   H149 1765   6.908   2.380   3.400 -1.7575 -1.0652  0.4441
    9MOL   H150 1766   7.077   2.107   3.284  0.7229  1.7570  0.3904
    9MOL   H151 1767   6.957   2.234   3.251 -0.9097  1.1837  0.7595
    9MOL   C152 1768   7.067   2.461   3.500 -0.1947 -0.1899  0.1230
    9MOL   C153 1769   7.165   2.494   3.385  0.1521 -0.5248 -0.1407
    9MOL   C154 1770   7.297   2.412   3.384  0.0302  0.0551  0.4762
    9MOL   O155 1771   7.370   2.413   3.484  0.1274 -0.0573  0.7544
    9MOL   N156 1772   7.312   2.341   3.274 -0.0703  0.1929 -0.0163
    9MOL   H157 1773   7.125   2.431   3.587 -0.0947  0.4331  0.2730
    9MOL   H158 1774   7.014   2.555   3.519  1.3534  0.9000 -0.8116
    9MOL   H159 1775   7.120   2.469   3.289  0.5560 -1.6393 -0.0414
    9MOL   H160 1776   7.365   2.258   3.294 -0.8883 -0.4890 -0.5984
    9MOL   H161 1777   7.248   2.342   3.195 -0.7208  0.2668  0.5038
    9MOL   C162 1778   7.190   2.648   3.375 -0.6911 -0.5800 -0.3619
    9MOL   C163 1779   7.301   2.699   3.268 -0.7699  0.2484  0.4887
    9MOL   C164 1780   7.371   2.821   3.328 -0.5700 -0.0568  0.1288
    9MOL   O165 1781   7.354   2.937   3.283  0.1170  0.0703 -0.7152
    9MOL   N166 1782   7.455   2.802   3.424 -0.3649  0.8429 -0.1527
    9MOL   H167 1783   7.216   2.681   3.476  1.0969 -0.0587 -0.9718
    9MOL   H168 1784   7.096   2.697   3.351 -0.1269  1.9061  2.2210
    9MOL   H169 1785   7.383   2.628   3.256  0.2432  1.2666  1.2155
    9MOL   H170 1786   7.494   2.710   3.437 -1.5223  0.4664  0.7216
    9MOL   H171 1787   7.497   2.882   3.469  2.2713  0.0446 -1.1111
    9MOL   C172 1788   7.240   2.723   3.125  0.3245  0.0932 -1.1933
    9MOL   C173 1789   7.339   2.751   3.017 -0.0155  0.2643 -0.4380
    9MOL   C174 1790   7.276   2.821   2.899 -0.4929  0.3118  0.2591
    9MOL   O175 1791   7.231   2.754   2.804  0.0620  0.0404  0.1977
    9MOL   N176 1792   7.289   2.949   2.912  0.1904 -0.0987  0.3704
    9MOL   H177 1793   7.168   2.804   3.116  1.8740  1.5933 -0.2650
    9MOL   H178 1794   7.185   2.632   3.098  0.5837  0.2743 -2.3644
    9MOL   H179 1795   7.409   2.825   3.057  0.0155  0.2121 -0.3957
    9MOL   H180 1796   7.244   3.012   2.847 -0.6288 -0.1843  0.8509
    9MOL   H181 1797   7.307   2.981   3.006  2.6992  1.0548 -0.4508
    9MOL   C182 1798   7.440   2.639   2.977  0.3568 -0.1112 -0.0337
    9MOL   C183 1799   7.573   2.687   2.906 -0.0564  0.4097 -0.5282
    9MOL   C184 1800   7.595   2.624   2.767 -0.0479  0.0340  0.3299
    9MOL   O185 1801   0.011   2.525   2.749 -0.3009 -0.2579 -0.3153
    9MOL   N186 1802   7.539   2.689   2.664 -0.6572  0.2730  0.0624
    9MOL   H187 1803   7.387   2.569   2.913  2.0806 -0.5720 -0.9857
    9MOL   H188 1804   7.454   2.575   3.064  0.5773 -2.1247 -1.5133
    9MOL   H189 1805   7.568   2.795   2.893 -0.1376  0.2523 -1.8018
    9MOL   H190 1806   7.554   2.657   2.570  0.8250 -1.5992  0.9098
    9MOL   H191 1807   7.491   2.777   2.676 -0.7297 -0.1588  3.3133
    9MOL   C192 1808   0.036   2.677   2.996 -0.2620 -0.1983 -0.5030
    9MOL   C193 1809   0.101   2.539   3.029 -0.0955  0.4569  0.5918
    9MOL   C194 1810   0.004   2.421   3.073  1.0866 -0.7573 -0.1869
    9MOL   O195 1811   7.622   2.342   2.994 -0.3350 -0.5386  0.6415
    9MOL   N196 1812   7.623   2.417   3.196 -0.5154 -0.1958  0.3102
    9MOL   H197 1813   0.002   2.712   3.094 -0.4611  0.5563 -0.8347
    9MOL   H198 1814   0.117   2.747   2.976 -1.6789  1.6007 -0.0966
    9MOL   H199 1815   0.166   2.507   2.948  1.1072 -0.7289  1.9931
    9MOL   H200 1816   0.012   2.468   3.270 -1.6473  0.0908  0.8260
    9MOL   H201 1817   7.548   2.354   3.221 -0.8831 -0.2347 -0.8555
    9MOL   H202 1818   0.174   2.549   3.110 -0.0502 -0.9009  0.7288
   10MOL     C1 1819   3.759   1.854   4.926 -0.0362 -0.2178 -0.1536
   10MOL     C2 1820   3.747   1.780   5.068 -0.9376 -0.6919  0.3278
   10MOL     C3 1821   3.812   1.645   5.061  0.5682  0.6030 -0.2757
   10MOL     O4 1822   3.794   1.563   4.968  0.2901  0.2265 -0.7705
   10MOL     N5 1823   3.881   1.600   5.166 -0.2850 -1.0467  0.5465
   10MOL     H6 1824   3.864   1.854   4.895 -0.0090 -0.4321 -0.0694
   10MOL     H7 1825   3.706   1.791   4.854 -0.1280 -1.4100  0.9370
   10MOL     H8 1826   3.794   1.841   5.146 -1.6302  0.4817 -0.1628
   10MOL     H9 1827   3.945   1.521   5.163 -1.0748 -1.6608 -0.2581
   10MOL    H10 1828   3.892   1.673   5.235  0.5467 -0.6489  0.0081
   10MOL    H11 1829   3.717   1.954   4.922 -0.1244 -0.2300  0.4350
   10MOL    C12 1830   3.601   1.763   5.109 -0.1004 -0.2111 -0.0319
   10MOL    C13 1831   3.548   1.853   5.224 -0.7801 -0.5972 -0.3704
   10MOL    C14 1832   3.525   1.993   5.170 -0.2481 -0.0731 -0.1769
   10MOL    O15 1833   3.588   2.091   5.211 -0.0010  0.4079  0.4460
   10MOL    N16 1834   3.438   2.003   5.073  0.3807 -0.1251  0.1022
   10MOL    H17 1835   3.572   1.663   5.142 -1.5896  0.4246  0.6676
   10MOL    H18 1836   3.540   1.772   5.020 -1.7527 -0.2844  1.0695
   10MOL    H19 1837   3.447   1.815   5.241 -1.0614 -0.6687 -2.1430
   10MOL    H20 1838   3.417   1.930   5.006  1.2354 -1.8862  1.6881
   10MOL    H21 1839   3.404   2.095   5.048 -3.0950 -1.4028 -0.1957
   10MOL    C22 1840   3.632   1.866   5.357 -0.2753  0.1933 -0.2864
   10MOL    C23 1841   3.613   1.729   5.437 -0.1230 -0.0490  0.2205
   10MOL    C24 1842   3.462   1.717   5.475 -0.7105 -0.2727 -0.0691
   10MOL    O25 1843   3.403   1.803   5.532  0.1018  0.0930  0.1696
   10MOL    N26 1844   3.395   1.607   5.436  0.0406  0.2491 -0.0995
   10MOL    H27 1845   3.601   1.947   5.423 -0.1168  0.1836 -0.1984
   10MOL    H28 1846   3.734   1.895   5.329  0.6176 -1.4889  1.1006
   10MOL    H29 1847   3.639   1.643   5.375 -1.4167  1.7454 -2.9845
   10MOL    H30 1848   3.301   1.589   5.467  0.6510 -2.9134  0.1093
   10MOL    H31 1849   3.432   1.537   5.373  4.1787  0.2660  2.0754
   10MOL    C32 1850   3.704   1.738   5.558  0.1534  1.2016 -0.0877
   10MOL    C33 1851   3.717   1.619   5.657 -0.0693 -0.2164  0.1174
   10MOL    C34 1852   3.661   1.651   5.798 -0.2411 -0.0640 -0.2817
   10MOL    O35 1853   3.738   1.673   5.889 -0.0016  0.1097  0.0117
   10MOL    N36 1854   3.531   1.650   5.817 -0.0086 -0.1540  0.4659
   10MOL    H37 1855   3.682   1.826   5.619 -0.0340  1.0378  0.0811
   10MOL    H38 1856   3.807   1.749   5.526  0.4910 -1.9778 -0.2607
   10MOL    H39 1857   3.654   1.544   5.609  0.7693 -0.2226 -1.0114
   10MOL    H40 1858   3.494   1.699   5.897 -1.7992 -1.9959  0.8280
   10MOL    H41 1859   3.463   1.633   5.745  1.7704 -0.3301 -1.2205
   10MOL    C42 1860   3.859   1.565   5.667 -0.1909 -0.3491  0.0977
   10MOL    C43 1861   3.861   1.430   5.737  0.0683 -0.0403  0.2367
   10MOL    C44 1862   3.978   1.423   5.835 -0.0324 -0.0478 -0.1985
   10MOL    O45 1863   4.091   1.397   5.793 -0.5962  0.1985 -0.8380
   10MOL    N46 1864   3.957   1.446   5.966 -0.7187 -0.0592  0.0454
   10MOL    H47 1865   3.925   1.642   5.708  1.2844 -1.5797  0.0788
   10MOL    H48 1866   3.896   1.549   5.566 -3.6211 -0.9876 -1.1176
   10MOL    H49 1867   3.774   1.411   5.800  0.1970 -1.2896  0.0457
   10MOL    H50 1868   4.038   1.450   6.027 -1.0295 -3.8956  0.8294
   10MOL    H51 1869   3.873   1.493   5.997 -0.1284  0.9502  0.1218
   10MOL    C52 1870   3.861   1.309   5.644 -0.3033 -0.0025  0.5741
   10MOL    C53 1871   3.800   1.173   5.679 -0.5516 -0.3960  0.0064
   10MOL    C54 1872   3.644   1.172   5.681  0.3045  0.0390 -0.0155
   10MOL    O55 1873   3.571   1.260   5.728 -0.1226 -0.0292 -0.2460
   10MOL    N56 1874   3.587   1.059   5.635  0.0135  0.3728 -0.3618
   10MOL    H57 1875   3.962   1.291   5.605 -1.0487  1.1111 -1.9845
   10MOL    H58 1876   3.807   1.349   5.558 -0.8368 -1.5080  0.2064
   10MOL    H59 1877   3.834   1.107   5.600  0.7645  0.8079 -0.4609
   10MOL    H60 1878   3.634   0.979   5.595 -3.8322 -0.8238 -2.7909
   10MOL    H61 1879   3.491   1.034   5.652  0.9082 -2.8998  0.1559
   10MOL    C62 1880   3.860   1.115   5.812 -0.0404  0.4863  0.8800
   10MOL    C63 1881   3.843   0.964   5.833  0.0636  0.3405 -0.9964
   10MOL    C64 1882   3.703   0.923   5.882 -0.0160 -0.3021 -0.3934
   10MOL    O65 1883   3.649   0.995   5.962  0.1279 -0.6150 -0.7816
   10MOL    N66 1884   3.646   0.817   5.830  0.3712  0.3219 -0.1041
   10MOL    H67 1885   3.811   1.161   5.897 -0.2641  1.9058 -0.0059
   10MOL    H68 1886   3.966   1.141   5.818  0.1307 -0.4736  2.2115
   10MOL    H69 1887   3.854   0.904   5.742  1.2479 -2.8334  1.1649
   10MOL    H70 1888   3.675   0.786   5.739 -0.0042  0.2298 -0.1925
   10MOL    H71 1889   3.547   0.807   5.843  0.4941 -1.8050 -0.6281
   10MOL    C72 1890   3.946   0.892   5.921 -0.0537  0.1221  0.7750
   10MOL    C73 1891   3.966   0.942   6.066  0.0036  0.0228 -0.5266
   10MOL    C74 1892   4.058   1.064   6.074 -0.4260  0.2640  0.0432
   10MOL    O75 1893   4.174   1.058   6.028 -0.0998 -0.3392  0.6756
   10MOL    N76 1894   4.012   1.173   6.134  0.4078 -0.0652 -0.8639
   10MOL    H77 1895   4.041   0.904   5.869  0.8819 -0.0829  2.3866
   10MOL    H78 1896   3.932   0.783   5.923  0.7907  0.0124  1.0376
   10MOL    H79 1897   3.873   0.990   6.097  0.9363 -0.4716  3.1931
   10MOL    H80 1898   4.063   1.259   6.144 -0.0158  0.0576  0.3348
   10MOL    H81 1899   3.922   1.162   6.180  0.4035 -1.6564 -1.2334
   10MOL    C82 1900   3.987   0.845   6.181  0.1015 -0.0405 -0.0368
   10MOL    C83 1901   4.122   0.775   6.188 -0.1103 -0.2501 -0.2917
   10MOL    C84 1902   4.129   0.638   6.123 -0.2822  0.2707  0.5320
   10MOL    O85 1903   4.142   0.538   6.185 -0.0854  0.1913 -0.1515
   10MOL    N86 1904   4.117   0.636   5.994 -0.1807  0.3014  0.1614
   10MOL    H87 1905   3.920   0.759   6.181 -0.5352  0.4349  0.8838
   10MOL    H88 1906   3.958   0.893   6.275 -0.4728  0.4550 -0.4612
   10MOL    H89 1907   4.191   0.832   6.126  1.3246 -1.8362 -0.1987
   10MOL    H90 1908   4.101   0.725   5.950 -3.3332 -1.2841 -2.0826
   10MOL    H91 1909   4.103   0.547   5.946 -0.1351  1.1081 -1.3897
   10MOL    C92 1910   4.184   0.765   6.332  0.4205 -0.2546 -0.1606
   10MOL    C93 1911   4.229   0.903   6.386 -0.8076  0.3480  0.2417
   10MOL    C94 1912   4.363   0.956   6.334 -0.0920 -1.0279 -0.6056
   10MOL    O95 1913   4.467   0.926   6.398  0.0619  0.0465  0.4643
   10MOL    N96 1914   4.369   1.038   6.228 -0.6076  0.6920 -0.4000
   10MOL    H97 1915   4.263   0.691   6.343  1.2946  0.3471 -2.1993
   10MOL    H98 1916   4.097   0.733   6.389 -1.6340  1.0844 -2.4494
   10MOL    H99 1917   4.167   0.981   6.341 -1.8253  0.7317  2.2790
   10MOL   H100 1918   4.458   1.080   6.206  1.0379 -1.8209  1.1609
   10MOL   H101 1919   4.283   1.072   6.187  0.8749  2.5594 -2.0393
   10MOL   C102 1920   4.219   0.909   6.538 -0.1091 -0.3364 -0.1389
   10MOL   C103 1921   4.221   1.049   6.603  1.2266  0.3614 -0.4875
   10MOL   C104 1922   4.249   1.043   6.752 -0.3419  0.2592  0.4490
   10MOL   O105 1923   4.192   0.955   6.814  0.7102 -0.1773 -0.3306
   10MOL   N106 1924   4.323   1.140   6.812  0.1669 -0.8258 -0.3465
   10MOL   H107 1925   4.301   0.849   6.578  0.1785 -0.1426 -0.4304
   10MOL   H108 1926   4.136   0.846   6.570  1.3383 -2.2974 -0.1910
   10MOL   H109 1927   4.302   1.105   6.556  2.0983  0.4955  1.1418
   10MOL   H110 1928   4.367   1.209   6.753 -1.9488 -0.0896 -1.0876
   10MOL   H111 1929   4.351   1.142   6.909 -0.1906  0.7601 -0.2643
   10MOL   C112 1930   4.095   1.138   6.581 -0.6756  0.0018  0.6527
   10MOL   C113 1931   3.954   1.091   6.613  0.4053 -0.1866 -0.1960
   10MOL   C114 1932   3.877   1.039   6.492  0.2643  0.5113  0.6863
   10MOL   O115 1933   3.855   1.120   6.400 -0.0339  0.4844  0.1259
   10MOL   N116 1934   3.831   0.917   6.488  0.1589 -0.2399  0.7050
   10MOL   H117 1935   4.093   1.177   6.480 -1.2361  2.2889  1.5234
   10MOL   H118 1936   4.108   1.232   6.635 -2.6321  0.1049  0.9993
   10MOL   H119 1937   3.958   1.015   6.691 -0.4745  0.4952  0.5203
   10MOL   H120 1938   3.771   0.893   6.411  2.6592 -0.1211 -1.3555
   10MOL   H121 1939   3.864   0.847   6.553  0.5161 -0.4888  0.2624
   10MOL   C122 1940   3.866   1.209   6.671 -0.0280  0.6459  0.9501
   10MOL   C123 1941   3.903   1.237   6.818 -0.1110 -0.5193  0.2689
   10MOL   C124 1942   3.828   1.145   6.914  0.2412  0.6191  0.2552
   10MOL   O125 1943   3.714   1.177   6.949  0.1031  0.2745 -0.4659
   10MOL   N126 1944   3.899   1.042   6.964  0.4700 -0.0869 -0.2942
   10MOL   H127 1945   3.760   1.186   6.664  0.1521 -0.6778  2.3559
   10MOL   H128 1946   3.886   1.290   6.600  0.3895 -0.2762 -0.0013
   10MOL   H129 1947   4.007   1.206   6.822  0.3347  0.9729  0.7556
   10MOL   H130 1948   3.987   1.021   6.921 -0.0637 -2.3156 -0.3374
   10MOL   H131 1949   3.849   0.972   7.017  0.3390  0.5134  0.3935
   10MOL   C132 1950   3.902   1.391   6.851  0.7480 -0.6631 -0.6487
   10MOL   C133 1951   3.954   1.447   6.990  0.2949  0.3336 -0.0230
   10MOL   C134 1952   4.103   1.409   7.011 -0.1254  0.1463  0.1090
   10MOL   O135 1953   4.139   1.293   7.044  0.5643 -0.4372 -0.1229
   10MOL   N136 1954   4.194   1.507   6.998 -0.2376 -0.0296  0.2239
   10MOL   H137 1955   3.804   1.432   6.827  0.1553 -2.1803 -0.8699
   10MOL   H138 1956   3.958   1.431   6.767  0.5219  1.0787  0.0061
   10MOL   H139 1957   3.954   1.556   6.986 -1.7219  0.3249 -0.9046
   10MOL   H140 1958   4.294   1.497   7.006 -0.2302  0.8160  1.3953
   10MOL   H141 1959   4.166   1.603   6.984  1.8378  0.8347  1.7284
   10MOL   C142 1960   3.872   1.407   7.119 -1.0354  0.2918 -0.1332
   10MOL   C143 1961   3.738   1.469   7.144  0.6761 -0.1171 -0.3635
   10MOL   C144 1962   3.752   1.623   7.135  0.1537  0.2544 -0.0406
   10MOL   O145 1963   3.822   1.683   7.218 -0.2615 -0.1555  0.3775
   10MOL   N146 1964   3.687   1.690   7.041  0.2631 -0.4083  0.2093
   10MOL   H147 1965   3.943   1.431   7.198  0.7692 -2.8991 -0.6701
   10MOL   H148 1966   3.853   1.300   7.135 -0.0681  0.4179  2.0196
   10MOL   H149 1967   3.679   1.442   7.057  0.5395  0.3404 -0.4151
   10MOL   H150 1968   3.721   1.784   7.027 -0.4556 -0.3707 -1.3203
   10MOL   H151 1969   3.627   1.643   6.976 -1.3283  0.6947  0.8550
   10MOL   C152 1970   3.671   1.442   7.278 -0.3166  0.3952 -0.5519
   10MOL   C153 1971   3.524   1.501   7.307  0.1092  0.0230 -0.3181
   10MOL   C154 1972   3.470   1.453   7.439 -0.2440  0.5011 -0.2298
   10MOL   O155 1973   3.487   1.332   7.466  0.1263  0.3531  0.1838
   10MOL   N156 1974   3.400   1.538   7.512  1.0628  0.2463 -0.2096
   10MOL   H157 1975   3.740   1.473   7.356  1.0873 -1.0559 -1.1840
   10MOL   H158 1976   3.664   1.333   7.282 -0.2441  0.3874 -0.6109
   10MOL   H159 1977   3.527   1.610   7.314 -0.3915 -0.0634  1.7668
   10MOL   H160 1978   3.382   1.632   7.482 -0.6380  0.0016 -0.0074
   10MOL   H161 1979   3.366   1.518   7.606 -0.4895 -0.5631 -0.9224
   10MOL   C162 1980   3.423   1.507   7.196  0.1445 -0.1017 -0.1436
   10MOL   C163 1981   3.335   1.379   7.172 -0.4098 -0.4878 -0.1855
   10MOL   C164 1982   3.324   1.342   7.015 -0.4219 -0.4879 -0.5730
   10MOL   O165 1983   3.228   1.371   6.947 -0.0394  0.3495 -0.5435
   10MOL   N166 1984   3.430   1.297   6.948 -0.1448  0.3106 -0.6178
   10MOL   H167 1985   3.452   1.537   7.096  0.8647 -1.1490 -0.2651
   10MOL   H168 1986   3.363   1.590   7.235  0.4313  0.3756 -0.7189
   10MOL   H169 1987   3.398   1.298   7.208  2.3698  0.7200 -2.1298
   10MOL   H170 1988   3.512   1.271   7.001 -0.0626  0.6269 -0.5953
   10MOL   H171 1989   3.425   1.278   6.849  1.3752  2.6728 -1.1717
   10MOL   C172 1990   3.196   1.388   7.243 -0.0858  0.0482 -0.0757
   10MOL   C173 1991   3.103   1.265   7.255  0.0522  0.2183 -0.9027
   10MOL   C174 1992   2.978   1.266   7.161  0.5936 -0.0863  0.4175
   10MOL   O175 1993   2.907   1.369   7.148 -0.2052  0.2119 -0.0701
   10MOL   N176 1994   2.950   1.158   7.095  0.1204  0.6457  0.3518
   10MOL   H177 1995   3.142   1.476   7.208  1.4973  1.6821  1.4587
   10MOL   H178 1996   3.216   1.425   7.344 -0.2048 -0.2719  0.0631
   10MOL   H179 1997   3.156   1.176   7.224  2.2886  0.6730  1.4869
   10MOL   H180 1998   3.014   1.080   7.100 -2.1446 -1.7390 -4.4006
   10MOL   H181 1999   2.877   1.153   7.026  0.0596 -0.9551  0.5337
   10MOL   C182 2000   3.065   1.238   7.399 -0.3543  0.1924  1.4382
   10MOL   C183 2001   3.185   1.196   7.484 -0.2186  0.4783  0.5710
   10MOL   C184 2002   3.252   1.065   7.442  0.1556  0.5136  0.7523
   10MOL   O185 2003   3.183   0.964   7.419  0.0756  0.3597  0.1599
   10MOL   N186 2004   3.383   1.059   7.439 -0.5446 -0.0634  0.6734
   10MOL   H187 2005   2.980   1.171   7.413 -0.5388 -0.1016 -0.9405
   10MOL   H188 2006   3.019   1.327   7.442  1.5646  1.9328 -0.0367
   10MOL   H189 2007   3.257   1.277   7.477 -1.8664  1.8909 -0.2587
   10MOL   H190 2008   3.431   1.146   7.458 -0.6384  0.1983 -0.2417
   10MOL   H191 2009   3.434   0.978   7.408 -0.8696  0.3122 -0.8892
   10MOL   C192 2010   3.152   1.170   7.634 -0.0424 -0.7928 -0.3536
   10MOL   C193 2011   3.264   1.186   0.092 -0.8682  0.3747  0.6071
   10MOL   C194 2012   3.301   1.335   0.126  0.4983  0.6315  1.1058
   10MOL   O195 2013   3.237   1.428   0.075 -0.1172 -0.0382 -0.0088
   10MOL   N196 2014   3.391   1.358   0.220  0.2922  0.1284  0.3301
   10MOL   H197 2015   3.117   1.069   7.651 -1.6270  0.3320  3.4865
   10MOL   H198 2016   3.065   1.233   7.650  0.7752  0.1341  0.5353
   10MOL   H199 2017   3.237   1.137   0.185  2.1140 -1.6199  0.4795
   10MOL   H200 2018   3.402   1.454   0.250  1.3438 -0.1274  0.7755
   10MOL   H201 2019   3.443   1.288   0.270  0.9913  0.2586 -0.2087
   10MOL   H202 2020   3.361   1.146   0.060 -1.5645 -0.3469 -0.6584
   11MOL     C1 2021   7.450   3.783   1.059  0.7329  0.8483 -0.2180
   11MOL     C2 2022   7.410   3.934   1.055  0.3893 -0.4090 -0.5701
   11MOL     C3 2023   7.532   4.024   1.034 -0.2552  0.0043 -0.2701
   11MOL     O4 2024   7.529   4.108   0.947  0.3463 -0.3771  0.0595
   11MOL     N5 2025   7.645   3.998   1.101 -0.1491 -0.7207  0.0485
   11MOL     H6 2026   7.360   3.723   1.045  0.8280  1.0140 -1.6409
   11MOL     H7 2027   7.523   3.754   0.983 -0.1754 -3.0461  0.3126
   11MOL     H8 2028   7.356   3.943   0.961  0.2001  1.0459 -0.3296
   11MOL     H9 2029   0.005   3.931   1.174 -1.2745 -0.1412  0.8623
   11MOL    H10 2030   0.059   4.057   1.061 -1.7001  0.8656 -0.4642
   11MOL    H11 2031   7.488   3.750   1.155 -0.2796  1.2660  0.3258
   11MOL    C12 2032   7.305   3.987   1.153  0.4567  0.4913 -0.0057
   11MOL    C13 2033   7.333   4.011   1.307 -0.5429 -0.1967 -0.0940
   11MOL    C14 2034   7.370   3.875   1.379  0.4214  0.4897  0.3843
   11MOL    O15 2035   7.280   3.794   1.409 -0.1206  0.2266 -0.4627
   11MOL    N16 2036   7.493   3.866   1.420  0.4271  0.2801  0.2139
   11MOL    H17 2037   7.221   3.918   1.138  1.3308 -0.2218 -1.8755
   11MOL    H18 2038   7.256   4.073   1.107  0.6792  0.2883 -0.6350
   11MOL    H19 2039   7.417   4.078   1.322  0.4370 -1.4470  0.0800
   11MOL    H20 2040   7.560   3.942   1.418  1.7375 -0.8880 -2.2225
   11MOL    H21 2041   7.528   3.788   1.473 -0.5022 -0.6373 -0.5190
   11MOL    C22 2042   7.212   4.082   1.373 -0.3888 -0.1628 -0.3041
   11MOL    C23 2043   7.146   4.204   1.301 -1.0050 -0.0551  0.3454
   11MOL    C24 2044   7.242   4.315   1.255 -0.1917 -0.1036  0.0294
   11MOL    O25 2045   7.301   4.395   1.330  0.3341 -0.1635  0.0551
   11MOL    N26 2046   7.242   4.343   1.129  0.2391  0.2020 -0.3592
   11MOL    H27 2047   7.239   4.110   1.475 -3.5885  0.4827  0.4284
   11MOL    H28 2048   7.135   4.007   1.394 -1.9322  0.5674 -3.1188
   11MOL    H29 2049   7.090   4.156   1.220 -1.9717  0.2577  0.8195
   11MOL    H30 2050   7.187   4.293   1.060 -2.2047  0.9626  0.9761
   11MOL    H31 2051   7.306   4.416   1.102  2.0094 -1.0928  0.2675
   11MOL    C32 2052   7.035   4.258   1.398  0.4443  0.7219  0.0561
   11MOL    C33 2053   6.928   4.343   1.316 -0.4322  0.3354 -0.0470
   11MOL    C34 2054   6.856   4.437   1.406  0.1137  0.3584  0.4623
   11MOL    O35 2055   6.748   4.404   1.466 -0.6221 -0.1615 -0.0269
   11MOL    N36 2056   6.901   4.560   1.415 -1.1157 -0.1188 -0.3240
   11MOL    H37 2057   7.083   4.305   1.483 -0.7343  0.7214  0.7342
   11MOL    H38 2058   6.975   4.177   1.440 -1.4162  0.9876 -1.9709
   11MOL    H39 2059   6.982   4.403   1.242  0.0239  0.1454  0.1292
   11MOL    H40 2060   6.975   4.609   1.367 -1.7521  1.2609  0.0760
   11MOL    H41 2061   6.846   4.622   1.472  0.2451  0.2148  0.6339
   11MOL    C42 2062   6.828   4.259   1.223 -0.6524  0.1525 -0.7859
   11MOL    C43 2063   6.708   4.328   1.151 -0.2417 -1.2321  0.1797
   11MOL    C44 2064   6.571   4.258   1.165  0.1027  0.3867 -0.7328
   11MOL    O45 2065   6.498   4.212   1.075  0.9805 -0.4730 -0.2109
   11MOL    N46 2066   6.544   4.239   1.293  0.1112 -0.1523  0.1881
   11MOL    H47 2067   6.786   4.185   1.292 -1.3997  0.8531 -0.4816
   11MOL    H48 2068   6.887   4.199   1.154  0.1251  0.3003 -0.2575
   11MOL    H49 2069   6.681   4.419   1.204  1.2574 -0.0537 -1.0615
   11MOL    H50 2070   6.453   4.210   1.326  0.7354 -1.3271  0.9252
   11MOL    H51 2071   6.609   4.272   1.362  1.3043  3.2015 -2.4434
   11MOL    C52 2072   6.750   4.361   1.004 -0.4704  0.2209  0.0947
   11MOL    C53 2073   6.819   4.504   0.988 -0.2535 -1.0457 -0.4908
   11MOL    C54 2074   6.747   4.593   0.892  0.2645 -0.1151 -0.2023
   11MOL    O55 2075   6.790   4.621   0.780 -0.4089  0.1207  0.5851
   11MOL    N56 2076   6.636   4.646   0.940  0.4172 -0.2467  0.3473
   11MOL    H57 2077   6.671   4.364   0.930 -0.2871 -0.7368 -0.1563
   11MOL    H58 2078   6.817   4.289   0.955  0.6753  2.2551 -1.4053
   11MOL    H59 2079   6.819   4.540   1.091 -1.3302  0.5573 -1.0494
   11MOL    H60 2080   6.567   4.688   0.880  0.1792 -0.8090  0.2313
   11MOL    H61 2081   6.618   4.637   1.039  1.2133 -2.6793  0.3029
   11MOL    C62 2082   6.965   4.488   0.932 -0.5520 -0.8966 -0.5033
   11MOL    C63 2083   7.060   4.619   0.945  0.3412 -0.3214 -0.1393
   11MOL    C64 2084   7.178   4.600   0.846 -0.8233 -0.6292 -0.8230
   11MOL    O65 2085   7.271   4.533   0.881 -0.4955  0.1396  0.4066
   11MOL    N66 2086   7.179   4.660   0.727 -0.0236  0.4438  0.2376
   11MOL    H67 2087   6.950   4.449   0.831 -0.8872 -0.7885 -0.4978
   11MOL    H68 2088   7.015   4.416   0.995  1.9169  2.6992  1.8602
   11MOL    H69 2089   7.006   4.707   0.909 -1.7011 -0.6885  1.9514
   11MOL    H70 2090   7.262   4.658   0.670  0.6776  0.4869  1.2359
   11MOL    H71 2091   7.100   4.718   0.703  0.0145  0.5047  0.2585
   11MOL    C72 2092   7.110   4.653   1.093  0.8774  0.1410 -0.7380
   11MOL    C73 2093   7.053   4.785   1.156  0.0830 -0.3153 -0.7651
   11MOL    C74 2094   7.132   4.815   1.280 -0.4135  0.3455  0.6579
   11MOL    O75 2095   7.136   4.737   1.371  0.3829 -0.3742  0.7539
   11MOL    N76 2096   7.200   4.929   1.286 -0.1162 -0.2949 -0.1786
   11MOL    H77 2097   7.217   4.671   1.084  1.3354 -2.5129 -1.2414
   11MOL    H78 2098   7.103   4.565   1.157 -0.4086  0.2312 -0.7378
   11MOL    H79 2099   7.070   4.858   1.077 -1.2109 -0.9676 -1.6574
   11MOL    H80 2100   7.256   4.950   1.368 -0.7712  1.7179 -0.2099
   11MOL    H81 2101   7.232   4.986   1.210 -0.5406 -0.9627 -0.8655
   11MOL    C82 2102   6.897   4.787   1.175 -0.4228 -0.5512 -0.3717
   11MOL    C83 2103   6.834   4.915   1.233  0.1468  0.2645 -0.3516
   11MOL    C84 2104   6.761   4.875   1.363  0.5180 -0.3060  0.0582
   11MOL    O85 2105   6.664   4.791   1.368 -0.0093 -0.0164  0.0927
   11MOL    N86 2106   6.795   4.943   1.472  0.7451 -0.5044 -0.1511
   11MOL    H87 2107   6.853   4.700   1.223 -1.5439  0.5281  0.6012
   11MOL    H88 2108   6.852   4.776   1.076 -2.0240  1.3033  0.1173
   11MOL    H89 2109   6.915   4.983   1.257 -0.6201  1.5851 -1.4173
   11MOL    H90 2110   6.735   4.941   1.554  1.1240 -0.1202  0.1393
   11MOL    H91 2111   6.856   5.022   1.457 -0.1674  0.0631 -0.9752
   11MOL    C92 2112   6.731   4.977   1.136 -0.1549 -0.4574 -0.3909
   11MOL    C93 2113   6.785   5.038   1.005 -0.8251  0.1204 -0.2438
   11MOL    C94 2114   6.888   5.144   1.032  0.4573 -0.1000  0.1321
   11MOL    O95 2115   6.876   5.224   1.124 -0.1874  0.7064 -0.4447
   11MOL    N96 2116   7.002   5.143   0.965  0.0286  0.4885  0.0566
   11MOL    H97 2117   6.688   5.055   1.199 -0.2837 -2.4622  2.0806
   11MOL    H98 2118   6.649   4.908   1.116  0.0157 -0.4423 -1.1487
   11MOL    H99 2119   6.838   4.950   0.969 -0.6697 -1.0510  2.7066
   11MOL   H100 2120   7.000   5.095   0.876 -0.0890  1.2340 -0.3531
   11MOL   H101 2121   7.070   5.218   0.970 -0.0628  0.7269 -1.8135
   11MOL   C102 2122   6.673   5.090   0.907 -0.3771  0.1033  0.3486
   11MOL   C103 2123   6.670   4.999   0.775  0.1118  0.6467 -0.1586
   11MOL   C104 2124   6.801   5.001   0.700  0.0545  0.5717  0.0418
   11MOL   O105 2125   6.867   5.107   0.681 -0.1909  0.4393 -0.2150
   11MOL   N106 2126   6.854   4.882   0.676 -0.5561 -0.0897  0.1945
   11MOL   H107 2127   6.689   5.195   0.882  1.5463 -0.1903  0.2418
   11MOL   H108 2128   6.575   5.081   0.952 -0.1030 -0.3421  0.8728
   11MOL   H109 2129   6.660   4.894   0.805 -0.6376  0.8835  0.4336
   11MOL   H110 2130   6.942   4.885   0.627  0.0301  1.9071  1.3160
   11MOL   H111 2131   6.818   4.801   0.723  0.6134  0.1992  1.6211
   11MOL   C112 2132   6.554   5.050   0.687  0.2903 -0.3876  0.0747
   11MOL   C113 2133   6.405   5.014   0.723  0.7264  0.1979 -0.2213
   11MOL   C114 2134   6.385   4.859   0.741 -0.4521  0.2954  0.0817
   11MOL   O115 2135   6.401   4.798   0.847 -0.3860 -0.1525 -0.2307
   11MOL   N116 2136   6.357   4.793   0.623  0.6439  0.5226  0.1154
   11MOL   H117 2137   6.573   5.035   0.580  1.0109 -1.0855  0.3006
   11MOL   H118 2138   6.560   5.157   0.703 -2.9786 -0.2915  0.9766
   11MOL   H119 2139   6.381   5.044   0.826  0.1383  2.2219 -0.9209
   11MOL   H120 2140   6.350   4.693   0.618  1.6940  0.4687 -0.4518
   11MOL   H121 2141   6.332   4.855   0.547 -1.3500  1.4241  1.4709
   11MOL   C122 2142   6.309   5.086   0.622  0.5566  0.4061 -0.3689
   11MOL   C123 2143   6.179   5.132   0.688 -0.5053  0.5475 -0.1374
   11MOL   C124 2144   6.089   5.013   0.714 -0.6796  0.3661 -0.8345
   11MOL   O125 2145   6.064   4.932   0.623  0.1576  0.0025 -0.2696
   11MOL   N126 2146   6.025   5.011   0.834  0.0374 -0.0780  0.7145
   11MOL   H127 2147   6.288   5.017   0.541  0.8223 -0.5176  0.3500
   11MOL   H128 2148   6.354   5.176   0.580 -1.6932  1.9555  0.4610
   11MOL   H129 2149   6.199   5.161   0.791  3.3136 -1.3096 -0.2785
   11MOL   H130 2150   6.038   5.076   0.910  0.0811  0.1162  0.5429
   11MOL   H131 2151   5.945   4.950   0.844  1.3434 -1.8512  0.3998
   11MOL   C132 2152   6.119   5.246   0.605  0.0351  0.1454 -0.6617
   11MOL   C133 2153   6.172   5.375   0.673  0.5961 -0.4747 -0.1829
   11MOL   C134 2154   6.087   5.418   0.791 -0.5285  0.4711 -0.2717
   11MOL   O135 2155   6.000   5.344   0.836 -0.0586  1.0257  0.2260
   11MOL   N136 2156   6.118   5.536   0.851 -0.2695 -0.3235  0.0712
   11MOL   H137 2157   6.010   5.243   0.607  0.0615 -3.1075 -2.3195
   11MOL   H138 2158   6.145   5.237   0.499 -0.9885 -0.6671 -0.8462
   11MOL   H139 2159   6.274   5.356   0.705  0.7536 -0.1502 -0.4828
   11MOL   H140 2160   6.067   5.571   0.930 -0.0204 -0.3915  0.2621
   11MOL   H141 2161   6.183   5.600   0.807 -0.0999  0.9132  2.0432
   11MOL   C142 2162   6.181   5.486   0.565 -0.1992  0.5401  0.0955
   11MOL   C143 2163   6.305   5.482   0.469 -0.0526 -0.3563  0.1338
   11MOL   C144 2164   6.435   5.504   0.550 -0.1463  0.0915 -0.6403
   11MOL   O145 2165   6.447   5.605   0.613  0.5733  0.0385  0.0399
   11MOL   N146 2166   6.519   5.403   0.569 -0.4204 -0.2755 -0.1201
   11MOL   H147 2167   6.186   5.588   0.602 -1.1071  0.3422  0.7783
   11MOL   H148 2168   6.086   5.481   0.513 -2.4418  1.5244  3.8973
   11MOL   H149 2169   6.303   5.374   0.453 -0.7684  0.0909 -3.0939
   11MOL   H150 2170   6.514   5.316   0.518 -1.8603  0.3007 -0.9989
   11MOL   H151 2171   6.583   5.415   0.646  1.5281 -3.7868 -1.1034
   11MOL   C152 2172   6.279   5.568   0.337 -0.2220 -0.2343  0.0603
   11MOL   C153 2173   6.401   5.617   0.256  0.2821  0.0625 -0.1496
   11MOL   C154 2174   6.459   5.752   0.311  0.0573  0.2628 -0.2878
   11MOL   O155 2175   6.382   5.846   0.343 -0.0231  0.2938  0.1244
   11MOL   N156 2176   6.587   5.772   0.322  0.2432 -0.0993  0.0905
   11MOL   H157 2177   6.216   5.648   0.375  0.4991  1.1087 -1.4926
   11MOL   H158 2178   6.210   5.508   0.277 -1.5230 -0.0597  1.3693
   11MOL   H159 2179   6.479   5.541   0.248  0.4228  0.2400 -0.4809
   11MOL   H160 2180   6.617   5.863   0.356 -1.3429  2.0340 -3.7656
   11MOL   H161 2181   6.649   5.700   0.288 -0.0520  0.4435 -1.6550
   11MOL   C162 2182   6.352   5.636   0.111  0.0126 -0.0296  0.3256
   11MOL   C163 2183   6.454   5.664   0.000 -0.2686 -0.0047  1.1627
   11MOL   C164 2184   6.379   5.675   7.527 -0.0705  0.4357  0.0016
   11MOL   O165 2185   6.325   5.581   7.467  0.3431  0.8892  0.2349
   11MOL   N166 2186   6.381   5.797   7.469 -0.6837  0.0607 -0.2310
   11MOL   H167 2187   6.267   5.704   0.104 -0.8032 -1.1156 -0.4034
   11MOL   H168 2188   6.306   5.542   0.082  1.4733 -0.8231  0.5330
   11MOL   H169 2189   6.503   5.759   0.022  0.9883 -0.6140  1.0572
   11MOL   H170 2190   6.339   5.813   7.379 -1.8183  0.5355  0.3623
   11MOL   H171 2191   6.416   5.872   7.527  0.3626 -0.5187 -0.1125
   11MOL   C172 2192   6.563   5.556   0.003 -0.2309  0.8447  0.3054
   11MOL   C173 2193   6.658   5.526   7.534 -0.3748 -0.4310  0.6009
   11MOL   C174 2194   6.708   5.377   7.548 -0.0090  0.6362 -0.5312
   11MOL   O175 2195   6.735   5.308   7.447  0.2695  0.0583 -0.0337
   11MOL   N176 2196   6.733   5.327   0.012 -0.2396 -0.3149 -0.2903
   11MOL   H177 2197   6.509   5.463   0.022 -1.8846  2.1254  2.0247
   11MOL   H178 2198   6.623   5.579   0.090  0.2113  2.7473 -0.4939
   11MOL   H179 2199   6.606   5.532   7.439  1.9524  2.0805 -0.5622
   11MOL   H180 2200   6.743   5.227   0.022  1.1671 -0.2149 -0.6083
   11MOL   H181 2201   6.720   5.379   0.097 -1.1687  1.1169 -1.2827
   11MOL   C182 2202   6.767   5.631   7.519 -0.0113  0.2980  0.5260
   11MOL   C183 2203   6.805   5.636   7.376 -0.1843  0.3122 -0.6626
   11MOL   C184 2204   6.958   5.649   7.371  0.2773  0.2577  0.5037
   11MOL   O185 2205   7.018   5.745   7.425  0.6430 -0.0189  0.3850
   11MOL   N186 2206   7.024   5.552   7.311 -0.1676  0.0403  0.6056
   11MOL   H187 2207   6.849   5.613   7.588  0.1577  1.7370  0.7244
   11MOL   H188 2208   6.720   5.728   7.539 -0.7740  0.0820 -0.2279
   11MOL   H189 2209   6.800   5.542   7.320  1.1918 -1.4421  2.0325
   11MOL   H190 2210   6.968   5.489   7.255 -0.4508  0.8262  0.0127
   11MOL   H191 2211   7.121   5.562   7.289 -0.1662  0.4037  0.7809
   11MOL   C192 2212   6.740   5.738   7.287  0.1599 -0.2369  0.4449
   11MOL   C193 2213   6.609   5.695   7.218 -0.2020  0.7616  0.0983
   11MOL   C194 2214   6.578   5.771   7.091  0.4002  0.3303  0.4345
   11MOL   O195 2215   6.666   5.766   7.000  0.6072  0.0019  0.0482
   11MOL   N196 2216   6.453   5.813   7.062 -0.0440 -0.3259  0.0985
   11MOL   H197 2217   6.802   5.768   7.203 -1.9179 -2.3844 -1.9328
   11MOL   H198 2218   6.727   5.830   7.345 -4.6979 -0.2706 -0.3332
   11MOL   H199 2219   6.616   5.591   7.187  1.3608  0.5691  1.0314
   11MOL   H200 2220   6.435   5.835   6.965 -0.6921  0.2264  0.3433
   11MOL   H201 2221   6.372   5.821   7.122 -0.7395  3.1533 -1.1952
   11MOL   H202 2222   6.520   5.693   7.281 -0.9180 -1.3292 -0.9252
   12MOL     C1 2223   4.661   4.769   3.294 -0.3531 -0.0788 -0.2272
   12MOL     C2 2224   4.514   4.753   3.342 -0.1130  0.0745  0.2223
   12MOL     C3 2225   4.479   4.856   3.443  0.3828  0.0302  0.6970
   12MOL     O4 2226   4.551   4.874   3.541 -0.0259 -0.1114 -0.1855
   12MOL     N5 2227   4.371   4.927   3.423  0.7406  0.0096  0.1822
   12MOL     H6 2228   4.676   4.876   3.277 -0.3946 -0.0191  0.1133
   12MOL     H7 2229   4.730   4.747   3.376 -0.5461  0.1627  0.0007
   12MOL     H8 2230   4.445   4.768   3.259 -0.3229 -0.3984  0.3111
   12MOL     H9 2231   4.312   4.906   3.343  0.3179 -1.2614  0.8172
   12MOL    H10 2232   4.341   4.995   3.490  1.6079  2.3894 -1.7581
   12MOL    H11 2233   4.697   4.704   3.214  2.7296  1.2536 -0.0330
   12MOL    C12 2234   4.478   4.622   3.405 -0.9472  0.0705 -1.1032
   12MOL    C13 2235   4.445   4.516   3.298 -0.3337  0.8604  0.1385
   12MOL    C14 2236   4.292   4.497   3.281 -0.0656 -0.5007 -0.0898
   12MOL    O15 2237   4.220   4.445   3.367  0.5420 -0.2094 -0.3004
   12MOL    N16 2238   4.250   4.523   3.155 -0.0804  0.3070 -0.3188
   12MOL    H17 2239   4.399   4.634   3.479  1.0270  1.1306  0.8992
   12MOL    H18 2240   4.569   4.595   3.458 -0.7267  2.9414  0.0755
   12MOL    H19 2241   4.495   4.532   3.203  0.4632  0.2934  0.4546
   12MOL    H20 2242   4.309   4.561   3.082 -0.9520  2.6524  0.1563
   12MOL    H21 2243   4.154   4.509   3.127 -0.0508  1.7196 -1.1698
   12MOL    C22 2244   4.506   4.384   3.356 -0.2104  0.0462  0.5911
   12MOL    C23 2245   4.658   4.364   3.336 -0.0672 -0.2794  0.2066
   12MOL    C24 2246   4.691   4.249   3.242 -0.2925  0.3161  0.1506
   12MOL    O25 2247   4.676   4.137   3.280  0.0289  0.0504  0.1395
   12MOL    N26 2248   4.735   4.276   3.121  0.3786 -0.2802  0.3651
   12MOL    H27 2249   4.452   4.299   3.314 -2.7021  1.8769 -0.0531
   12MOL    H28 2250   4.485   4.374   3.462  0.9117  1.2394  0.9389
   12MOL    H29 2251   4.698   4.462   3.310 -2.6087  0.6144 -0.4411
   12MOL    H30 2252   4.760   4.370   3.091  0.7056 -1.1641 -2.3176
   12MOL    H31 2253   4.763   4.194   3.069  1.1300  0.8690 -1.1096
   12MOL    C32 2254   4.720   4.341   3.480 -0.5661  0.5698 -0.4530
   12MOL    C33 2255   4.867   4.317   3.511 -0.1443 -0.4733  0.3121
   12MOL    C34 2256   4.956   4.401   3.424  1.0847 -0.0087 -0.3612
   12MOL    O35 2257   5.018   4.353   3.334 -0.2954 -0.4585 -0.0048
   12MOL    N36 2258   4.959   4.536   3.444 -0.3200  0.2804 -0.6989
   12MOL    H37 2259   4.670   4.260   3.533  0.1681  1.2106  1.2739
   12MOL    H38 2260   4.696   4.433   3.534  2.1480  1.4819 -0.6941
   12MOL    H39 2261   4.886   4.355   3.612  1.8993  2.1041 -1.0071
   12MOL    H40 2262   5.027   4.589   3.391  0.6718  0.7182  0.9929
   12MOL    H41 2263   4.921   4.578   3.528 -0.1572 -1.2874  0.1778
   12MOL    C42 2264   4.911   4.174   3.525  0.0994  0.1738  0.1090
   12MOL    C43 2265   4.897   4.107   3.661  0.0585  0.0264 -0.3630
   12MOL    C44 2266   4.747   4.100   3.707 -0.0443 -0.2319 -0.6403
   12MOL    O45 2267   4.699   4.175   3.794 -0.1613  0.3776  0.3960
   12MOL    N46 2268   4.670   4.006   3.646 -0.2488 -0.6602 -0.0163
   12MOL    H47 2269   5.016   4.165   3.499 -0.3932  1.0384 -2.3167
   12MOL    H48 2270   4.863   4.124   3.441 -0.1692 -0.4372  0.6221
   12MOL    H49 2271   4.910   4.000   3.640  1.3761  0.3868 -1.4470
   12MOL    H50 2272   4.707   3.952   3.570  0.4159 -0.1594 -0.0652
   12MOL    H51 2273   4.576   3.996   3.682 -0.4823  0.8277 -0.1703
   12MOL    C52 2274   4.981   4.174   3.775  0.1010  0.0461 -0.2906
   12MOL    C53 2275   5.023   4.088   3.890  0.0113  1.1745 -0.0383
   12MOL    C54 2276   5.064   4.171   4.006  0.1493  0.0175  0.1309
   12MOL    O55 2277   5.184   4.187   4.038 -0.0769  0.2412 -0.4391
   12MOL    N56 2278   4.968   4.232   4.070 -0.3213  0.6918 -0.1950
   12MOL    H57 2279   4.935   4.267   3.809 -1.3009  0.2374 -2.5440
   12MOL    H58 2280   5.072   4.215   3.732 -0.4901  1.4271 -0.2491
   12MOL    H59 2281   4.949   4.020   3.932  0.2776 -0.1403 -1.6590
   12MOL    H60 2282   4.870   4.216   4.050 -0.5222 -1.2772  2.2271
   12MOL    H61 2283   4.988   4.308   4.133  0.8086 -0.9981  1.5198
   12MOL    C62 2284   5.123   3.969   3.859  0.1826 -0.2903  0.6148
   12MOL    C63 2285   5.260   4.003   3.797 -0.1024 -0.2577 -0.3121
   12MOL    C64 2286   5.252   3.984   3.644 -0.0404  0.0727 -0.0536
   12MOL    O65 2287   5.232   3.875   3.591 -0.3922 -0.6731 -0.0625
   12MOL    N66 2288   5.271   4.088   3.563  0.1658  0.3632 -0.1401
   12MOL    H67 2289   5.077   3.889   3.802  0.6199 -0.2755  0.2398
   12MOL    H68 2290   5.132   3.913   3.953  3.3427 -1.8186 -0.5133
   12MOL    H69 2291   5.293   4.103   3.822  0.5858  0.0000 -2.1814
   12MOL    H70 2292   5.284   4.181   3.601 -2.6084  0.0897  1.6369
   12MOL    H71 2293   5.257   4.073   3.464  1.3258 -0.1100 -0.2323
   12MOL    C72 2294   5.381   3.917   3.856  1.0302  0.1360  0.0001
   12MOL    C73 2295   5.408   3.925   4.009  0.3110  0.4698  0.6205
   12MOL    C74 2296   5.511   4.035   4.041 -0.4457 -0.0262  0.3086
   12MOL    O75 2297   5.630   4.018   4.030  0.1473 -0.5187 -0.6313
   12MOL    N76 2298   5.474   4.152   4.092  0.6037 -0.8696  0.3488
   12MOL    H77 2299   5.466   3.954   3.799  0.5262  1.4535  0.0689
   12MOL    H78 2300   5.359   3.815   3.825 -2.3510 -0.5193  4.0049
   12MOL    H79 2301   5.317   3.947   4.065  1.2485  2.4041  1.4268
   12MOL    H80 2302   5.538   4.226   4.116 -0.3766 -0.1210  0.7093
   12MOL    H81 2303   5.375   4.171   4.082  0.8353  0.6566  0.8337
   12MOL    C82 2304   5.445   3.781   4.049  0.2544 -0.1033  0.8145
   12MOL    C83 2305   5.463   3.753   4.194  0.4995  0.2642 -0.6801
   12MOL    C84 2306   5.598   3.708   4.245  0.5685 -0.7016  0.2597
   12MOL    O85 2307   5.661   3.617   4.199  0.0286  0.0334 -0.0089
   12MOL    N86 2308   5.646   3.766   4.353 -0.2716 -0.2724 -0.1183
   12MOL    H87 2309   5.537   3.753   3.998 -0.7713 -0.3439 -0.9702
   12MOL    H88 2310   5.357   3.722   4.020  0.8805  0.2468 -1.9699
   12MOL    H89 2311   5.436   3.849   4.240  1.9724  0.6564 -0.6129
   12MOL    H90 2312   5.584   3.827   4.403 -0.1885 -0.0166 -0.3277
   12MOL    H91 2313   5.727   3.727   4.398  0.3912 -0.6208 -1.5603
   12MOL    C92 2314   5.355   3.659   4.252  1.1626 -1.2696 -0.0973
   12MOL    C93 2315   5.342   3.517   4.195 -0.6635  0.2088 -0.1544
   12MOL    C94 2316   5.236   3.496   4.085  1.2843  0.1176  0.3457
   12MOL    O95 2317   5.113   3.491   4.110 -0.5325  0.4575 -0.7695
   12MOL    N96 2318   5.271   3.481   3.962  0.7946 -0.2165 -0.0091
   12MOL    H97 2319   5.262   3.717   4.246  1.0173 -1.6735 -2.2207
   12MOL    H98 2320   5.380   3.645   4.357  1.2063  1.1364  0.2416
   12MOL    H99 2321   5.441   3.496   4.155  0.2924  3.2529  0.4816
   12MOL   H100 2322   5.363   3.516   3.940  0.9061  0.9247  2.1507
   12MOL   H101 2323   5.204   3.458   3.890 -0.1306 -2.4909  1.5116
   12MOL   C102 2324   5.327   3.405   4.308  0.9562 -0.1025  0.1385
   12MOL   C103 2325   5.346   3.253   4.272  0.3021 -0.1187 -0.2432
   12MOL   C104 2326   5.284   3.161   4.376 -0.5304  0.7714 -0.9853
   12MOL   O105 2327   5.314   3.178   4.497 -0.1277 -0.2505 -0.0051
   12MOL   N106 2328   5.186   3.087   4.341  0.1335  0.6169  0.2076
   12MOL   H107 2329   5.231   3.419   4.358  1.6903  1.2040  1.2131
   12MOL   H108 2330   5.395   3.439   4.386  2.5278 -0.3256 -1.0938
   12MOL   H109 2331   5.302   3.233   4.174  0.5069 -3.6381  0.3243
   12MOL   H110 2332   5.148   3.032   4.417  1.5420  0.3836  0.7592
   12MOL   H111 2333   5.151   3.082   4.246 -2.3000  1.3931  1.0179
   12MOL   C112 2334   5.493   3.218   4.247 -0.7074  0.3930  0.1769
   12MOL   C113 2335   5.501   3.081   4.180 -0.2448  1.1588 -0.5869
   12MOL   C114 2336   5.637   3.013   4.211  0.3550 -0.7745 -0.2411
   12MOL   O115 2337   5.712   2.989   4.118 -0.2432 -0.1786 -0.2076
   12MOL   N116 2338   5.676   2.990   4.334  0.0621  0.4627 -0.1976
   12MOL   H117 2339   5.548   3.246   4.337  0.8533 -0.6022 -0.4597
   12MOL   H118 2340   5.529   3.279   4.165  0.7473 -0.2867  0.2969
   12MOL   H119 2341   5.438   3.007   4.230  0.3319  2.0845  1.5697
   12MOL   H120 2342   5.622   3.004   4.418 -0.4278 -1.6123 -0.1427
   12MOL   H121 2343   5.765   2.944   4.340 -0.5455 -0.5244  1.7848
   12MOL   C122 2344   5.447   3.081   4.039  0.3315 -0.2536 -0.4856
   12MOL   C123 2345   5.331   2.979   4.023 -0.5736 -0.6472  0.5026
   12MOL   C124 2346   5.382   2.835   4.013  0.3584 -0.2716 -0.6148
   12MOL   O125 2347   5.492   2.807   3.970  0.1402  0.4871  0.1072
   12MOL   N126 2348   5.315   2.736   4.076  0.1957  0.1385  0.0638
   12MOL   H127 2349   5.526   3.060   3.966  0.4950 -3.1380  0.4593
   12MOL   H128 2350   5.425   3.185   4.015 -3.1583 -0.0014  3.2389
   12MOL   H129 2351   5.270   2.995   4.112 -0.7704 -0.5121  0.3439
   12MOL   H130 2352   5.216   2.755   4.085  0.3398  2.7328 -2.9366
   12MOL   H131 2353   5.359   2.645   4.070  0.0780  0.1063 -0.3701
   12MOL   C132 2354   5.235   3.020   3.911  0.1662  0.1091 -0.6319
   12MOL   C133 2355   5.106   2.945   3.881 -0.1653 -0.2024  0.4249
   12MOL   C134 2356   5.021   2.911   4.010  0.5507 -0.1668  0.0209
   12MOL   O135 2357   5.048   2.813   4.082 -0.4175 -0.1044  0.1587
   12MOL   N136 2358   4.919   2.986   4.040  0.1571  0.0481  0.6112
   12MOL   H137 2359   5.301   3.027   3.824 -2.1511  1.9476 -2.2964
   12MOL   H138 2360   5.214   3.127   3.921  0.5357  0.0234  1.1908
   12MOL   H139 2361   5.039   3.008   3.822  0.7831 -0.3403 -0.8256
   12MOL   H140 2362   4.897   3.058   3.972 -2.2046 -0.0286  1.2548
   12MOL   H141 2363   4.856   2.964   4.116 -1.5076 -0.5869 -0.9009
   12MOL   C142 2364   5.125   2.820   3.790  0.0221 -0.5099  0.5816
   12MOL   C143 2365   5.052   2.810   3.653 -0.4399  0.1989  0.1825
   12MOL   C144 2366   5.100   2.926   3.565 -0.8449  0.2064 -0.2474
   12MOL   O145 2367   5.039   3.036   3.547  0.0739 -0.1521 -0.1980
   12MOL   N146 2368   5.208   2.900   3.491 -0.7131  0.3170 -0.4100
   12MOL   H147 2369   5.094   2.728   3.840  0.6662 -0.0502  1.8397
   12MOL   H148 2370   5.230   2.797   3.774  0.2920  0.3867  1.0688
   12MOL   H149 2371   5.081   2.719   3.601  2.4995 -0.8782  3.5145
   12MOL   H150 2372   5.218   2.952   3.405  1.5675  0.9709  0.2222
   12MOL   H151 2373   5.267   2.818   3.493  0.2541  1.0165  0.5301
   12MOL   C152 2374   4.894   2.816   3.669 -0.0098 -0.3626 -0.6232
   12MOL   C153 2375   4.822   2.681   3.715  0.4850  0.3030 -0.4483
   12MOL   C154 2376   4.802   2.585   3.598  0.5075 -0.4404 -0.3348
   12MOL   O155 2377   4.782   2.618   3.481  0.1525  0.2681  0.4867
   12MOL   N156 2378   4.810   2.459   3.642 -0.7592  0.0013 -0.0546
   12MOL   H157 2379   4.852   2.837   3.571  0.5409 -0.7678 -0.9447
   12MOL   H158 2380   4.855   2.894   3.734  2.5276  0.1127  0.3585
   12MOL   H159 2381   4.896   2.639   3.783  2.0054 -0.6050 -2.6388
   12MOL   H160 2382   4.816   2.388   3.572 -1.0881  0.1772 -0.2608
   12MOL   H161 2383   4.830   2.448   3.741  0.3398 -1.3458 -0.4251
   12MOL   C162 2384   4.686   2.722   3.783  0.1306 -0.3222  1.0713
   12MOL   C163 2385   4.561   2.759   3.689 -0.7810  0.0769  0.8563
   12MOL   C164 2386   4.480   2.865   3.762  0.1783 -0.5585 -0.8249
   12MOL   O165 2387   4.439   2.851   3.877  0.1664  0.8669  0.0266
   12MOL   N166 2388   4.442   2.966   3.681  0.3784  0.4855  0.1039
   12MOL   H167 2389   4.702   2.805   3.851 -0.1248  0.8137 -0.2220
   12MOL   H168 2390   4.646   2.641   3.844 -0.2928 -1.0210 -0.1054
   12MOL   H169 2391   4.596   2.803   3.595 -0.0006 -0.5292  0.8570
   12MOL   H170 2392   4.410   3.048   3.731 -0.9582  0.0907 -0.0744
   12MOL   H171 2393   4.458   2.960   3.581  0.4380  0.1700  0.1328
   12MOL   C172 2394   4.477   2.634   3.654  0.6595  0.1356  1.1407
   12MOL   C173 2395   4.359   2.643   3.556 -0.0909  0.1949 -0.4018
   12MOL   C174 2396   4.398   2.680   3.413 -0.3506 -0.5678  0.0094
   12MOL   O175 2397   4.372   2.798   3.371 -0.2711 -0.1939 -0.6223
   12MOL   N176 2398   4.443   2.588   3.329  0.5251 -0.6946 -0.7220
   12MOL   H177 2399   4.446   2.567   3.734 -0.8968  1.2589  1.4902
   12MOL   H178 2400   4.546   2.563   3.606 -0.1078  0.2288 -0.1266
   12MOL   H179 2401   4.336   2.536   3.555  0.3899  0.0530  1.7216
   12MOL   H180 2402   4.452   2.603   3.230  2.0612  2.1863 -0.1873
   12MOL   H181 2403   4.450   2.491   3.360 -1.2564 -0.0025  2.0313
   12MOL   C182 2404   4.219   2.702   3.611 -0.3112  0.6150  0.7572
   12MOL   C183 2405   4.102   2.600   3.596 -0.0279  0.2874 -0.9201
   12MOL   C184 2406   4.103   2.493   3.706 -0.3975 -0.2419  0.4755
   12MOL   O185 2407   4.211   2.458   3.751  0.1061 -0.0052 -0.0531
   12MOL   N186 2408   3.982   2.442   3.744 -0.3980 -0.1663 -0.1639
   12MOL   H187 2409   4.204   2.788   3.544  0.7061  1.6598  1.8505
   12MOL   H188 2410   4.219   2.751   3.708 -0.5390  0.4912  0.8197
   12MOL   H189 2411   4.015   2.652   3.636 -0.0635 -0.2805 -0.2505
   12MOL   H190 2412   3.901   2.487   3.706 -1.2294  0.1765  1.9404
   12MOL   H191 2413   3.965   2.383   3.824 -1.2270 -1.6767 -1.4199
   12MOL   C192 2414   4.074   2.547   3.453 -0.1023 -0.0713 -0.7957
   12MOL   C193 2415   3.929   2.497   3.421 -1.0257  0.0592  0.1939
   12MOL   C194 2416   3.820   2.601   3.432 -0.4312  0.4322  0.1164
   12MOL   O195 2417   3.831   2.710   3.375  0.3671 -0.6844 -0.1370
   12MOL   N196 2418   3.706   2.571   3.495 -0.3475  0.3622  0.4565
   12MOL   H197 2419   4.144   2.469   3.425  1.7578  0.7852  1.3804
   12MOL   H198 2420   4.100   2.624   3.379  0.3841  0.6486  0.1190
   12MOL   H199 2421   3.921   2.456   3.320 -2.0074 -2.3442  1.2075
   12MOL   H200 2422   3.696   2.486   3.548 -0.1814  1.7330  2.7521
   12MOL   H201 2423   3.641   2.648   3.490  0.6886  1.2347  0.2585
   12MOL   H202 2424   3.914   2.414   3.490  0.9643 -1.1752 -0.8402
   13MOL     C1 2425   5.046   2.382   0.633  1.1779  0.8674 -0.6036
   13MOL     C2 2426   5.079   2.468   0.506  0.1772 -0.1634  0.8921
   13MOL     C3 2427   5.199   2.565   0.532  0.4375 -0.1998  0.2042
   13MOL     O4 2428   5.182   2.688   0.553  0.1248  0.3831 -0.2416
   13MOL     N5 2429   5.316   2.506   0.555  0.0063 -0.3403 -0.3099
   13MOL     H6 2430   5.020   2.437   0.723 -0.1531  0.4434 -0.7166
   13MOL     H7 2431   4.964   2.311   0.619  0.9417  0.7362  1.3377
   13MOL     H8 2432   5.108   2.388   0.438 -0.0296 -1.8563  2.7276
   13MOL     H9 2433   5.400   2.550   0.591  1.3168 -1.4831 -1.8568
   13MOL    H10 2434   5.328   2.407   0.542  0.2243 -0.2321 -0.9888
   13MOL    H11 2435   5.139   2.333   0.663  0.4373  0.3958  0.9676
   13MOL    C12 2436   4.950   2.545   0.457  0.1688  0.6654 -0.6494
   13MOL    C13 2437   4.913   2.524   0.309  0.1364 -0.2588 -0.3466
   13MOL    C14 2438   4.828   2.401   0.299  0.4249  0.2564 -0.0788
   13MOL    O15 2439   4.856   2.303   0.368  0.0996  0.1447 -0.1781
   13MOL    N16 2440   4.718   2.413   0.225  0.5293 -0.2989 -0.3480
   13MOL    H17 2441   4.950   2.653   0.470 -1.1859  0.7149 -1.0396
   13MOL    H18 2442   4.870   2.514   0.524  0.4181  0.4806 -0.4348
   13MOL    H19 2443   4.849   2.612   0.299  1.6874  0.7898 -1.2179
   13MOL    H20 2444   4.711   2.510   0.195 -0.4517  0.6438  2.7216
   13MOL    H21 2445   4.647   2.346   0.201  1.0956 -0.3559 -1.9767
   13MOL    C22 2446   5.027   2.542   0.198 -0.1557 -0.5573 -0.2384
   13MOL    C23 2447   5.002   2.497   0.049  0.3001  0.1845 -0.0730
   13MOL    C24 2448   5.125   2.434   7.650 -0.0665  0.5064 -0.3043
   13MOL    O25 2449   5.234   2.494   0.009 -0.4863  0.2613  0.1010
   13MOL    N26 2450   5.113   2.307   7.611 -0.4267  0.2329 -0.4519
   13MOL    H27 2451   5.115   2.489   0.235 -1.5714 -3.2475 -0.5334
   13MOL    H28 2452   5.056   2.647   0.198 -0.7152 -0.3558 -3.2741
   13MOL    H29 2453   4.929   2.416   0.056 -0.8314  1.3224  1.4300
   13MOL    H30 2454   5.186   2.253   7.568 -1.4602 -1.5988  0.0497
   13MOL    H31 2455   5.019   2.271   7.625 -0.2914  0.5755  1.5473
   13MOL    C32 2456   4.946   2.604   7.604  0.1170  0.2275 -0.3543
   13MOL    C33 2457   4.848   2.556   7.492  0.3114  0.1572  0.2136
   13MOL    C34 2458   4.730   2.485   7.553  0.5231  0.4687 -0.1619
   13MOL    O35 2459   4.720   2.361   7.542 -0.2828 -0.2254 -0.5901
   13MOL    N36 2460   4.643   2.553   7.630 -0.2050  0.3084 -0.2141
   13MOL    H37 2461   5.019   2.670   7.557  1.3533 -0.8338  0.0375
   13MOL    H38 2462   4.886   2.667   0.013  2.1281  1.3081  0.4913
   13MOL    H39 2463   4.804   2.643   7.443  0.7934  0.7002  0.7315
   13MOL    H40 2464   4.652   2.648   0.005 -1.7911 -0.1951  1.7850
   13MOL    H41 2465   4.552   2.511   7.637  0.1155 -0.9324 -2.6712
   13MOL    C42 2466   4.906   2.478   7.375 -0.0125 -0.1223  0.3885
   13MOL    C43 2467   4.973   2.542   7.252 -0.0784 -0.0748  0.1132
   13MOL    C44 2468   4.878   2.558   7.135  0.1411  0.1543 -0.1489
   13MOL    O45 2469   4.834   2.461   7.073 -0.0977 -0.2933 -0.4614
   13MOL    N46 2470   4.839   2.682   7.114 -0.2116  0.0356  0.0012
   13MOL    H47 2471   4.824   2.417   7.336 -0.5568  1.4832 -0.9910
   13MOL    H48 2472   4.980   2.410   7.418  0.5056 -0.0890 -0.4458
   13MOL    H49 2473   5.022   2.635   7.280  0.3474 -0.4327  0.5580
   13MOL    H50 2474   4.764   2.698   7.048 -0.9965  0.5058  0.9939
   13MOL    H51 2475   4.868   2.762   7.169 -0.9149 -0.9415  1.8334
   13MOL    C52 2476   5.093   2.464   7.210  0.1859  0.1055  0.5163
   13MOL    C53 2477   5.172   2.519   7.083  0.0203  0.1009 -0.0281
   13MOL    C54 2478   5.223   2.401   6.995  0.1768 -0.3226  0.2420
   13MOL    O55 2479   5.277   2.300   7.047 -0.2418 -0.1768  0.3144
   13MOL    N56 2480   5.209   2.408   6.860 -0.0942 -0.2926 -0.3080
   13MOL    H57 2481   5.059   2.363   7.187  1.8167 -0.3823  0.1646
   13MOL    H58 2482   5.161   2.448   7.294  0.5568  0.0535  0.2115
   13MOL    H59 2483   5.102   2.562   7.012 -1.7689  1.6493  2.5749
   13MOL    H60 2484   5.236   2.326   6.807 -1.7458 -0.0731 -1.5450
   13MOL    H61 2485   5.176   2.497   6.826 -1.7270 -0.8247 -0.1610
   13MOL    C62 2486   5.277   2.631   7.109 -0.5458  0.4735 -0.2800
   13MOL    C63 2487   5.394   2.593   7.210  0.4162  0.3919 -0.1315
   13MOL    C64 2488   5.345   2.611   7.347  0.0343  0.1153 -0.4650
   13MOL    O65 2489   5.280   2.711   7.373 -0.3060 -0.1809  0.3241
   13MOL    N66 2490   5.391   2.533   7.436 -0.3774  0.1763 -0.3679
   13MOL    H67 2491   5.219   2.713   7.150  2.9407  2.7863  0.3083
   13MOL    H68 2492   5.319   2.659   7.012  4.1866 -1.6094  1.0166
   13MOL    H69 2493   5.426   2.490   7.196  1.5800  0.6408  0.6305
   13MOL    H70 2494   5.354   2.543   7.529  1.2765 -0.4639  0.3861
   13MOL    H71 2495   5.464   2.470   7.406 -0.1300  1.0233 -1.5803
   13MOL    C72 2496   5.513   2.696   7.189  0.2557  0.7469  0.4490
   13MOL    C73 2497   5.606   2.675   7.062  0.2049 -0.3031  0.5231
   13MOL    C74 2498   5.713   2.571   7.092 -0.0067 -0.2210 -0.3800
   13MOL    O75 2499   5.802   2.593   7.176  0.6274 -0.0063  0.6419
   13MOL    N76 2500   5.717   2.460   7.017  0.6455 -0.0958  0.2187
   13MOL    H77 2501   5.572   2.711   7.279  1.8742  0.2365 -0.4938
   13MOL    H78 2502   5.472   2.796   7.181 -0.9939  0.3051  1.2214
   13MOL    H79 2503   5.549   2.646   6.974  1.0187  1.1226 -0.5012
   13MOL    H80 2504   5.761   2.370   7.030 -2.5232 -1.9075 -0.9047
   13MOL    H81 2505   5.660   2.462   6.933  1.8974  3.1988 -0.6249
   13MOL    C82 2506   5.687   2.796   7.020  0.4578  0.3057  0.4508
   13MOL    C83 2507   5.625   2.912   6.942  0.5774  0.4407 -0.3083
   13MOL    C84 2508   5.728   2.977   6.847 -0.3983 -0.4722  0.3557
   13MOL    O85 2509   5.800   2.912   6.769  0.3294 -0.2157  0.0162
   13MOL    N86 2510   5.740   3.113   6.843  0.4449 -0.3192 -0.0769
   13MOL    H87 2511   5.772   2.765   6.960 -0.2542 -0.7112 -0.0524
   13MOL    H88 2512   5.740   2.841   7.104 -0.8519  2.1125  0.3652
   13MOL    H89 2513   5.549   2.883   6.868 -1.2565  2.8968  0.5716
   13MOL    H90 2514   5.715   3.177   6.917 -0.2196 -1.3701  0.6314
   13MOL    H91 2515   5.794   3.158   6.771 -0.3883  0.4054 -0.2535
   13MOL    C92 2516   5.568   3.009   7.047  0.5844 -0.5141 -0.7577
   13MOL    C93 2517   5.419   3.015   7.047 -0.2305  0.3128 -0.3521
   13MOL    C94 2518   5.357   3.086   6.930  0.3788  0.0291  0.2391
   13MOL    O95 2519   5.237   3.104   6.924  0.2870  0.1564  0.1983
   13MOL    N96 2520   5.432   3.122   6.826 -0.1990  0.0679  0.1964
   13MOL    H97 2521   5.622   3.104   7.051 -1.9250  0.9138  0.6069
   13MOL    H98 2522   5.599   2.972   7.145 -0.2260 -1.3503 -0.8121
   13MOL    H99 2523   5.392   2.910   7.041 -0.8203  0.5368 -1.6761
   13MOL   H100 2524   5.396   3.176   6.748  1.9346  2.5363  0.8109
   13MOL   H101 2525   5.532   3.115   6.842 -0.5555  0.0904  2.6338
   13MOL   C102 2526   5.349   3.048   7.182  0.9435 -0.3624 -0.1316
   13MOL   C103 2527   5.341   3.197   7.220  0.6665 -0.0861  0.2620
   13MOL   C104 2528   5.477   3.265   7.221 -0.7445 -0.0363  0.0706
   13MOL   O105 2529   5.561   3.236   7.305 -0.2399 -0.2533 -0.2870
   13MOL   N106 2530   5.492   3.352   7.126 -0.1695 -0.5422 -0.3832
   13MOL   H107 2531   5.407   3.005   7.264  0.3025  0.8206  0.9548
   13MOL   H108 2532   5.249   3.004   7.185  1.1298 -0.8120 -0.4394
   13MOL   H109 2533   5.281   3.238   7.139  0.8190 -1.4560 -0.5701
   13MOL   H110 2534   5.584   3.394   7.115 -1.2231  1.2486 -2.9147
   13MOL   H111 2535   5.410   3.379   7.074 -1.7776 -1.3563  1.6600
   13MOL   C112 2536   5.266   3.221   7.352 -0.1428  0.6555  0.2853
   13MOL   C113 2537   5.174   3.346   7.330 -0.4135 -0.0304 -0.2247
   13MOL   C114 2538   5.214   3.456   7.424 -0.5814 -0.7314  0.1083
   13MOL   O115 2539   5.166   3.468   7.539 -0.4776  0.5631 -0.3317
   13MOL   N116 2540   5.310   3.541   7.384 -0.1505 -0.2061 -0.2538
   13MOL   H117 2541   5.324   3.235   7.443 -0.9854  3.5788  0.4364
   13MOL   H118 2542   5.207   3.131   7.370 -1.3829  0.7549 -3.0054
   13MOL   H119 2543   5.182   3.396   7.233  0.0300  1.3469  0.5104
   13MOL   H120 2544   5.317   3.635   7.421  1.4561 -0.0291 -0.9806
   13MOL   H121 2545   5.387   3.496   7.337 -1.1962 -1.5862 -0.7048
   13MOL   C122 2546   5.024   3.308   7.349 -0.5526 -0.0286  0.1623
   13MOL   C123 2547   4.960   3.242   7.223  0.5211 -0.7472  0.0640
   13MOL   C124 2548   4.936   3.351   7.116  0.0960  0.0295  0.5031
   13MOL   O125 2549   4.932   3.470   7.138 -0.0793 -0.0655 -0.2530
   13MOL   N126 2550   4.909   3.300   7.002  0.0593 -0.4183 -0.6427
   13MOL   H127 2551   4.958   3.387   7.385 -0.8634  0.0805 -0.6353
   13MOL   H128 2552   5.016   3.248   7.439  0.0752 -1.4415 -0.6994
   13MOL   H129 2553   5.022   3.171   7.169 -0.9663 -0.2152 -2.4297
   13MOL   H130 2554   4.878   3.358   6.925  0.6271 -1.5750 -1.7673
   13MOL   H131 2555   4.917   3.199   6.998 -0.8453 -0.5521  0.6552
   13MOL   C132 2556   4.823   3.174   7.256  0.2329 -0.1969 -0.2893
   13MOL   C133 2557   4.820   3.062   7.361  0.5486 -0.3724 -0.2522
   13MOL   C134 2558   4.925   2.949   7.344 -0.3629  0.2914 -0.0331
   13MOL   O135 2559   4.940   2.884   7.245  0.4496 -0.3138 -0.2002
   13MOL   N136 2560   4.993   2.916   7.456 -0.2725 -0.6498  0.1745
   13MOL   H137 2561   4.789   3.119   7.168 -1.1603 -1.6563  1.1198
   13MOL   H138 2562   4.753   3.249   7.291 -0.8890 -2.6254  2.8514
   13MOL   H139 2563   4.841   3.123   7.449  1.7068  0.2767 -0.9682
   13MOL   H140 2564   5.048   2.830   7.460  0.0283 -0.5719 -1.8957
   13MOL   H141 2565   4.992   2.966   7.544 -0.3990  0.5820 -0.5310
   13MOL   C142 2566   4.673   3.005   7.374  0.0541 -0.2030  0.1168
   13MOL   C143 2567   4.595   3.059   7.500 -0.6648 -0.3466 -0.0116
   13MOL   C144 2568   4.673   3.018   7.624 -0.8462 -0.4919 -0.1691
   13MOL   O145 2569   4.677   2.903   0.011 -0.3772  0.8973  0.3399
   13MOL   N146 2570   4.746   3.114   0.026 -0.2214  0.4133  0.8334
   13MOL   H147 2571   4.677   2.897   7.366 -1.8101 -0.2405 -0.4788
   13MOL   H148 2572   4.622   3.041   7.285  0.7178  4.9431  1.6594
   13MOL   H149 2573   4.585   3.167   7.503  3.0684  0.0493  0.7526
   13MOL   H150 2574   4.822   3.081   0.084 -2.4924 -0.8904  3.2152
   13MOL   H151 2575   4.746   3.208   7.647 -0.8912  1.0922  2.5622
   13MOL   C152 2576   4.451   2.997   7.511 -0.4250  0.5990  0.6258
   13MOL   C153 2577   4.349   3.058   7.418 -0.1793 -0.2659 -0.8449
   13MOL   C154 2578   4.338   3.214   7.426 -0.0077 -0.7555 -0.0786
   13MOL   O155 2579   4.323   3.277   7.529 -0.8079  0.5598  0.0898
   13MOL   N156 2580   4.361   3.277   7.308  0.5887  0.1579 -0.1814
   13MOL   H157 2581   4.409   2.989   7.612  0.7991 -0.4969  1.0690
   13MOL   H158 2582   4.464   2.891   7.488  0.4621  0.8460 -0.0259
   13MOL   H159 2583   4.383   3.030   7.318 -0.6137  0.2076 -1.1288
   13MOL   H160 2584   4.386   3.374   7.316  1.7703 -0.3182  2.5746
   13MOL   H161 2585   4.378   3.229   7.221 -1.1714  0.3704 -0.6685
   13MOL   C162 2586   4.210   3.001   7.423  0.6099  0.8256  0.9327
   13MOL   C163 2587   4.156   2.956   7.288  0.2638 -0.0708 -0.1952
   13MOL   C164 2588   4.012   3.006   7.284 -0.5459  0.0217  0.2395
   13MOL   O165 2589   3.936   2.975   7.373  0.2716 -0.3083 -0.6588
   13MOL   N166 2590   3.971   3.072   7.178  0.2288  0.3275  0.0755
   13MOL   H167 2591   4.152   3.073   7.480 -0.5019 -0.2519  1.1902
   13MOL   H168 2592   4.202   2.917   7.492 -0.5849  0.5318  0.4546
   13MOL   H169 2593   4.219   2.998   7.210  0.0954  1.2460  0.3723
   13MOL   H170 2594   4.025   3.094   7.095 -0.5826 -1.8675 -1.0900
   13MOL   H171 2595   3.874   3.093   7.162  0.2970  0.1501 -0.5833
   13MOL   C172 2596   4.155   2.799   7.279  0.1080  0.0022  0.4429
   13MOL   C173 2597   4.091   2.742   7.153 -0.5329 -0.2449 -0.2218
   13MOL   C174 2598   4.072   2.584   7.162  0.0986 -0.1467  0.2816
   13MOL   O175 2599   4.030   2.526   7.063 -0.5381 -0.0455 -0.0289
   13MOL   N176 2600   4.104   2.524   7.272  0.3873  0.7056 -0.1753
   13MOL   H177 2601   4.111   2.756   7.369 -1.5378  0.1016 -0.2802
   13MOL   H178 2602   4.259   2.770   7.286 -0.4500 -2.1343  0.2116
   13MOL   H179 2603   3.992   2.781   7.131  0.3635  0.7117 -2.7769
   13MOL   H180 2604   4.140   2.579   7.349  1.8891  0.2794 -0.5712
   13MOL   H181 2605   4.085   2.426   7.289 -1.1305  0.5867 -2.3794
   13MOL   C182 2606   4.164   2.784   7.020 -0.5677  0.4431  0.2097
   13MOL   C183 2607   4.293   2.701   6.970  0.3372 -0.1783 -0.1048
   13MOL   C184 2608   4.424   2.712   7.041 -0.7928 -0.2921  0.5029
   13MOL   O185 2609   4.440   2.815   7.100 -0.4133  0.1980 -0.1211
   13MOL   N186 2610   4.510   2.613   7.025  0.1025  0.0136 -0.1434
   13MOL   H187 2611   4.191   2.889   7.012 -0.7990  0.4570 -0.4362
   13MOL   H188 2612   4.089   2.759   6.944 -0.9721 -0.1803  0.8146
   13MOL   H189 2613   4.259   2.598   6.984 -0.2337  0.1342  0.9049
   13MOL   H190 2614   4.592   2.614   7.085 -0.0571  1.0284  0.0677
   13MOL   H191 2615   4.491   2.534   6.966  1.5438 -0.4233 -0.0382
   13MOL   C192 2616   4.313   2.710   6.819  0.1839 -0.5485  0.3024
   13MOL   C193 2617   4.400   2.826   6.770  0.0821 -0.3057 -0.1109
   13MOL   C194 2618   4.409   2.840   6.617  0.0614 -0.3750 -0.0338
   13MOL   O195 2619   4.320   2.891   6.547  0.2751  0.0336  0.0289
   13MOL   N196 2620   4.521   2.790   6.564 -0.4593  0.2834 -0.0779
   13MOL   H197 2621   4.218   2.718   6.768  0.6527  0.5505 -0.4093
   13MOL   H198 2622   4.365   2.617   6.797  4.1108  1.2624  1.3385
   13MOL   H199 2623   4.354   2.921   6.796  0.3177 -0.0368 -0.6833
   13MOL   H200 2624   4.582   2.756   6.637 -1.0690 -0.3772  0.1252
   13MOL   H201 2625   4.536   2.779   6.465  0.4337 -3.4887  0.3882
   13MOL   H202 2626   4.500   2.833   6.815 -0.3375  0.2200  0.7543
   14MOL     C1 2627   4.769   1.633   4.825 -0.4801 -1.0480 -0.2032
   14MOL     C2 2628   4.804   1.492   4.870  0.3262 -0.4717 -0.9403
   14MOL     C3 2629   4.827   1.400   4.754  0.0300  0.1874 -0.6494
   14MOL     O4 2630   4.737   1.309   4.741  0.2785  0.1273  0.2465
   14MOL     N5 2631   4.929   1.415   4.672  0.7248  0.4758  0.0145
   14MOL     H6 2632   4.831   1.717   4.855  0.4241 -0.9048 -2.4142
   14MOL     H7 2633   4.769   1.650   4.717  0.0683 -1.1132 -0.2155
   14MOL     H8 2634   4.905   1.506   4.909 -0.3675  0.3772  0.5635
   14MOL     H9 2635   4.993   1.494   4.672 -0.8010  1.7242 -0.0606
   14MOL    H10 2636   4.935   1.352   4.593 -1.3092  2.1445 -1.5298
   14MOL    H11 2637   4.670   1.663   4.861 -0.9761 -1.9110 -0.8113
   14MOL    C12 2638   4.710   1.429   4.986 -0.7146  0.8856 -0.1206
   14MOL    C13 2639   4.734   1.282   5.041  0.5525 -1.0618  0.2325
   14MOL    C14 2640   4.657   1.260   5.167  0.6249  0.1412  0.3475
   14MOL    O15 2641   4.679   1.327   5.264  0.7630  0.1489 -0.5811
   14MOL    N16 2642   4.564   1.162   5.172  0.8910 -0.3121  0.3513
   14MOL    H17 2643   4.609   1.421   4.946 -0.4696  0.7887 -0.7267
   14MOL    H18 2644   4.705   1.488   5.077  1.0394 -0.9857  1.2398
   14MOL    H19 2645   4.682   1.214   4.973  1.1274 -0.6380 -0.6347
   14MOL    H20 2646   4.525   1.125   5.086 -0.7686  0.0405  0.9325
   14MOL    H21 2647   4.512   1.139   5.255 -0.2276 -0.4206 -0.3710
   14MOL    C22 2648   4.882   1.239   5.061  0.3808 -0.1375  0.0905
   14MOL    C23 2649   4.954   1.147   4.959  0.2150 -0.3293  0.9058
   14MOL    C24 2650   4.860   1.032   4.922  0.7990  0.1111  0.0582
   14MOL    O25 2651   4.821   0.953   5.004 -0.0906  0.2982 -1.0186
   14MOL    N26 2652   4.813   1.030   4.795  0.1113 -0.4470  0.0343
   14MOL    H27 2653   4.894   1.180   5.152  1.8165  0.9383  0.6028
   14MOL    H28 2654   4.935   1.332   5.079 -0.6488  0.4378  0.1647
   14MOL    H29 2655   4.976   1.206   4.870 -0.5724 -2.0223 -0.4332
   14MOL    H30 2656   4.747   0.957   4.775  0.6533 -1.1371  0.7307
   14MOL    H31 2657   4.852   1.092   4.725 -1.6298 -0.6456 -1.1288
   14MOL    C32 2658   5.089   1.092   4.998 -0.6581 -0.2919  0.7000
   14MOL    C33 2659   5.122   1.065   5.142 -0.2629  0.8213 -0.2517
   14MOL    C34 2660   5.266   1.039   5.147 -0.3930  0.5426 -0.5651
   14MOL    O35 2661   5.326   0.985   5.050  0.2330 -0.1997 -0.2577
   14MOL    N36 2662   5.339   1.083   5.246  0.5559  0.2861 -0.3192
   14MOL    H37 2663   5.152   1.175   4.966 -1.1486 -0.3577 -0.4866
   14MOL    H38 2664   5.121   1.003   4.942  3.4586  1.2376  0.4896
   14MOL    H39 2665   5.104   1.160   5.193  4.1567  1.4850  0.2449
   14MOL    H40 2666   5.295   1.137   5.319  0.8238  1.0133 -0.6832
   14MOL    H41 2667   5.439   1.074   5.232  0.3777  3.0864 -4.2933
   14MOL    C42 2668   5.054   0.942   5.211 -0.0781  0.9508 -0.0199
   14MOL    C43 2669   4.932   0.964   5.305 -0.5551 -0.6717 -0.0284
   14MOL    C44 2670   4.965   1.076   5.410 -0.4624 -1.0392  0.5479
   14MOL    O45 2671   5.077   1.070   5.464 -0.2277 -0.2834 -0.1181
   14MOL    N46 2672   4.881   1.174   5.438  0.5026  0.2266 -0.6644
   14MOL    H47 2673   5.130   0.880   5.260 -0.2288  1.1123  0.4217
   14MOL    H48 2674   5.026   0.872   5.133 -0.1180 -0.5071  1.2781
   14MOL    H49 2675   4.848   0.999   5.245  0.9778  0.0295 -1.8056
   14MOL    H50 2676   4.796   1.182   5.383  0.5309  1.4385 -0.5549
   14MOL    H51 2677   4.902   1.240   5.511  0.9083 -0.7844  0.1426
   14MOL    C52 2678   4.872   0.848   5.368  0.7713  0.6379 -0.7242
   14MOL    C53 2679   4.765   0.857   5.478  0.4006 -0.1482  0.6310
   14MOL    C54 2680   4.737   0.714   5.533  0.3329 -0.0630  0.4704
   14MOL    O55 2681   4.686   0.634   5.466 -0.3754  0.9501  0.0503
   14MOL    N56 2682   4.775   0.682   5.654  0.2438 -0.2661  0.7134
   14MOL    H57 2683   4.952   0.793   5.417 -0.0855  1.5070  1.7197
   14MOL    H58 2684   4.822   0.793   5.289 -4.8206  0.5333  2.6144
   14MOL    H59 2685   4.784   0.926   5.560  0.3640  1.3131 -0.5455
   14MOL    H60 2686   4.809   0.762   5.705  2.0025 -0.4347 -0.1812
   14MOL    H61 2687   4.744   0.598   5.702  1.1027 -1.5224 -0.8793
   14MOL    C62 2688   4.633   0.930   5.429  0.0092 -0.9695 -0.0486
   14MOL    C63 2689   4.538   0.977   5.544  0.0306  0.1811  0.1982
   14MOL    C64 2690   4.400   0.999   5.478 -0.4253 -0.9003  0.5808
   14MOL    O65 2691   4.389   1.087   5.385 -0.2404 -0.0782  0.1896
   14MOL    N66 2692   4.295   0.933   5.520 -0.1361  0.3564  0.5282
   14MOL    H67 2693   4.580   0.877   5.350 -1.3454 -0.7874  0.7269
   14MOL    H68 2694   4.667   1.021   5.381  0.9533 -1.1415  0.2684
   14MOL    H69 2695   4.530   0.904   5.624 -1.5074  1.4008  1.1669
   14MOL    H70 2696   4.199   0.938   5.490 -1.0494 -1.6790  2.9049
   14MOL    H71 2697   4.303   0.871   5.599  0.2270  0.0403  0.2406
   14MOL    C72 2698   4.587   1.114   5.603  0.2020  0.0934  0.7971
   14MOL    C73 2699   4.525   1.151   5.740 -0.5964  0.2879  0.0648
   14MOL    C74 2700   4.402   1.240   5.719 -0.0175  0.2320 -0.1430
   14MOL    O75 2701   4.402   1.346   5.650  0.0050  0.2886  0.2239
   14MOL    N76 2702   4.288   1.199   5.777 -0.4947  0.7965  0.0218
   14MOL    H77 2703   4.576   1.199   5.536  0.2013  0.0964  0.8014
   14MOL    H78 2704   4.692   1.096   5.625  1.5866  2.6990 -2.9908
   14MOL    H79 2705   4.480   1.074   5.802 -1.4276  1.2735  0.6894
   14MOL    H80 2706   4.284   1.122   5.842 -1.2081 -0.3114 -1.3202
   14MOL    H81 2707   4.223   1.276   5.775 -2.2045 -0.5990  1.0017
   14MOL    C82 2708   4.636   1.234   5.809  0.0575 -0.4591  0.0872
   14MOL    C83 2709   4.741   1.155   5.890 -0.3322  0.1378 -0.1317
   14MOL    C84 2710   4.679   1.079   6.002 -0.8174 -0.3838 -0.1636
   14MOL    O85 2711   4.596   1.139   6.073 -0.2973 -0.2903  0.3294
   14MOL    N86 2712   4.735   0.963   6.038 -0.3453  0.0055 -0.2259
   14MOL    H87 2713   4.590   1.319   5.859  1.2024  0.8448 -1.0196
   14MOL    H88 2714   4.687   1.280   5.724 -0.8215 -0.1745 -0.2954
   14MOL    H89 2715   4.792   1.081   5.829  0.4545  1.7373 -1.4515
   14MOL    H90 2716   4.815   0.921   5.993 -0.1523  0.4549 -0.3041
   14MOL    H91 2717   4.701   0.927   6.127 -0.4820  2.5615  0.7898
   14MOL    C92 2718   4.847   1.254   5.944  0.0328  0.0691  0.1850
   14MOL    C93 2719   4.966   1.309   5.862 -0.1940  0.0406  0.2313
   14MOL    C94 2720   4.930   1.411   5.752  0.1719 -0.0809  0.1751
   14MOL    O95 2721   4.913   1.377   5.636 -0.4259  0.0707 -0.3386
   14MOL    N96 2722   4.890   1.536   5.788  0.1235 -0.0173 -0.7182
   14MOL    H97 2723   4.893   1.224   6.038 -0.3201 -0.5426  0.1676
   14MOL    H98 2724   4.790   1.339   5.984  0.6432  0.2198  0.7492
   14MOL    H99 2725   5.031   1.363   5.931  2.7190 -1.4524 -1.2306
   14MOL   H100 2726   4.901   1.574   5.881  1.7235 -1.1942 -0.4063
   14MOL   H101 2727   4.887   1.598   5.708 -1.8778 -0.2707 -0.8771
   14MOL   C102 2728   5.062   1.199   5.810  1.0513 -0.3157  0.0968
   14MOL   C103 2729   5.154   1.124   5.908 -0.1921 -0.5745  0.1319
   14MOL   C104 2730   5.288   1.106   5.835 -0.5548 -0.5136 -0.0600
   14MOL   O105 2731   5.293   1.046   5.728  0.0316  0.1460 -0.0598
   14MOL   N106 2732   5.393   1.166   5.884 -0.1881 -0.1507  0.5489
   14MOL   H107 2733   5.125   1.250   5.738 -0.0576 -0.0952 -0.7261
   14MOL   H108 2734   4.997   1.128   5.759 -0.8840  0.3140  1.5989
   14MOL   H109 2735   5.177   1.200   5.983  0.6986  0.2150 -0.9310
   14MOL   H110 2736   5.384   1.231   5.961 -1.4445 -0.5300  0.7287
   14MOL   H111 2737   5.476   1.155   5.827 -0.3663 -0.0008  0.2578
   14MOL   C112 2738   5.103   1.003   5.994 -0.4346  0.4836  0.0401
   14MOL   C113 2739   5.120   0.858   5.925 -0.0967  0.4309  0.5170
   14MOL   C114 2740   5.023   0.856   5.806  0.0985 -0.3856  0.6937
   14MOL   O115 2741   4.899   0.865   5.815 -0.0675  0.1956  0.1435
   14MOL   N116 2742   5.069   0.836   5.685 -0.0314  0.6003  0.0295
   14MOL   H117 2743   4.997   1.027   6.003 -1.0386 -1.9287 -0.1415
   14MOL   H118 2744   5.152   1.000   6.091  0.3501 -1.1363 -0.3877
   14MOL   H119 2745   5.220   0.842   5.884 -0.9201 -2.3069 -0.4862
   14MOL   H120 2746   5.167   0.818   5.668  0.0391  0.6963  0.3151
   14MOL   H121 2747   5.010   0.832   5.604 -1.0888  1.1130  0.7628
   14MOL   C122 2748   5.083   0.743   6.023  0.3545 -0.1834  0.8892
   14MOL   C123 2749   5.171   0.618   6.012 -0.1169  0.2346  0.6035
   14MOL   C124 2750   5.164   0.549   5.880  0.8388  1.0109 -0.5810
   14MOL   O125 2751   5.059   0.501   5.830  0.3431 -0.4935 -0.3797
   14MOL   N126 2752   5.280   0.531   5.813 -1.3659 -0.1142  0.5926
   14MOL   H127 2753   4.977   0.720   6.021  0.8914 -2.6880 -2.3177
   14MOL   H128 2754   5.102   0.781   6.123  1.5832 -0.4384  0.7689
   14MOL   H129 2755   5.276   0.643   6.017  0.6637 -2.8162  0.7321
   14MOL   H130 2756   5.284   0.508   5.715  0.6782 -0.2030  0.6634
   14MOL   H131 2757   5.366   0.546   5.864  0.6857 -1.2436 -2.3986
   14MOL   C132 2758   5.131   0.519   6.128  0.3736  0.7716 -0.0996
   14MOL   C133 2759   5.187   0.550   6.271 -0.0281 -0.3197 -0.8093
   14MOL   C134 2760   5.334   0.518   6.269  0.2884 -0.3376  0.1593
   14MOL   O135 2761   5.364   0.400   6.271  0.4898 -0.5873  0.7367
   14MOL   N136 2762   5.429   0.610   6.255 -0.0984  0.5457 -0.5156
   14MOL   H137 2763   5.153   0.414   6.112  0.6305  1.0087 -1.3757
   14MOL   H138 2764   5.022   0.521   6.134  0.3959 -0.7551  1.0476
   14MOL   H139 2765   5.181   0.655   6.299  0.9742 -0.5841  0.4732
   14MOL   H140 2766   5.526   0.582   6.258  0.1282  1.4474  1.1967
   14MOL   H141 2767   5.413   0.707   6.230 -1.5467  0.7837  1.2749
   14MOL   C142 2768   5.108   0.488   6.388 -0.1838  0.6946 -0.4090
   14MOL   C143 2769   5.056   0.589   6.492 -0.1992 -0.3492 -0.2715
   14MOL   C144 2770   5.024   0.529   6.627  0.8551 -0.3403 -0.6986
   14MOL   O145 2771   4.986   0.414   6.635 -0.0765  0.3428  0.1444
   14MOL   N146 2772   5.036   0.597   6.735  0.1955 -0.8255 -0.4966
   14MOL   H147 2773   5.170   0.416   6.442 -3.4370 -1.6925  0.2905
   14MOL   H148 2774   5.025   0.429   6.351 -0.1283  1.2380 -1.4029
   14MOL   H149 2775   5.141   0.654   6.513 -0.7130  0.9295 -2.0287
   14MOL   H150 2776   5.039   0.551   6.825 -2.7964  0.8867  0.5740
   14MOL   H151 2777   5.055   0.696   6.744  0.4522 -0.9689  0.6203
   14MOL   C152 2778   4.941   0.681   6.441  0.5495 -0.5308  0.0418
   14MOL   C153 2779   4.924   0.822   6.508 -0.0811 -0.1359 -0.1191
   14MOL   C154 2780   4.786   0.886   6.463 -0.9799  0.1922  0.5886
   14MOL   O155 2781   4.784   0.945   6.358  0.0444 -0.1665  0.2544
   14MOL   N156 2782   4.683   0.872   6.546 -0.4604  0.3687  0.2262
   14MOL   H157 2783   4.849   0.622   6.447  1.1365 -1.3214  1.3786
   14MOL   H158 2784   4.954   0.695   6.333  2.1124  0.0096  0.2886
   14MOL   H159 2785   4.925   0.817   6.617 -0.3600  0.0468 -0.1088
   14MOL   H160 2786   4.599   0.921   6.517 -0.2710  0.7776  0.3615
   14MOL   H161 2787   4.682   0.798   6.614 -1.2852 -0.6257 -0.8564
   14MOL   C162 2788   5.043   0.924   6.478  0.3797  0.0234  0.0122
   14MOL   C163 2789   5.022   1.081   6.511  0.1218  0.0365 -0.1692
   14MOL   C164 2790   5.035   1.165   6.385 -0.0252 -0.2890  0.1236
   14MOL   O165 2791   5.144   1.210   6.360  0.3541 -0.4216 -0.0423
   14MOL   N166 2792   4.931   1.197   6.314 -0.3900  0.0102  0.2122
   14MOL   H167 2793   5.064   0.921   6.371  1.2019  1.5996  0.1136
   14MOL   H168 2794   5.138   0.889   6.516  0.4869 -2.1710 -2.1168
   14MOL   H169 2795   4.923   1.094   6.554 -0.5129  0.8400 -1.8400
   14MOL   H170 2796   4.837   1.166   6.335 -1.1264  0.7128 -1.8967
   14MOL   H171 2797   4.934   1.261   6.236  1.5927  1.7410  1.6815
   14MOL   C172 2798   5.134   1.135   6.610  0.0762 -0.0873 -0.8840
   14MOL   C173 2799   5.138   1.095   6.759  1.0014 -0.3823  0.1579
   14MOL   C174 2800   5.199   0.954   6.781 -0.1782 -0.1028  0.1468
   14MOL   O175 2801   5.131   0.857   6.776 -0.0410  0.3404  0.1202
   14MOL   N176 2802   5.328   0.952   6.812  0.0355  0.1250  0.7545
   14MOL   H177 2803   5.130   1.244   6.604 -1.9271 -0.2244 -2.7603
   14MOL   H178 2804   5.226   1.108   6.558  0.4806  0.4868 -0.4762
   14MOL   H179 2805   5.213   1.167   6.792 -0.0243  1.5541 -1.6661
   14MOL   H180 2806   5.370   0.861   6.824 -1.0468 -0.2665  1.6133
   14MOL   H181 2807   5.355   1.022   6.880 -0.0236  1.2868 -0.4014
   14MOL   C182 2808   5.003   1.103   6.834  0.2015  0.0837  0.0044
   14MOL   C183 2809   4.953   1.241   6.866 -0.5011 -0.3397  0.0879
   14MOL   C184 2810   4.854   1.304   6.773 -0.6911  0.1316  0.2753
   14MOL   O185 2811   4.890   1.384   6.689  0.4047  0.1121 -0.6906
   14MOL   N186 2812   4.732   1.260   6.773  0.4057 -0.5250  0.0430
   14MOL   H187 2813   5.019   1.047   6.927 -0.5857 -2.1125 -1.1615
   14MOL   H188 2814   4.935   1.047   6.771  0.5045  0.6055 -0.7902
   14MOL   H189 2815   4.894   1.212   6.952  0.0887 -2.6490 -0.2617
   14MOL   H190 2816   4.701   1.198   6.846 -2.9578  1.0828  0.0700
   14MOL   H191 2817   4.664   1.310   6.716 -0.9526 -0.4681  1.6782
   14MOL   C192 2818   5.066   1.336   6.912 -0.2219 -0.0851 -0.4571
   14MOL   C193 2819   5.011   1.464   6.980 -0.1527 -0.4729 -0.0157
   14MOL   C194 2820   5.120   1.561   7.011  0.2708  0.6555  0.3484
   14MOL   O195 2821   5.201   1.596   6.926  0.1174 -0.0270  0.4094
   14MOL   N196 2822   5.126   1.611   7.135 -0.2476 -0.2242 -0.4292
   14MOL   H197 2823   5.121   1.368   6.823 -0.4119  0.0656 -0.5196
   14MOL   H198 2824   5.138   1.283   6.974 -1.5762 -1.9920 -0.4549
   14MOL   H199 2825   4.938   1.517   6.918 -0.1401 -0.2183  0.1860
   14MOL   H200 2826   5.213   1.654   7.163 -0.4002  0.9267 -1.6661
   14MOL   H201 2827   5.052   1.586   7.199  0.8768  0.3194  1.1205
   14MOL   H202 2828   4.969   1.442   7.079  0.1520 -0.9337  0.0087
   15MOL     C1 2829   6.244   4.772   5.192 -0.0612 -0.5018  0.0443
   15MOL     C2 2830   6.088   4.743   5.186  0.2051  0.1126  0.3143
   15MOL     C3 2831   6.011   4.800   5.305 -1.0175  0.1110 -0.0847
   15MOL     O4 2832   6.041   4.768   5.421  0.1817  0.0236 -0.2279
   15MOL     N5 2833   5.916   4.886   5.283 -0.0449  0.1682  0.3407
   15MOL     H6 2834   6.292   4.730   5.104 -1.0673 -0.3287 -0.5988
   15MOL     H7 2835   6.264   4.877   5.216  2.2215 -1.1070  0.8766
   15MOL     H8 2836   6.048   4.798   5.101  0.3084 -0.2709  0.0176
   15MOL     H9 2837   5.890   4.896   5.186 -1.4952 -2.9078  0.3318
   15MOL    H10 2838   5.858   4.925   5.355 -0.7242 -0.9984  0.4386
   15MOL    H11 2839   6.290   4.709   5.268  0.8708  0.6488  0.4529
   15MOL    C12 2840   6.053   4.595   5.162 -0.0259  0.8822  0.5575
   15MOL    C13 2841   6.080   4.486   5.271  0.1952  0.1967 -0.2261
   15MOL    C14 2842   6.228   4.440   5.294  0.4494 -0.6099  0.2310
   15MOL    O15 2843   6.285   4.370   5.209  0.3093 -0.0091 -0.7612
   15MOL    N16 2844   6.295   4.487   5.395 -0.0867 -0.3290  0.0872
   15MOL    H17 2845   6.095   4.561   5.068  0.0904  1.9220  0.2316
   15MOL    H18 2846   5.944   4.595   5.157 -0.0119  1.0277  0.2727
   15MOL    H19 2847   6.057   4.515   5.373 -2.6902 -1.5670 -0.3152
   15MOL    H20 2848   6.395   4.472   5.395 -0.2390 -1.4388 -0.9718
   15MOL    H21 2849   6.247   4.538   5.468 -0.9974 -0.2451 -0.5612
   15MOL    C22 2850   5.979   4.363   5.238 -0.5250 -0.1920 -0.5313
   15MOL    C23 2851   5.954   4.244   5.342  0.6721  0.3417 -0.0878
   15MOL    C24 2852   5.949   4.287   5.492 -0.5919 -0.3885  0.3465
   15MOL    O25 2853   6.055   4.309   5.548  0.4914 -0.4104  0.1755
   15MOL    N26 2854   5.831   4.299   5.552  0.4071  0.1146  0.1435
   15MOL    H27 2855   6.013   4.316   5.146  0.2819 -0.1173 -0.2707
   15MOL    H28 2856   5.875   4.396   5.229 -0.1952  2.0599  2.8291
   15MOL    H29 2857   5.860   4.196   5.315  0.3469  1.0427 -0.2172
   15MOL    H30 2858   5.833   4.318   5.651 -1.9589 -0.4561  0.3506
   15MOL    H31 2859   5.741   4.285   5.507  1.1340 -1.5620 -0.8294
   15MOL    C32 2860   6.052   4.132   5.325 -0.2061 -0.3780 -0.4996
   15MOL    C33 2861   6.020   4.037   5.216 -0.2504  0.0253 -0.0794
   15MOL    C34 2862   5.924   3.933   5.271 -0.2838  0.3294  0.1293
   15MOL    O35 2863   5.849   3.952   5.371 -0.0548  0.3769  0.0871
   15MOL    N36 2864   5.922   3.815   5.196 -0.1358 -0.1296  0.4626
   15MOL    H37 2865   6.068   4.082   5.420  0.4938  0.3238 -0.2501
   15MOL    H38 2866   6.146   4.187   5.317 -0.5956  0.6216  1.4895
   15MOL    H39 2867   5.959   4.089   5.141 -1.0240 -0.2587  0.3440
   15MOL    H40 2868   5.981   3.795   5.116 -0.3720 -0.8690  0.4706
   15MOL    H41 2869   5.865   3.740   5.232 -0.9762 -0.2176 -1.0094
   15MOL    C42 2870   6.152   3.977   5.150 -0.0491  0.4896 -0.0648
   15MOL    C43 2871   6.182   4.048   5.019 -0.2360 -0.1288  0.1725
   15MOL    C44 2872   6.056   4.029   4.929 -0.0873 -0.7230 -0.0602
   15MOL    O45 2873   6.001   3.921   4.915 -0.2852 -0.7114  0.5682
   15MOL    N46 2874   6.002   4.135   4.885  0.4139 -0.1674  0.6206
   15MOL    H47 2875   6.144   3.870   5.131  1.5240 -0.1242  2.4058
   15MOL    H48 2876   6.231   3.996   5.222 -1.4052  1.8192  1.1113
   15MOL    H49 2877   6.184   4.151   5.054  0.3196 -0.3209  0.7077
   15MOL    H50 2878   5.924   4.123   4.822  0.2039 -1.8453  1.1739
   15MOL    H51 2879   6.041   4.228   4.890  1.2488 -0.5149  0.6088
   15MOL    C52 2880   6.309   3.979   4.961 -0.6360 -0.2117 -1.0432
   15MOL    C53 2881   6.372   4.040   4.829 -0.3446 -1.1658 -0.2532
   15MOL    C54 2882   6.428   4.180   4.845  0.5568  0.0629  0.7489
   15MOL    O55 2883   6.415   4.240   4.950  0.8583  0.3907 -0.6545
   15MOL    N56 2884   6.493   4.232   4.742 -0.2042 -0.1785 -0.4589
   15MOL    H57 2885   6.300   3.871   4.947 -0.1597 -0.2239 -1.2631
   15MOL    H58 2886   6.386   3.982   5.038 -1.1830  1.4446 -0.5346
   15MOL    H59 2887   6.462   3.982   4.805 -0.8849 -1.2201 -2.2247
   15MOL    H60 2888   6.547   4.315   4.759  1.8585 -1.4600 -0.5531
   15MOL    H61 2889   6.524   4.170   4.668 -1.6144 -0.4015 -0.8647
   15MOL    C62 2890   6.298   4.018   4.697 -0.1048 -0.7097  0.4804
   15MOL    C63 2891   6.238   3.881   4.665 -0.3140  0.1951 -0.1028
   15MOL    C64 2892   6.350   3.768   4.644  0.2751 -0.1819 -0.3401
   15MOL    O65 2893   6.409   3.771   4.537  0.3563 -0.0755  0.6789
   15MOL    N66 2894   6.379   3.685   4.742  0.0830 -0.7470 -0.1135
   15MOL    H67 2895   6.356   4.059   4.614  1.6073 -1.9718  1.0144
   15MOL    H68 2896   6.220   4.094   4.690  1.8695  1.5726  2.0615
   15MOL    H69 2897   6.170   3.848   4.744  0.5510  1.5612  1.2403
   15MOL    H70 2898   6.455   3.620   4.729  0.7404  0.5250 -2.7639
   15MOL    H71 2899   6.327   3.671   4.828  0.9837  0.3039  0.6171
   15MOL    C72 2900   6.140   3.893   4.544  0.6448  0.5171  0.8152
   15MOL    C73 2901   5.992   3.900   4.588 -0.1850  0.7707  0.4127
   15MOL    C74 2902   5.933   3.765   4.625  0.1307 -0.1262  0.7623
   15MOL    O75 2903   5.901   3.682   4.537 -0.1586  0.1096 -0.3311
   15MOL    N76 2904   5.907   3.741   4.749  0.1325 -0.1092 -0.7296
   15MOL    H77 2905   6.152   3.803   4.484  0.5038  1.2265 -0.3112
   15MOL    H78 2906   6.164   3.977   4.478 -3.3672  0.0457 -1.4340
   15MOL    H79 2907   5.981   3.971   4.669 -0.3900 -0.8727  1.8542
   15MOL    H80 2908   5.940   3.802   4.822  1.8202 -2.6857  0.7647
   15MOL    H81 2909   5.855   3.666   4.793 -0.8273  1.0223  0.0917
   15MOL    C82 2910   5.901   3.956   4.484 -0.0587 -0.0803  0.0875
   15MOL    C83 2911   5.937   4.099   4.427  0.7256  0.6658  0.2171
   15MOL    C84 2912   5.947   4.196   4.545 -0.4903  0.1508 -0.1392
   15MOL    O85 2913   5.864   4.211   4.637 -0.1247 -0.4711 -0.5205
   15MOL    N86 2914   6.064   4.257   4.554  0.1418  0.1337 -0.5678
   15MOL    H87 2915   5.798   3.945   4.518  0.2049  2.3516  1.7851
   15MOL    H88 2916   5.902   3.890   4.397  2.7964  0.4912 -0.3522
   15MOL    H89 2917   6.026   4.080   4.367  0.8783  1.9497  0.0255
   15MOL    H90 2918   6.073   4.324   4.630 -1.1716 -0.0368 -0.2448
   15MOL    H91 2919   6.123   4.256   4.472  0.0600  2.1717 -0.6779
   15MOL    C92 2920   5.833   4.163   4.328  0.5203 -0.7429  0.4533
   15MOL    C93 2921   5.834   4.325   4.311  0.1450  0.7994 -0.8937
   15MOL    C94 2922   5.689   4.367   4.315  0.7509  0.3443  0.2260
   15MOL    O95 2923   5.626   4.386   4.216  0.0254 -0.2411  0.0964
   15MOL    N96 2924   5.643   4.391   4.435  0.6586 -0.2264  0.6092
   15MOL    H97 2925   5.737   4.128   4.364 -0.0011  0.5697  0.3701
   15MOL    H98 2926   5.841   4.137   4.222 -2.3658  2.0630 -0.5296
   15MOL    H99 2927   5.865   4.373   4.404 -0.3235  0.9054 -0.7902
   15MOL   H100 2928   5.546   4.417   4.450  0.4150 -0.0101 -1.2917
   15MOL   H101 2929   5.706   4.381   4.514  0.5750 -1.2089  0.5629
   15MOL   C102 2930   5.924   4.385   4.198 -0.6809 -0.1410 -0.9857
   15MOL   C103 2931   5.961   4.536   4.187 -0.5869 -0.3493  0.2109
   15MOL   C104 2932   6.007   4.587   4.318 -0.4496  0.7116  0.1476
   15MOL   O105 2933   6.057   4.518   4.413  0.6634 -0.4521 -0.0107
   15MOL   N106 2934   5.982   4.718   4.334 -0.1328  0.0252  0.4213
   15MOL   H107 2935   5.887   4.351   4.101 -0.4677 -1.0262 -0.7576
   15MOL   H108 2936   6.019   4.336   4.217 -1.6247 -2.2017 -1.3951
   15MOL   H109 2937   6.044   4.545   4.116  1.3300  0.5678  2.5059
   15MOL   H110 2938   6.000   4.767   4.421  0.9302 -2.0774  1.4091
   15MOL   H111 2939   5.957   4.781   4.259 -3.4746 -1.6270  0.0765
   15MOL   C112 2940   5.841   4.620   4.119 -0.3629  0.3833 -0.5132
   15MOL   C113 2941   5.791   4.581   3.980  0.1800  0.0973  0.4747
   15MOL   C114 2942   5.893   4.617   3.881  0.8017  0.4069 -1.0603
   15MOL   O115 2943   5.901   4.728   3.837 -0.4364  0.0948 -0.4332
   15MOL   N116 2944   5.981   4.522   3.858 -0.1204 -0.1815 -0.4933
   15MOL   H117 2945   5.862   4.727   4.114  0.1457  0.3469  0.9011
   15MOL   H118 2946   5.755   4.617   4.185  1.7339 -0.0911  2.2654
   15MOL   H119 2947   5.771   4.474   3.971 -3.3565  0.8334 -1.2331
   15MOL   H120 2948   5.975   4.431   3.903  1.8672  0.1834  0.5638
   15MOL   H121 2949   6.073   4.549   3.825  0.8286 -1.7479  0.7656
   15MOL   C122 2950   5.653   4.647   3.951  0.0221 -0.1206  0.0319
   15MOL   C123 2951   5.593   4.633   3.805 -0.3738  0.2508 -0.3521
   15MOL   C124 2952   5.580   4.772   3.738  0.5658  0.4746 -0.5474
   15MOL   O125 2953   5.466   4.811   3.706 -0.2780  0.3057  0.9512
   15MOL   N126 2954   5.684   4.855   3.732 -0.2996  0.0835 -0.1623
   15MOL   H127 2955   5.666   4.753   3.974 -0.4134  0.3571 -1.8503
   15MOL   H128 2956   5.577   4.599   4.013 -2.0605 -1.2299 -3.2314
   15MOL   H129 2957   5.662   4.579   3.739  0.2100  0.1034  0.3779
   15MOL   H130 2958   5.661   4.933   3.673 -2.6090  0.5586  1.3036
   15MOL   H131 2959   5.776   4.840   3.771  0.3257  1.0252 -1.2516
   15MOL   C132 2960   5.469   4.539   3.792 -0.2684 -0.8736  0.3604
   15MOL   C133 2961   5.449   4.473   3.649 -0.0407  0.0207  0.5758
   15MOL   C134 2962   5.301   4.433   3.616  0.9604 -0.0033 -0.0934
   15MOL   O135 2963   5.208   4.472   3.682 -0.3805 -0.1971 -0.0797
   15MOL   N136 2964   5.274   4.364   3.505 -0.1563 -0.3790 -0.0067
   15MOL   H137 2965   5.382   4.596   3.824  2.6777  3.1814  1.5058
   15MOL   H138 2966   5.480   4.464   3.871 -1.3487 -0.9204  0.4708
   15MOL   H139 2967   5.462   4.553   3.576  3.1533 -1.8603 -1.0519
   15MOL   H140 2968   5.344   4.335   3.438  2.5131  2.2656  1.5107
   15MOL   H141 2969   5.181   4.345   3.472 -0.1757  1.4599 -1.1062
   15MOL   C142 2970   5.561   4.367   3.608 -0.1518 -0.0690 -0.7307
   15MOL   C143 2971   5.656   4.406   3.495 -0.0388  0.6913 -0.2119
   15MOL   C144 2972   5.594   4.411   3.350  0.4338 -0.6532 -0.0878
   15MOL   O145 2973   5.493   4.351   3.314 -0.4206 -0.4829  0.6551
   15MOL   N146 2974   5.657   4.486   3.257 -0.4761 -0.7823  0.7444
   15MOL   H147 2975   5.519   4.278   3.560  0.0481 -0.4460 -0.2072
   15MOL   H148 2976   5.620   4.336   3.694  0.0118  1.4158 -0.3044
   15MOL   H149 2977   5.692   4.508   3.510 -1.6902  1.2810 -0.1227
   15MOL   H150 2978   5.639   4.463   3.161  1.8336 -1.3790  0.4179
   15MOL   H151 2979   5.746   4.528   3.282  0.3569 -2.2783  0.3678
   15MOL   C152 2980   5.776   4.313   3.491 -0.9504  0.0340  0.1183
   15MOL   C153 2981   5.895   4.365   3.567  0.6379 -0.4657 -0.4959
   15MOL   C154 2982   5.952   4.484   3.497 -0.2533 -0.0879  0.2569
   15MOL   O155 2983   5.997   4.479   3.381  0.0562  0.4326  0.1989
   15MOL   N156 2984   5.964   4.598   3.563 -0.1234 -0.3848 -0.0302
   15MOL   H157 2985   5.821   4.300   3.392  1.6173  0.1164  1.2331
   15MOL   H158 2986   5.765   4.208   3.516 -1.5185  0.0776  0.0528
   15MOL   H159 2987   5.859   4.400   3.664 -0.8447  1.2333 -1.6333
   15MOL   H160 2988   5.997   4.678   3.511 -1.9324 -0.4269 -1.2651
   15MOL   H161 2989   5.921   4.613   3.653 -1.2432  0.1606 -0.6515
   15MOL   C162 2990   6.018   4.271   3.594  0.5107  0.3255 -0.1046
   15MOL   C163 2991   5.989   4.137   3.664 -0.0904  0.6623 -0.2585
   15MOL   C164 2992   5.924   4.156   3.805  0.2720 -0.6126  1.0086
   15MOL   O165 2993   5.978   4.231   3.888  0.4297  0.1030  0.8293
   15MOL   N166 2994   5.803   4.107   3.821 -0.3190 -0.4503 -0.2603
   15MOL   H167 2995   6.083   4.323   3.664  1.5427 -0.9570 -0.0967
   15MOL   H168 2996   6.073   4.254   3.502  2.5619  0.9797  0.9795
   15MOL   H169 2997   5.915   4.081   3.606  1.4900 -2.5559  0.7162
   15MOL   H170 2998   5.769   4.035   3.759 -1.0776  1.6536 -2.3691
   15MOL   H171 2999   5.750   4.128   3.904  0.8592 -1.9307  0.8951
   15MOL   C172 3000   6.117   4.057   3.685  0.3172  0.1323  1.1923
   15MOL   C173 3001   6.093   3.910   3.650  0.1951  0.2176 -0.1593
   15MOL   C174 3002   6.132   3.829   3.775 -0.1025 -0.3787  0.0137
   15MOL   O175 3003   6.230   3.757   3.777  0.0571  0.0382  0.2083
   15MOL   N176 3004   6.050   3.825   3.881  0.3599 -0.3591  0.2168
   15MOL   H177 3005   6.146   4.062   3.790 -0.6228 -2.4349  1.6012
   15MOL   H178 3006   6.195   4.105   3.625 -0.3278 -0.1713  0.0975
   15MOL   H179 3007   5.988   3.890   3.631  0.1428 -0.3838  0.7207
   15MOL   H180 3008   6.069   3.758   3.955 -2.5722 -1.3839  0.1043
   15MOL   H181 3009   5.974   3.890   3.892 -1.1760 -1.8093 -1.5097
   15MOL   C182 3010   6.183   3.867   3.525 -0.0032 -0.4125 -0.3804
   15MOL   C183 3011   6.163   3.938   3.390  0.1076 -0.2490 -0.3008
   15MOL   C184 3012   6.050   3.888   3.304 -0.5957 -0.0853 -0.0601
   15MOL   O185 3013   6.029   3.766   3.287 -0.6419  0.3206 -0.3561
   15MOL   N186 3014   5.959   3.973   3.263 -0.6058  0.1715 -0.2194
   15MOL   H187 3015   6.160   3.762   3.507  0.6785 -0.3770 -1.5223
   15MOL   H188 3016   6.288   3.867   3.555 -0.4191 -1.9084  1.2068
   15MOL   H189 3017   6.161   4.046   3.407 -0.2151 -0.0808 -1.3772
   15MOL   H190 3018   5.883   3.940   3.206 -1.8063  2.9496 -0.3202
   15MOL   H191 3019   5.982   4.071   3.253  0.7254  0.0160  1.1861
   15MOL   C192 3020   6.291   3.934   3.302 -0.0643 -0.0004 -0.2920
   15MOL   C193 3021   6.418   4.004   3.349 -0.3448 -0.0064 -0.2976
   15MOL   C194 3022   6.539   3.931   3.290 -0.6143 -0.3487 -0.0008
   15MOL   O195 3023   6.539   3.911   3.169  0.6120 -0.4274  0.1815
   15MOL   N196 3024   6.646   3.899   3.366  0.0175 -0.5270  0.2584
   15MOL   H197 3025   6.268   3.978   3.205  1.1733 -0.9864 -1.0586
   15MOL   H198 3026   6.308   3.827   3.290 -0.9523 -0.3152  1.1778
   15MOL   H199 3027   6.408   4.102   3.303  1.6354  0.1907 -0.3543
   15MOL   H200 3028   6.658   3.932   3.461  0.7954 -1.1854  0.3874
   15MOL   H201 3029   6.720   3.853   3.316 -0.0619 -0.1039 -0.2553
   15MOL   H202 3030   6.431   4.014   3.457  2.7706 -1.4002 -0.4679
   16MOL     C1 3031   1.776   4.829   5.091  0.2044  0.5064  0.5168
   16MOL     C2 3032   1.869   4.712   5.120  0.1039 -0.1688  0.1862
   16MOL     C3 3033   1.771   4.592   5.147  0.0550 -0.3959 -0.0759
   16MOL     O4 3034   1.660   4.601   5.198 -0.0423  0.8400  0.3978
   16MOL     N5 3035   1.827   4.481   5.110  0.2648  0.2705 -0.3726
   16MOL     H6 3036   1.835   4.918   5.069 -1.5250  1.4392 -0.4465
   16MOL     H7 3037   1.700   4.806   5.016  0.4237 -0.6922  0.6406
   16MOL     H8 3038   1.933   4.713   5.032 -1.0203 -2.1774 -0.6852
   16MOL     H9 3039   1.771   4.397   5.104 -0.0788  0.5175 -0.6501
   16MOL    H10 3040   1.928   4.486   5.105  0.1556  3.2204 -0.5405
   16MOL    H11 3041   1.721   4.861   5.179  0.2495 -1.0630  1.1424
   16MOL    C12 3042   1.953   4.746   5.246  0.3756  0.1398  0.3823
   16MOL    C13 3043   2.062   4.654   5.295 -0.0625  0.0450 -0.3043
   16MOL    C14 3044   2.142   4.589   5.181  0.6538 -0.3919 -0.3321
   16MOL    O15 3045   2.096   4.495   5.121 -0.5173  0.3769  0.1925
   16MOL    N16 3046   2.262   4.635   5.151  0.4474 -0.2279 -0.3546
   16MOL    H17 3047   1.880   4.760   5.325 -0.3981  0.9219 -0.4542
   16MOL    H18 3048   1.987   4.850   5.250 -1.6199  0.9345 -2.0668
   16MOL    H19 3049   2.136   4.725   5.329 -1.9543  2.2610 -0.7120
   16MOL    H20 3050   2.293   4.722   5.193  1.8945 -0.5760 -0.6757
   16MOL    H21 3051   2.324   4.589   5.087  0.2500 -0.3522 -0.4587
   16MOL    C22 3052   2.007   4.560   5.412  0.1790 -1.0373  0.0226
   16MOL    C23 3053   2.112   4.495   5.506  0.2828  0.3459  0.1591
   16MOL    C24 3054   2.035   4.408   5.610 -1.0502 -0.2671 -0.4997
   16MOL    O25 3055   1.960   4.455   5.697  0.0876 -0.7423 -0.2751
   16MOL    N26 3056   2.067   4.280   5.601  0.5581  0.7267  0.8345
   16MOL    H27 3057   1.935   4.492   5.365 -1.9077 -0.5151  2.3903
   16MOL    H28 3058   1.942   4.618   5.477  0.8206 -0.4103  0.1127
   16MOL    H29 3059   2.177   4.431   5.447  0.4773  0.4815  0.2235
   16MOL    H30 3060   2.123   4.244   5.525 -0.5357 -0.9197  0.7748
   16MOL    H31 3061   2.014   4.210   5.651 -1.9133 -0.2573 -2.9124
   16MOL    C32 3062   2.207   4.600   5.574 -0.2437 -0.3161 -0.7494
   16MOL    C33 3063   2.316   4.553   5.674 -0.1995 -0.1480  0.4060
   16MOL    C34 3064   2.354   4.656   5.777  0.1218  0.5848 -0.5996
   16MOL    O35 3065   2.422   4.753   5.761  0.9277 -0.2509  0.3243
   16MOL    N36 3066   2.290   4.631   5.888  0.3833 -0.1549 -0.5756
   16MOL    H37 3067   2.138   4.668   5.624  2.7719  1.6072  0.9409
   16MOL    H38 3068   2.251   4.658   5.493 -2.5648  1.0445 -1.0938
   16MOL    H39 3069   2.278   4.463   5.723 -0.8620  0.1326  0.4235
   16MOL    H40 3070   2.310   4.702   5.957  0.1057 -0.3723 -0.2746
   16MOL    H41 3071   2.225   4.554   5.898 -0.1634  0.5872  1.8011
   16MOL    C42 3072   2.439   4.504   5.597 -0.0818  0.4458 -0.0862
   16MOL    C43 3073   2.508   4.382   5.659 -0.0999  0.0636 -0.1174
   16MOL    C44 3074   2.658   4.376   5.614 -0.1938 -0.1326  0.5047
   16MOL    O45 3075   2.682   4.355   5.493 -0.5212  0.5714 -0.7728
   16MOL    N46 3076   2.747   4.392   5.707 -0.0250 -0.1042 -0.3244
   16MOL    H47 3077   2.506   4.587   5.574 -1.7095  1.5821 -0.8238
   16MOL    H48 3078   2.393   4.481   5.501 -1.5618  2.8683  0.0125
   16MOL    H49 3079   2.504   4.414   5.763  1.0097  0.7844 -0.2815
   16MOL    H50 3080   2.720   4.400   5.804  2.4080 -0.6426  0.4316
   16MOL    H51 3081   2.841   4.369   5.681 -1.5488 -3.8710 -2.8433
   16MOL    C52 3082   2.436   4.247   5.638 -0.1403  0.1443 -0.2905
   16MOL    C53 3083   2.461   4.149   5.745 -0.2933  0.1691  0.1540
   16MOL    C54 3084   2.596   4.069   5.738 -0.4509 -0.4868 -0.1319
   16MOL    O55 3085   2.622   3.989   5.647 -0.4317  0.2608 -0.2307
   16MOL    N56 3086   2.683   4.102   5.838 -0.8378  0.6996  0.1960
   16MOL    H57 3087   2.461   4.215   5.537  3.0860  1.2159  0.1146
   16MOL    H58 3088   2.328   4.262   5.629  0.0559  0.6765 -1.9555
   16MOL    H59 3089   2.467   4.207   5.837  2.5756  0.0115  0.1091
   16MOL    H60 3090   2.771   4.055   5.854 -0.7935  0.0035 -1.9334
   16MOL    H61 3091   2.655   4.171   5.907 -2.1641  2.0658 -1.6551
   16MOL    C62 3092   2.342   4.057   5.760 -0.1676 -0.6861 -0.6023
   16MOL    C63 3093   2.267   4.043   5.896  0.4997 -0.3687 -0.2824
   16MOL    C64 3094   2.219   4.181   5.945 -0.2400 -0.2793  0.3034
   16MOL    O65 3095   2.285   4.271   5.996 -0.1073 -0.0247 -0.1144
   16MOL    N66 3096   2.090   4.198   5.944  0.4906 -0.2632  0.3520
   16MOL    H67 3097   2.377   3.964   5.716 -0.3299 -0.5311 -1.0646
   16MOL    H68 3098   2.261   4.081   5.692 -0.1385  1.0381 -0.0449
   16MOL    H69 3099   2.180   3.980   5.876  1.1943 -1.7819  1.0550
   16MOL    H70 3100   2.038   4.120   5.907  2.1637 -1.0225 -0.4100
   16MOL    H71 3101   2.052   4.291   5.958  1.0801  0.0423 -0.0645
   16MOL    C72 3102   2.369   3.975   5.991 -0.6451 -0.2714  0.1807
   16MOL    C73 3103   2.325   3.951   6.130 -0.4617 -0.4283  0.1884
   16MOL    C74 3104   2.448   3.942   6.226  0.4868  0.0529 -0.3227
   16MOL    O75 3105   2.516   4.043   6.249  0.3404 -0.0695 -0.0177
   16MOL    N76 3106   2.476   3.825   6.286  0.7636 -1.0553 -0.4368
   16MOL    H77 3107   2.453   4.043   6.000 -0.5243 -0.3993  0.0372
   16MOL    H78 3108   2.401   3.879   5.949  1.0229  0.1471  0.4448
   16MOL    H79 3109   2.269   4.038   6.164  0.0062  0.9852 -2.5200
   16MOL    H80 3110   2.408   3.751   6.280 -0.5376 -0.0503  1.4590
   16MOL    H81 3111   2.554   3.819   6.350  1.3221 -1.8403 -1.1898
   16MOL    C82 3112   2.230   3.829   6.132  0.8215 -0.2041 -0.4002
   16MOL    C83 3113   2.119   3.842   6.239  0.1635  0.5078 -0.3212
   16MOL    C84 3114   2.118   3.712   6.327 -0.0886  0.1643 -0.5208
   16MOL    O85 3115   2.217   3.677   6.396 -0.0337  0.0650 -0.3285
   16MOL    N86 3116   2.008   3.634   6.331 -0.3346 -0.1621 -0.0125
   16MOL    H87 3117   2.289   3.738   6.147  2.5830  1.2338  1.7572
   16MOL    H88 3118   2.188   3.811   6.033  0.3836  0.9594 -0.4275
   16MOL    H89 3119   2.128   3.920   6.315 -1.2541 -0.4316  0.8298
   16MOL    H90 3120   1.930   3.671   6.279 -0.4212 -0.2543  0.0519
   16MOL    H91 3121   1.987   3.556   6.391 -0.0003 -0.2694 -0.0318
   16MOL    C92 3122   1.990   3.874   6.171  0.1362 -0.1975  0.7264
   16MOL    C93 3123   1.873   3.926   6.259 -0.5202 -0.6121  0.1200
   16MOL    C94 3124   1.733   3.871   6.224 -0.0594 -1.4619  0.1962
   16MOL    O95 3125   1.715   3.857   6.102  0.4535 -0.1367 -0.7059
   16MOL    N96 3126   1.643   3.836   6.318 -0.0903  0.1206 -0.7820
   16MOL    H97 3127   1.961   3.781   6.123 -0.7793  0.7948 -0.6719
   16MOL    H98 3128   2.004   3.948   6.092 -2.6547 -0.2047  0.1662
   16MOL    H99 3129   1.896   3.901   6.363  1.9698 -2.4089 -0.8040
   16MOL   H100 3130   1.545   3.819   6.302 -0.5208 -0.5946  2.3151
   16MOL   H101 3131   1.672   3.815   6.412 -0.3511 -1.1763 -0.9787
   16MOL   C102 3132   1.885   4.080   6.246  0.3117 -0.4588 -0.8775
   16MOL   C103 3133   1.845   4.167   6.373 -0.3381  0.0332  0.2581
   16MOL   C104 3134   1.693   4.158   6.412  0.1971  0.2244  0.4993
   16MOL   O105 3135   1.610   4.197   6.327 -0.0337  0.3503  0.4467
   16MOL   N106 3136   1.664   4.106   6.524  0.1388  0.3646 -0.0172
   16MOL   H107 3137   1.816   4.105   6.165 -0.7333 -0.3467  0.0309
   16MOL   H108 3138   1.980   4.116   6.206  1.1486  0.1796  1.6162
   16MOL   H109 3139   1.905   4.120   6.450  1.6018  0.1557 -1.1338
   16MOL   H110 3140   1.741   4.090   6.587 -0.6779  0.2224  0.9479
   16MOL   H111 3141   1.574   4.110   6.570  0.7265 -1.7169  1.3386
   16MOL   C112 3142   1.871   4.319   6.338  0.4905 -0.5046 -0.1635
   16MOL   C113 3143   1.958   4.400   6.439  0.2574 -0.1490 -0.1397
   16MOL   C114 3144   1.902   4.410   6.583 -0.2418  0.5169 -0.0518
   16MOL   O115 3145   1.808   4.484   6.601  0.1424  0.1251  0.0850
   16MOL   N116 3146   1.973   4.353   6.684 -0.1043  0.5076 -0.1535
   16MOL   H117 3147   1.778   4.374   6.326  2.5363  2.9453 -1.0002
   16MOL   H118 3148   1.919   4.321   6.240  1.8432  0.0984  0.4836
   16MOL   H119 3149   2.046   4.337   6.447  0.7693  0.5641 -0.0961
   16MOL   H120 3150   2.046   4.289   6.657 -0.4192  0.0997 -0.0418
   16MOL   H121 3151   1.961   4.378   6.781 -1.7587  4.1624 -1.2096
   16MOL   C122 3152   1.982   4.538   6.383 -0.2227  0.0344 -0.1470
   16MOL   C123 3153   2.068   4.551   6.260 -0.0524 -0.3314  0.0333
   16MOL   C124 3154   1.987   4.562   6.130 -0.1191  0.1385  0.4547
   16MOL   O125 3155   2.009   4.483   6.041 -0.4235 -0.3665  0.1901
   16MOL   N126 3156   1.894   4.650   6.122  0.0504  0.0231 -0.5829
   16MOL   H127 3157   2.036   4.588   6.464  0.3893  1.2693 -1.3043
   16MOL   H128 3158   1.884   4.586   6.381 -2.2289 -3.9127 -1.0680
   16MOL   H129 3159   2.091   4.656   6.278  3.2734 -0.6710 -1.9046
   16MOL   H130 3160   1.845   4.645   6.034  2.0083 -1.0844 -1.6414
   16MOL   H131 3161   1.875   4.719   6.194 -0.3353 -0.8482  0.1576
   16MOL   C132 3162   2.196   4.466   6.250  0.1020  0.1742  0.7198
   16MOL   C133 3163   2.306   4.510   6.357 -0.5147 -0.6053  0.3435
   16MOL   C134 3164   2.368   4.641   6.315  0.1388  0.4216  0.1133
   16MOL   O135 3165   2.377   4.675   6.197  0.2878 -0.4309 -0.2430
   16MOL   N136 3166   2.410   4.717   6.415 -0.5950  0.1666  0.4890
   16MOL   H137 3167   2.233   4.480   6.149 -0.3425 -1.2143  0.3423
   16MOL   H138 3168   2.171   4.359   6.247  1.0257 -0.0680  1.4567
   16MOL   H139 3169   2.254   4.532   6.450  1.6569  3.1547  0.8182
   16MOL   H140 3170   2.452   4.808   6.401  0.5241 -0.1268  1.8590
   16MOL   H141 3171   2.423   4.664   6.500 -1.3139 -0.9334 -0.0765
   16MOL   C142 3172   2.397   4.392   6.379  0.2883 -0.1248 -0.4830
   16MOL   C143 3173   2.508   4.390   6.492  0.5912 -0.6997 -0.0832
   16MOL   C144 3174   2.472   4.461   6.622  0.2016 -0.1236  0.7295
   16MOL   O145 3175   2.491   4.576   6.642 -0.7351 -0.5898 -0.4891
   16MOL   N146 3176   2.417   4.393   6.719 -0.6719 -0.2238 -0.4749
   16MOL   H147 3177   2.439   4.348   6.288  3.0887 -0.3124  0.8545
   16MOL   H148 3178   2.329   4.320   6.424 -1.1650  0.1251 -2.2351
   16MOL   H149 3179   2.517   4.284   6.515 -0.2596 -0.5696  0.8602
   16MOL   H150 3180   2.407   4.440   6.808  0.1511  2.4742 -1.7262
   16MOL   H151 3181   2.384   4.302   6.692  1.5765 -0.9273 -0.9345
   16MOL   C152 3182   2.646   4.447   6.443  0.5321 -0.2402 -0.0420
   16MOL   C153 3183   2.717   4.363   6.336 -0.0404 -0.2626  0.3437
   16MOL   C154 3184   2.800   4.243   6.390  0.6955 -0.0225  0.4614
   16MOL   O155 3185   2.918   4.257   6.428  0.1574  0.2885  0.4958
   16MOL   N156 3186   2.740   4.122   6.388  0.1740  0.2819  0.1700
   16MOL   H157 3187   2.716   4.455   6.526 -0.0839 -0.2348  0.4917
   16MOL   H158 3188   2.634   4.550   6.409  0.0036  0.4526  2.1296
   16MOL   H159 3189   2.641   4.308   6.281 -0.3179 -0.7074  1.1735
   16MOL   H160 3190   2.648   4.101   6.351  0.2173 -0.7663  0.6348
   16MOL   H161 3191   2.797   4.042   6.410 -0.1910  0.2552  1.0111
   16MOL   C162 3192   2.807   4.433   6.229 -0.8232 -0.4646 -0.8336
   16MOL   C163 3193   2.715   4.521   6.134 -0.0591  1.0756  0.7214
   16MOL   C164 3194   2.622   4.436   6.047  0.0693  0.1913 -0.0140
   16MOL   O165 3195   2.661   4.342   5.979  0.3077 -0.3189 -0.7057
   16MOL   N166 3196   2.493   4.473   6.046 -0.1449 -0.3619  0.3230
   16MOL   H167 3197   2.887   4.376   6.181 -0.8502 -0.4411 -0.9072
   16MOL   H168 3198   2.867   4.502   6.289 -0.8830  1.3290 -2.7761
   16MOL   H169 3199   2.654   4.584   6.199  2.9244  2.8312  1.9851
   16MOL   H170 3200   2.423   4.404   6.025 -0.2061 -0.0956 -0.3362
   16MOL   H171 3201   2.453   4.550   6.098  0.9428 -0.7098  1.7112
   16MOL   C172 3202   2.785   4.639   6.055  0.7542 -0.0974 -0.0988
   16MOL   C173 3203   2.693   4.753   5.996 -0.6659  0.9146 -0.3978
   16MOL   C174 3204   2.768   4.818   5.877 -0.2956  0.1503 -0.6099
   16MOL   O175 3205   2.886   4.844   5.886  0.1437 -0.1473 -0.2588
   16MOL   N176 3206   2.694   4.848   5.770 -0.1865  0.0645  0.3619
   16MOL   H177 3207   2.848   4.598   5.976  1.3308  2.8594 -1.2342
   16MOL   H178 3208   2.860   4.680   6.122 -0.5360 -0.1643  1.4254
   16MOL   H179 3209   2.608   4.698   5.956 -0.6430  1.1439 -0.7637
   16MOL   H180 3210   2.747   4.894   5.698  0.4964  1.4972  1.7612
   16MOL   H181 3211   2.600   4.819   5.748  0.4526 -0.3300 -1.9323
   16MOL   C182 3212   2.649   4.859   6.101 -0.2174 -0.1652  0.6706
   16MOL   C183 3213   2.551   4.971   6.058 -0.5194 -0.5243 -0.3797
   16MOL   C184 3214   2.630   5.096   6.015 -0.6990 -0.1991  0.5512
   16MOL   O185 3215   2.725   5.147   6.084  0.2214  0.0113  0.5031
   16MOL   N186 3216   2.591   5.160   5.906  0.0344 -0.3763  0.3313
   16MOL   H187 3217   2.744   4.904   6.131 -0.2547  0.1500  0.3252
   16MOL   H188 3218   2.602   4.810   6.186 -0.3354 -0.6651  0.3167
   16MOL   H189 3219   2.493   4.929   5.976  1.6098 -1.3063 -1.5476
   16MOL   H190 3220   2.511   5.123   5.857 -1.9077  3.0801  0.7371
   16MOL   H191 3221   2.613   5.257   5.889  1.0390 -0.8638 -1.2085
   16MOL   C192 3222   2.444   5.022   6.167 -0.2916 -0.1903 -0.0904
   16MOL   C193 3223   2.328   5.101   6.108 -0.2192  0.3400 -0.4120
   16MOL   C194 3224   2.236   5.007   6.036 -0.4348  0.2808  0.7174
   16MOL   O195 3225   2.225   5.003   5.912  0.4209  0.1957 -0.1298
   16MOL   N196 3226   2.176   4.923   6.116  0.0936  0.0648 -0.0310
   16MOL   H197 3227   2.504   5.082   6.236 -3.2364  1.4920  1.1270
   16MOL   H198 3228   2.414   4.944   6.237  1.3051 -0.9780 -0.2665
   16MOL   H199 3229   2.273   5.152   6.186  3.0092  0.2943  1.9880
   16MOL   H200 3230   2.181   4.940   6.215  3.7909  0.9428 -0.2996
   16MOL   H201 3231   2.108   4.862   6.071  0.1772  0.4717 -0.7044
   16MOL   H202 3232   2.375   5.185   6.056  0.6837  0.3842  0.4665
   17MOL     C1 3233   3.880   6.137   0.005 -0.4020  0.4646 -0.4000
   17MOL     C2 3234   3.998   6.232   0.025  0.2609  0.4402 -0.0901
   17MOL     C3 3235   4.029   6.317   7.561  0.0626 -0.5377  0.2485
   17MOL     O4 3236   4.080   6.274   7.454 -0.2637  0.4514 -0.2845
   17MOL     N5 3237   3.998   6.444   7.565 -0.4643 -0.4434 -0.4564
   17MOL     H6 3238   3.791   6.199   0.013 -1.8533 -1.6969  1.0395
   17MOL     H7 3239   3.876   6.095   7.562  1.5214  1.1844 -0.7810
   17MOL     H8 3240   3.970   6.303   0.103  2.8574  1.0898  0.2880
   17MOL     H9 3241   3.934   6.471   7.639  0.7400  1.2327  0.0060
   17MOL    H10 3242   4.044   6.519   7.515  1.1760  0.6676  2.5494
   17MOL    H11 3243   3.870   6.061   0.083 -1.1775 -0.4112 -1.3252
   17MOL    C12 3244   4.123   6.158   0.073  1.0081  0.1865 -0.0140
   17MOL    C13 3245   4.127   6.104   0.224 -0.0439  0.7184 -0.0379
   17MOL    C14 3246   4.098   6.212   0.325 -0.0506  0.0568 -0.5706
   17MOL    O15 3247   4.137   6.330   0.314  0.1013  0.1860 -0.2985
   17MOL    N16 3248   4.028   6.185   0.434 -0.2887  0.1590  0.3340
   17MOL    H17 3249   4.206   6.225   0.056  0.7508  0.1745 -1.3542
   17MOL    H18 3250   4.139   6.073   0.007 -0.8409 -0.6248  0.5403
   17MOL    H19 3251   4.058   6.019   0.224  1.6925 -0.7313  0.6314
   17MOL    H20 3252   4.020   6.267   0.493 -0.7651 -0.2978  0.9070
   17MOL    H21 3253   3.979   6.099   0.453  0.2055 -0.1298  0.3127
   17MOL    C22 3254   4.258   6.030   0.265  0.1435  0.3842 -0.8213
   17MOL    C23 3255   4.255   5.874   0.284 -0.5639 -0.0200 -0.7278
   17MOL    C24 3256   4.193   5.835   0.417 -0.2314  0.0393  0.2671
   17MOL    O25 3257   4.246   5.858   0.525 -0.1278  0.1540  0.3099
   17MOL    N26 3258   4.083   5.759   0.404  0.0019 -0.1920 -0.1939
   17MOL    H27 3259   4.292   6.064   0.363  0.6338  0.6866 -1.0964
   17MOL    H28 3260   4.339   6.062   0.199  2.0930 -1.5673  0.5559
   17MOL    H29 3261   4.196   5.834   0.202 -0.1074 -0.9261 -0.6195
   17MOL    H30 3262   4.058   5.745   0.308 -0.6065 -1.0744  0.0878
   17MOL    H31 3263   4.033   5.711   0.478  0.5102 -3.2484 -1.7526
   17MOL    C32 3264   4.400   5.819   0.272  0.8419 -0.1454  0.2532
   17MOL    C33 3265   4.438   5.791   0.123 -0.4005 -0.2687 -0.4444
   17MOL    C34 3266   4.371   5.663   0.051 -0.5083 -0.3609  0.1790
   17MOL    O35 3267   4.353   5.557   0.114 -0.4661  0.0940  0.4280
   17MOL    N36 3268   4.330   5.667   7.579  0.9087 -0.7796  0.8890
   17MOL    H37 3269   4.415   5.732   0.336  0.2647 -0.2431  0.2559
   17MOL    H38 3270   4.465   5.887   0.328  2.1902 -1.3166  0.1569
   17MOL    H39 3271   4.409   5.876   0.060 -1.0084  1.1806  1.7441
   17MOL    H40 3272   4.281   5.588   7.539 -2.9661  1.6048  0.5881
   17MOL    H41 3273   4.350   5.747   7.521  0.8795  0.4158  2.4736
   17MOL    C42 3274   4.589   5.777   0.125 -0.7590 -0.0452  0.2793
   17MOL    C43 3275   4.670   5.906   0.130  0.1375  0.3781 -0.0443
   17MOL    C44 3276   4.639   5.997   0.020 -0.2113 -0.8143 -0.1111
   17MOL    O45 3277   4.652   5.958   7.564 -0.2302 -0.3548 -0.2146
   17MOL    N46 3278   4.587   6.115   0.058  0.0450 -0.0121 -0.2903
   17MOL    H47 3279   4.619   5.720   0.037  0.8698  0.2795  0.6016
   17MOL    H48 3280   4.617   5.713   0.208 -0.3462  0.0835  0.2414
   17MOL    H49 3281   4.657   5.954   0.228 -0.3443 -0.8462  0.4936
   17MOL    H50 3282   4.561   6.188   7.651 -0.1936 -2.5397 -3.1719
   17MOL    H51 3283   4.575   6.131   0.157  3.3449  0.6527  0.0623
   17MOL    C52 3284   4.827   5.886   0.140  0.3153 -0.2399 -0.1087
   17MOL    C53 3285   4.877   5.827   0.279  0.1500 -0.1740 -0.4180
   17MOL    C54 3286   4.879   5.933   0.388  0.6958  0.2225 -0.5109
   17MOL    O55 3287   4.940   6.038   0.377  0.0756 -0.3466 -0.2561
   17MOL    N56 3288   4.822   5.899   0.507 -0.8420 -0.6170 -0.1734
   17MOL    H57 3289   4.875   5.980   0.116 -1.8454 -0.0384 -4.1107
   17MOL    H58 3290   4.855   5.829   0.052 -0.3912 -1.1772  0.2592
   17MOL    H59 3291   4.802   5.751   0.303 -0.1858 -0.4965 -2.3858
   17MOL    H60 3292   4.800   5.803   0.528 -0.2813 -0.7340 -0.0950
   17MOL    H61 3293   4.844   5.953   0.590  0.9985 -0.5644 -0.6664
   17MOL    C62 3294   5.018   5.753   0.266  0.6505  0.2074  0.3330
   17MOL    C63 3295   5.016   5.636   0.162 -0.0405  0.1741 -0.3223
   17MOL    C64 3296   4.897   5.539   0.172 -0.5268 -0.1472 -0.1934
   17MOL    O65 3297   4.837   5.511   0.071 -0.0019 -0.3189  0.3359
   17MOL    N66 3298   4.855   5.504   0.298  0.2590 -0.1064  0.0106
   17MOL    H67 3299   5.048   5.710   0.361 -2.3437 -0.6346  0.9566
   17MOL    H68 3300   5.089   5.827   0.231 -0.5596  1.0946 -0.3008
   17MOL    H69 3301   5.019   5.669   0.058 -0.1107 -2.1912 -1.0975
   17MOL    H70 3302   4.778   5.440   0.289 -1.2890  1.8612 -1.2392
   17MOL    H71 3303   4.894   5.530   0.388  0.5475  2.7600 -0.8755
   17MOL    C72 3304   5.137   5.545   0.171  0.4293 -0.4407 -0.0697
   17MOL    C73 3305   5.279   5.587   0.124  0.1111 -0.3971  0.7724
   17MOL    C74 3306   5.282   5.601   7.625  0.1083  0.1634  0.2690
   17MOL    O75 3307   5.212   5.537   7.549  0.7599  0.0278 -0.1267
   17MOL    N76 3308   5.368   5.688   7.580  0.3980 -0.6831 -0.2675
   17MOL    H77 3309   5.114   5.456   0.114  0.3718 -0.0048 -0.7321
   17MOL    H78 3310   5.154   5.512   0.273  0.4614 -0.9023 -0.2260
   17MOL    H79 3311   5.298   5.689   0.157 -0.7952  0.2653 -0.6949
   17MOL    H80 3312   5.374   5.707   7.481  0.5816 -2.3907 -0.5986
   17MOL    H81 3313   5.434   5.726   7.647 -1.3242  0.0444  1.0489
   17MOL    C82 3314   5.395   5.500   0.177 -0.0357 -1.0152  0.0042
   17MOL    C83 3315   5.403   5.354   0.136 -0.1317 -0.0830  0.7739
   17MOL    C84 3316   5.307   5.264   0.216  0.6324  0.9044  0.7508
   17MOL    O85 3317   5.324   5.230   0.330  0.6285 -0.8384 -0.6689
   17MOL    N86 3318   5.197   5.218   0.153 -0.2279  0.4559 -0.3562
   17MOL    H87 3319   5.403   5.506   0.286 -1.2451  2.8254 -0.0257
   17MOL    H88 3320   5.488   5.547   0.146 -0.2986 -0.3904  0.1437
   17MOL    H89 3321   5.362   5.343   0.035  0.3756  1.8818  0.3424
   17MOL    H90 3322   5.175   5.232   0.055  1.9957 -0.1309 -0.9659
   17MOL    H91 3323   5.123   5.175   0.206  0.4659  1.3989  1.4291
   17MOL    C92 3324   5.545   5.302   0.123  0.1457  0.5432  0.6926
   17MOL    C93 3325   5.579   5.151   0.094 -0.0246  0.2882 -0.0399
   17MOL    C94 3326   5.502   5.085   7.636 -0.5518 -0.2217  0.3774
   17MOL    O95 3327   5.389   5.028   7.653  0.7239  0.2510  0.0036
   17MOL    N96 3328   5.562   5.088   7.521 -0.2849  0.1134 -0.4167
   17MOL    H97 3329   5.583   5.321   0.223  1.9611 -1.7887  0.4996
   17MOL    H98 3330   5.606   5.349   0.046 -1.8806  1.0247 -0.6457
   17MOL    H99 3331   5.683   5.160   0.063 -0.2665  1.6284 -0.5094
   17MOL   H100 3332   5.649   5.139   7.508 -0.1508 -0.2515 -1.0127
   17MOL   H101 3333   5.521   5.038   7.443 -0.1648 -0.4628 -0.1142
   17MOL   C102 3334   5.573   5.066   0.219 -0.0648 -0.0518 -0.1881
   17MOL   C103 3335   5.667   4.943   0.208 -0.1240 -0.8138  0.0885
   17MOL   C104 3336   5.614   4.837   0.307  0.3185 -0.0836 -0.3395
   17MOL   O105 3337   5.594   4.873   0.425 -0.4379  1.0139  0.0466
   17MOL   N106 3338   5.592   4.714   0.270 -0.3406 -0.0695  0.0494
   17MOL   H107 3339   5.470   5.032   0.236  0.5185 -0.8804  1.8358
   17MOL   H108 3340   5.610   5.111   0.311 -1.0764  0.1217  0.1420
   17MOL   H109 3341   5.649   4.901   0.110 -1.3762 -0.5733  0.2128
   17MOL   H110 3342   5.582   4.647   0.345  1.1684 -0.8941 -0.4579
   17MOL   H111 3343   5.627   4.682   0.181 -0.9905 -1.0869  0.1425
   17MOL   C112 3344   5.816   4.970   0.232  0.0010 -0.4241 -0.0546
   17MOL   C113 3345   5.915   4.854   0.199 -0.0694  0.3268 -0.1919
   17MOL   C114 3346   6.038   4.850   0.297 -1.0477  1.0116  0.5290
   17MOL   O115 3347   6.111   4.945   0.289  0.4238  0.4520  0.3722
   17MOL   N116 3348   6.064   4.746   0.375  0.1557 -0.8111 -0.4515
   17MOL   H117 3349   5.820   5.005   0.336 -3.6646  1.4495 -0.4601
   17MOL   H118 3350   5.845   5.056   0.171  2.0589 -0.3937  0.9032
   17MOL   H119 3351   5.856   4.765   0.218  1.7066 -1.1237 -1.3121
   17MOL   H120 3352   6.118   4.772   0.457 -1.7054 -0.7774  0.8025
   17MOL   H121 3353   5.998   4.669   0.378 -1.9618  1.0052  3.1423
   17MOL   C122 3354   5.953   4.849   0.053  0.3971 -0.0502  0.6132
   17MOL   C123 3355   5.988   4.707   7.648  0.6074  0.0246 -0.3208
   17MOL   C124 3356   6.099   4.632   0.057  0.5745 -0.1382 -0.9566
   17MOL   O125 3357   6.208   4.683   0.063  0.0720 -0.3364 -0.2533
   17MOL   N126 3358   6.075   4.512   0.107  0.4140  0.6355  0.3587
   17MOL   H127 3359   6.041   4.914   0.045 -0.4540  1.0472  0.1211
   17MOL   H128 3360   5.887   4.898   7.638  2.8817  0.4369 -1.4317
   17MOL   H129 3361   5.888   4.665   0.002 -0.8610  3.4661 -0.0482
   17MOL   H130 3362   5.992   4.464   0.076  1.7755 -0.7467 -1.2760
   17MOL   H131 3363   6.143   4.462   0.164 -0.2295  1.5137  1.9100
   17MOL   C132 3364   6.010   4.716   7.490 -0.3400 -0.4349  0.2255
   17MOL   C133 3365   5.965   4.589   7.397  0.4837  0.4658  0.0597
   17MOL   C134 3366   5.829   4.526   7.427 -0.6701 -0.5519 -0.6258
   17MOL   O135 3367   5.814   4.463   7.531 -0.1499  0.1281 -0.6259
   17MOL   N136 3368   5.733   4.543   7.334 -0.0037  0.1867 -0.0347
   17MOL   H137 3369   6.115   4.740   7.471 -0.0845  1.6011  3.7297
   17MOL   H138 3370   5.956   4.799   7.445  0.1988  0.0239  0.4176
   17MOL   H139 3371   5.951   4.638   7.301  0.2878 -1.0569 -0.7056
   17MOL   H140 3372   5.757   4.593   7.249 -0.5459  0.6423  0.0746
   17MOL   H141 3373   5.642   4.499   7.339 -0.6418  1.3464 -1.2339
   17MOL   C142 3374   6.072   4.477   7.387 -1.3690 -0.7829  0.5904
   17MOL   C143 3375   6.195   4.498   7.300  0.3137 -0.4692  0.3209
   17MOL   C144 3376   6.327   4.540   7.378  0.3257  0.2295  0.4079
   17MOL   O145 3377   6.391   4.643   7.357 -0.2712  0.6158  0.3484
   17MOL   N146 3378   6.371   4.445   7.453 -0.5077  0.4994  0.8147
   17MOL   H147 3379   6.021   4.387   7.352  1.7723 -3.2753  2.1448
   17MOL   H148 3380   6.098   4.449   7.489  0.3860  0.5616  0.5267
   17MOL   H149 3381   6.207   4.395   7.267  3.7784 -0.4844  1.4045
   17MOL   H150 3382   6.445   4.470   7.518  1.1219 -1.0284 -0.3868
   17MOL   H151 3383   6.321   4.358   7.466 -2.7629  1.6625  0.1453
   17MOL   C152 3384   6.184   4.578   7.173 -0.5049  0.1213  0.1550
   17MOL   C153 3385   6.296   4.555   7.062  0.6414 -0.1583  0.0014
   17MOL   C154 3386   6.361   4.688   7.018 -0.2569 -0.1869 -0.2293
   17MOL   O155 3387   6.295   4.785   6.979 -0.6286  0.3649 -0.3174
   17MOL   N156 3388   6.495   4.692   7.023  0.1166 -0.3978 -0.1915
   17MOL   H157 3389   6.169   4.684   7.193  2.6576  0.5299  0.6065
   17MOL   H158 3390   6.100   4.544   7.113 -2.0004 -0.4980  2.5310
   17MOL   H159 3391   6.376   4.491   7.098 -0.2863 -2.2646 -1.5617
   17MOL   H160 3392   6.546   4.610   7.051 -1.8173 -1.6134 -0.1392
   17MOL   H161 3393   6.557   4.765   6.992  0.9992 -1.2120 -0.3531
   17MOL   C162 3394   6.236   4.497   6.927  0.0263  0.1348 -1.3920
   17MOL   C163 3395   6.344   4.449   6.824 -0.6333 -0.3237 -0.3839
   17MOL   C164 3396   6.273   4.447   6.691  0.1758  0.2587  0.1464
   17MOL   O165 3397   6.222   4.343   6.661  0.0519  0.0256  0.3487
   17MOL   N166 3398   6.277   4.543   6.600 -0.4052 -0.3925  0.5907
   17MOL   H167 3399   6.187   4.580   6.877  1.0819  0.3951 -2.0192
   17MOL   H168 3400   6.164   4.419   6.951 -0.2256  0.6039 -0.6235
   17MOL   H169 3401   6.414   4.532   6.828  0.2095 -1.0865  1.1239
   17MOL   H170 3402   6.254   4.528   6.503 -0.2711  1.6300  0.2265
   17MOL   H171 3403   6.325   4.629   6.622  0.6141 -0.1825 -2.3257
   17MOL   C172 3404   6.414   4.318   6.862 -0.2589 -0.3105 -0.0066
   17MOL   C173 3405   6.566   4.316   6.844 -0.2091  0.7124  0.4164
   17MOL   C174 3406   6.616   4.279   6.697  0.4755 -0.4413  0.0346
   17MOL   O175 3407   6.602   4.359   6.608  0.1639  0.1707 -0.1133
   17MOL   N176 3408   6.663   4.159   6.668 -0.1513  0.3535  0.0956
   17MOL   H177 3409   6.372   4.240   6.798 -2.2422  2.1565 -1.7905
   17MOL   H178 3410   6.381   4.274   6.956 -1.0366 -0.9287 -0.5566
   17MOL   H179 3411   6.620   4.407   6.869 -0.6245  0.4229  2.4531
   17MOL   H180 3412   6.700   4.140   6.576 -1.1647 -0.6671 -0.1051
   17MOL   H181 3413   6.647   4.079   6.728 -2.0741  0.0915 -0.7435
   17MOL   C182 3414   6.638   4.220   6.947  0.3513  0.3056  0.4883
   17MOL   C183 3415   6.630   4.259   7.095 -0.4403  0.1644  0.2703
   17MOL   C184 3416   6.721   4.385   7.119  0.0272  0.0921 -0.2961
   17MOL   O185 3417   6.666   4.494   7.132  0.5500 -0.3139  0.3332
   17MOL   N186 3418   6.853   4.376   7.127  0.5774 -0.1229  0.1344
   17MOL   H187 3419   6.744   4.204   6.928  0.4450  0.1267  1.1586
   17MOL   H188 3420   6.594   4.121   6.932  1.9826 -0.5282  1.1223
   17MOL   H189 3421   6.525   4.284   7.111 -0.9322 -1.9154  0.4880
   17MOL   H190 3422   6.905   4.463   7.123 -1.1761  0.9993  1.0998
   17MOL   H191 3423   6.890   4.282   7.122 -1.7717 -1.1608  1.5278
   17MOL   C192 3424   6.651   4.146   7.195  0.1721 -0.2986  0.6242
   17MOL   C193 3425   6.552   4.161   7.311 -0.0530  0.2623  0.3132
   17MOL   C194 3426   6.579   4.061   7.427 -1.2437  0.0493  0.9803
   17MOL   O195 3427   6.692   4.007   7.429 -0.7796 -0.6761  0.2265
   17MOL   N196 3428   6.482   4.029   7.510  0.4001  0.1474  0.4901
   17MOL   H197 3429   6.748   4.160   7.242  0.9343 -0.3387 -0.9068
   17MOL   H198 3430   6.635   4.049   7.149 -0.5948  0.6250 -1.0981
   17MOL   H199 3431   6.558   4.256   7.363 -0.4773  1.1025 -1.1303
   17MOL   H200 3432   6.498   3.947   7.567  0.3813  0.1740  0.5331
   17MOL   H201 3433   6.386   4.057   7.494 -0.3221 -1.6794  1.4202
   17MOL   H202 3434   6.449   4.168   7.273  0.6256  0.5654 -1.5483
   18MOL     C1 3435   6.339   7.536   7.518  0.6105 -0.2658 -0.2880
   18MOL     C2 3436   6.212   7.616   7.566 -0.2563 -0.2092  0.0155
   18MOL     C3 3437   6.240   0.026   0.039 -0.1324  0.1884 -0.0197
   18MOL     O4 3438   6.270   7.619   0.142 -0.8490 -0.0313 -0.4481
   18MOL     N5 3439   6.223   0.159   0.046  0.6937 -0.0026  0.5675
   18MOL     H6 3440   6.302   7.482   7.432 -0.0843  1.9426 -1.4071
   18MOL     H7 3441   6.419   7.607   7.496  1.5288 -0.5103  2.0224
   18MOL     H8 3442   6.199   0.033   7.488  1.8760 -1.1726 -1.2996
   18MOL     H9 3443   6.214   0.221   0.125  0.5881  0.5937  0.0955
   18MOL    H10 3444   6.187   0.196   7.615 -2.7418  0.8079  2.2403
   18MOL    H11 3445   6.384   7.462   7.584  2.0252  0.1013 -0.8172
   18MOL    C12 3446   6.095   7.510   7.574  0.1793  0.1154  0.1614
   18MOL    C13 3447   5.946   7.567   7.583  0.1045 -0.2923  0.6742
   18MOL    C14 3448   5.899   7.646   7.457  0.0736 -0.0775 -0.1580
   18MOL    O15 3449   5.971   0.077   7.405 -0.8676  0.1592 -0.8434
   18MOL    N16 3450   5.788   7.604   7.406 -0.2545  0.1227 -0.1664
   18MOL    H17 3451   6.103   7.442   0.002 -1.1110  0.3830  0.5081
   18MOL    H18 3452   6.102   7.443   7.489  0.7555 -0.4455  0.6422
   18MOL    H19 3453   5.877   7.483   7.595  0.7933 -0.7773  1.2512
   18MOL    H20 3454   5.755   7.638   7.316  1.3921  0.9726 -0.4661
   18MOL    H21 3455   5.729   7.535   7.449  0.1248  1.0667  1.9441
   18MOL    C22 3456   5.924   7.647   0.061 -0.1862 -0.1197  0.0147
   18MOL    C23 3457   5.778   7.651   0.118 -0.1160  0.4261  0.5459
   18MOL    C24 3458   5.694   0.099   0.051  0.1199  0.3921  0.0620
   18MOL    O25 3459   5.734   0.210   0.018 -0.3209  0.0150 -0.1217
   18MOL    N26 3460   5.574   0.063   0.010  0.1627  0.0893  0.1736
   18MOL    H27 3461   5.962   0.092   0.054 -1.3338  0.4530  1.8393
   18MOL    H28 3462   5.990   7.601   0.135 -0.9839 -1.3891 -0.0427
   18MOL    H29 3463   5.728   7.557   0.094 -0.9963  0.1306  3.2732
   18MOL    H30 3464   5.528   7.635   0.042  1.2045 -0.1881  0.9579
   18MOL    H31 3465   5.527   0.130   7.608  0.0093 -0.3879 -0.2568
   18MOL    C32 3466   5.770   0.002   0.271  0.4453  0.0752 -0.9208
   18MOL    C33 3467   5.818   7.527   0.349 -0.3824 -0.1394 -0.1681
   18MOL    C34 3468   5.719   7.417   0.327 -0.7044 -0.5652  0.0604
   18MOL    O35 3469   5.619   7.405   0.392 -0.6425 -0.1898 -0.0774
   18MOL    N36 3470   5.743   7.330   0.228 -0.5040 -0.6469 -0.6479
   18MOL    H37 3471   5.671   0.034   0.304  0.6620  0.4327 -0.6144
   18MOL    H38 3472   5.836   0.084   0.297  0.9423 -0.2317 -1.1917
   18MOL    H39 3473   5.913   7.491   0.309 -1.4112  0.3857 -3.1999
   18MOL    H40 3474   5.684   7.250   0.209 -2.3959 -0.2306  3.0237
   18MOL    H41 3475   5.815   7.345   0.159 -1.4965  0.3308 -1.4965
   18MOL    C42 3476   5.848   7.538   0.503  0.3919 -0.5690 -0.5355
   18MOL    C43 3477   5.953   7.643   0.554 -0.6414 -0.3198  0.2042
   18MOL    C44 3478   6.077   7.621   0.471  0.1619 -0.6805  0.0244
   18MOL    O45 3479   6.133   7.508   0.468 -0.7350  0.2220  0.5509
   18MOL    N46 3480   6.116   0.063   0.390 -0.3602  0.1833 -0.2691
   18MOL    H47 3481   5.882   7.439   0.533 -1.6549 -0.2364  3.0887
   18MOL    H48 3482   5.761   7.553   0.567  0.3656  2.3520 -1.1907
   18MOL    H49 3483   5.916   0.088   0.546  0.0232 -0.1437 -0.6900
   18MOL    H50 3484   6.064   0.148   0.372  2.1662  1.7865 -0.2545
   18MOL    H51 3485   6.197   0.043   0.335  0.0544  1.6395 -0.2028
   18MOL    C52 3486   5.992   7.611   0.701  0.8567  0.3353 -0.3103
   18MOL    C53 3487   5.870   7.615   0.804  0.0029  0.2080 -0.7672
   18MOL    C54 3488   5.812   0.095   0.815 -0.8381  0.6300  0.2004
   18MOL    O55 3489   5.880   0.191   0.862  0.3775  0.9641 -0.3029
   18MOL    N56 3490   5.687   0.116   0.806  0.3960  0.0268  0.2282
   18MOL    H57 3491   6.072   0.022   0.731  3.1957 -2.2819 -0.4857
   18MOL    H58 3492   6.033   7.510   0.706  1.2380  0.4422 -1.1006
   18MOL    H59 3493   5.799   7.539   0.772 -0.6355  0.9186 -1.0800
   18MOL    H60 3494   5.622   0.051   0.764 -0.0521  2.2712 -2.7468
   18MOL    H61 3495   5.654   0.209   0.827 -2.0635 -0.3736 -1.5952
   18MOL    C62 3496   5.924   7.572   0.947  0.3682 -0.4779 -0.1594
   18MOL    C63 3497   5.840   7.460   1.011 -0.5822 -0.4262 -0.1730
   18MOL    C64 3498   5.698   7.510   1.036 -0.4506 -0.0589  0.0762
   18MOL    O65 3499   5.667   7.582   1.131  0.0160  0.4436 -0.2081
   18MOL    N66 3500   5.599   7.447   0.977 -0.2198  0.2292  0.0722
   18MOL    H67 3501   5.931   0.006   1.007 -1.8776  0.9797 -2.0346
   18MOL    H68 3502   6.025   7.532   0.938  0.8106  0.9550 -1.6796
   18MOL    H69 3503   5.854   7.380   0.939  1.1515  0.0887 -0.4409
   18MOL    H70 3504   5.508   7.460   1.018 -0.4211 -2.9303  0.7435
   18MOL    H71 3505   5.627   7.364   0.926 -0.0025  0.2631  0.1347
   18MOL    C72 3506   5.921   7.410   1.138 -0.2921 -0.0068 -0.5962
   18MOL    C73 3507   5.858   7.278   1.195 -0.0711 -0.3741  0.2155
   18MOL    C74 3508   5.797   7.293   1.335  0.3431 -0.3139  1.7262
   18MOL    O75 3509   5.801   7.218   1.430 -0.5080 -0.1346  0.4983
   18MOL    N76 3510   5.711   7.397   1.336 -0.8659 -0.0695  0.1264
   18MOL    H77 3511   5.926   7.492   1.211 -2.5260  0.9956 -1.5222
   18MOL    H78 3512   6.028   7.406   1.118  0.1081  0.9017  1.1949
   18MOL    H79 3513   5.777   7.246   1.129 -1.7643  1.7188  1.1914
   18MOL    H80 3514   5.683   7.445   1.252  1.2460  2.0622  0.5718
   18MOL    H81 3515   5.670   7.416   1.427  1.4655 -0.9809  1.4083
   18MOL    C82 3516   5.969   7.163   1.203 -0.5850 -0.7446  0.3897
   18MOL    C83 3517   5.915   7.019   1.195  0.8390  0.7075  0.2549
   18MOL    C84 3518   6.009   6.928   1.264  0.1814 -0.3322  0.0174
   18MOL    O85 3519   6.075   6.842   1.208  0.6257 -0.2288 -0.1166
   18MOL    N86 3520   6.014   6.952   1.393  0.4157  0.4491 -0.1810
   18MOL    H87 3521   6.032   7.174   1.291  1.9587 -1.0671 -1.3310
   18MOL    H88 3522   6.038   7.173   1.118  2.0101 -4.0296  2.0146
   18MOL    H89 3523   5.818   7.013   1.246  1.0266 -1.2719  0.4502
   18MOL    H90 3524   5.972   7.037   1.429  0.3913  0.7007 -0.7990
   18MOL    H91 3525   6.073   6.894   1.450  1.0925  0.0020 -1.3248
   18MOL    C92 3526   5.889   6.974   1.047  0.3155 -0.2194 -0.7474
   18MOL    C93 3527   5.750   6.907   1.020 -0.0514  0.0594  0.1760
   18MOL    C94 3528   5.626   7.006   0.997 -0.5803 -0.1168  0.3650
   18MOL    O95 3529   5.646   7.128   0.989  0.1869  0.1531 -0.5859
   18MOL    N96 3530   5.499   6.972   1.017  0.7354 -0.5057  0.6601
   18MOL    H97 3531   5.962   6.902   1.009  1.3711 -0.0126  0.8492
   18MOL    H98 3532   5.895   7.065   0.988 -2.8831  0.8779  0.5196
   18MOL    H99 3533   5.765   6.862   0.921 -0.0624 -0.0690  0.2328
   18MOL   H100 3534   5.482   6.878   1.050  0.2069  0.1266  2.2612
   18MOL   H101 3535   5.424   7.038   1.031  0.5036 -0.9104  1.3488
   18MOL   C102 3536   5.719   6.780   1.110 -0.8652  0.1663 -0.8174
   18MOL   C103 3537   5.647   6.660   1.048 -0.6970  0.0756  0.0259
   18MOL   C104 3538   5.614   6.552   1.149 -0.2351 -0.3268  0.1217
   18MOL   O105 3539   5.677   6.533   1.258 -0.2553 -0.2174  0.4033
   18MOL   N106 3540   5.519   6.465   1.118  0.0076 -0.0905  0.2616
   18MOL   H107 3541   5.663   6.823   1.193  1.3764  5.5252 -1.8565
   18MOL   H108 3542   5.809   6.739   1.156 -0.5295  1.1910 -0.5310
   18MOL   H109 3543   5.557   6.698   1.001 -1.0340 -1.6861 -0.7784
   18MOL   H110 3544   5.494   6.393   1.184 -1.5883 -0.9588 -1.2543
   18MOL   H111 3545   5.471   6.460   1.029 -0.4617  0.5051  0.4778
   18MOL   C112 3546   5.731   6.599   0.933  0.3943  0.3509 -0.2825
   18MOL   C113 3547   5.672   6.629   0.790  0.0678 -0.0223 -0.1763
   18MOL   C114 3548   5.570   6.517   0.742  0.0051  0.4181 -0.1044
   18MOL   O115 3549   5.599   6.401   0.756 -0.0033 -0.1287 -0.1167
   18MOL   N116 3550   5.464   6.561   0.675  0.3594 -0.2245 -0.2338
   18MOL   H117 3551   5.738   6.492   0.954 -0.3563  0.3803  0.1491
   18MOL   H118 3552   5.834   6.634   0.936  0.6114 -0.1278 -2.0197
   18MOL   H119 3553   5.607   6.717   0.791 -2.1091 -1.5644 -1.6389
   18MOL   H120 3554   5.459   6.662   0.674 -0.4224 -0.2275  1.4097
   18MOL   H121 3555   5.394   6.504   0.631 -0.1196  0.1306  0.0604
   18MOL   C122 3556   5.790   6.662   0.693 -0.3240 -0.7521  0.1482
   18MOL   C123 3557   5.885   6.551   0.638 -0.2461 -0.0038 -1.5959
   18MOL   C124 3558   6.029   6.592   0.657  0.2445  0.0419  0.2737
   18MOL   O125 3559   6.063   6.708   0.640  0.7999  0.6562  0.0121
   18MOL   N126 3560   6.112   6.496   0.692  0.4244  0.1120  0.1623
   18MOL   H127 3561   5.840   6.744   0.745  1.5318 -0.3127 -2.2338
   18MOL   H128 3562   5.742   6.725   0.618 -0.0078  1.3777  1.6786
   18MOL   H129 3563   5.852   6.465   0.696  3.1108  0.2184  0.7711
   18MOL   H130 3564   6.077   6.402   0.705  0.6077  0.5306  4.4081
   18MOL   H131 3565   6.209   6.517   0.708 -0.0867  2.5185  0.3010
   18MOL   C132 3566   5.867   6.521   0.488 -0.2493 -0.3979  1.1094
   18MOL   C133 3567   5.928   6.601   0.373 -0.1234  0.2049 -0.2153
   18MOL   C134 3568   5.872   6.747   0.364 -0.2859  0.5550  0.1385
   18MOL   O135 3569   5.767   6.775   0.294 -0.0626 -0.7931  0.6203
   18MOL   N136 3570   5.933   6.832   0.439 -0.4982 -0.5706  0.0865
   18MOL   H137 3571   5.760   6.531   0.475 -0.5459 -0.6106  3.2677
   18MOL   H138 3572   5.890   6.416   0.469 -1.1800 -0.4820  0.4207
   18MOL   H139 3573   6.036   6.603   0.390 -0.2155 -1.1733  0.6005
   18MOL   H140 3574   5.914   6.931   0.448 -0.2929 -0.5177 -0.0501
   18MOL   H141 3575   5.995   6.796   0.511  0.5219 -0.9979 -0.9865
   18MOL   C142 3576   5.900   6.531   0.236  0.1248  0.2723  0.2163
   18MOL   C143 3577   5.992   6.413   0.190  0.4525 -0.0833 -0.2310
   18MOL   C144 3578   6.135   6.437   0.214  0.1562 -0.6961  0.2281
   18MOL   O145 3579   6.198   6.510   0.141  0.1158  0.1381  0.6378
   18MOL   N146 3580   6.189   6.374   0.318 -0.4397  0.2054 -0.2721
   18MOL   H147 3581   5.902   6.605   0.156 -1.6557 -0.2444 -0.3291
   18MOL   H148 3582   5.796   6.497   0.236  0.3931 -0.5629  0.5731
   18MOL   H149 3583   5.965   6.324   0.246 -0.0155  0.3156  0.1871
   18MOL   H150 3584   6.141   6.316   0.385 -0.0811  0.2642  0.0293
   18MOL   H151 3585   6.289   6.366   0.318 -0.3956  0.7035 -0.8612
   18MOL   C152 3586   5.939   6.363   0.050 -0.4500 -0.1256  0.7771
   18MOL   C153 3587   6.016   6.255   7.627 -0.4606 -0.7707  0.8938
   18MOL   C154 3588   6.024   6.297   7.479 -0.0801  0.4684 -0.8219
   18MOL   O155 3589   5.938   6.365   7.427 -0.1241  0.4310 -0.0949
   18MOL   N156 3590   6.121   6.246   7.400 -0.2470 -0.5415 -0.6565
   18MOL   H157 3591   5.901   6.444   7.646  0.1148 -0.4921 -0.0673
   18MOL   H158 3592   5.847   6.314   0.082  0.0476 -1.3192  0.3969
   18MOL   H159 3593   6.119   6.266   0.005 -0.4195 -0.0756  0.5586
   18MOL   H160 3594   6.136   6.292   7.312  0.6857 -0.2194 -0.3363
   18MOL   H161 3595   6.186   6.176   7.433 -0.2622 -0.4404 -0.4092
   18MOL   C162 3596   5.995   6.113   0.014 -0.5849  0.1061  0.1726
   18MOL   C163 3597   6.112   6.062   0.108  0.3587 -0.6582 -0.2329
   18MOL   C164 3598   6.245   6.034   0.037 -0.4685  0.3337 -0.6343
   18MOL   O165 3599   6.246   6.038   7.573 -0.7432  0.2921  0.5758
   18MOL   N166 3600   6.350   6.030   0.113  0.1329  0.1077  0.4218
   18MOL   H167 3601   5.993   6.046   7.585  0.1138  1.2021 -0.7061
   18MOL   H168 3602   5.895   6.100   0.057  0.2763 -0.1492  2.1829
   18MOL   H169 3603   6.140   6.132   0.187 -0.3845 -1.8441  1.1180
   18MOL   H170 3604   6.434   6.023   0.057 -0.4568  0.2831 -0.4838
   18MOL   H171 3605   6.344   6.022   0.214 -0.3469 -1.3142  0.2899
   18MOL   C172 3606   6.074   5.944   0.193 -0.9133 -0.0677  0.1935
   18MOL   C173 3607   5.972   5.969   0.306  0.0298  0.8550 -0.4756
   18MOL   C174 3608   6.036   6.070   0.412 -0.5413  0.5456  0.9297
   18MOL   O175 3609   6.157   6.065   0.444 -0.0942  0.6033  0.5186
   18MOL   N176 3610   5.951   6.151   0.462 -0.4852  0.2499  0.2419
   18MOL   H177 3611   6.161   5.890   0.230 -2.0611 -2.3641 -0.3273
   18MOL   H178 3612   6.030   5.879   0.116 -1.1445  0.4930 -0.1465
   18MOL   H179 3613   5.880   6.010   0.263  0.3608  4.7603  2.2038
   18MOL   H180 3614   5.865   6.162   0.410 -0.5629 -2.7771 -0.3321
   18MOL   H181 3615   5.980   6.209   0.539  0.7964 -1.5650  1.1441
   18MOL   C182 3616   5.940   5.838   0.379 -0.0721 -0.2470 -0.6349
   18MOL   C183 3617   5.848   5.740   0.300 -0.2046  0.0819  0.6838
   18MOL   C184 3618   5.698   5.770   0.328  1.4478 -0.6856  0.2725
   18MOL   O185 3619   5.614   5.687   0.293 -0.2223  0.1003 -0.5827
   18MOL   N186 3620   5.663   5.894   0.361  0.1315 -0.3421 -0.0201
   18MOL   H187 3621   5.910   5.854   0.483  0.2209  0.8420 -0.7235
   18MOL   H188 3622   6.040   5.797   0.390  0.1315  0.4620  0.1660
   18MOL   H189 3623   5.860   5.759   0.194  0.0441 -0.8652  0.5336
   18MOL   H190 3624   5.725   5.971   0.378  2.0261 -1.2837 -2.4214
   18MOL   H191 3625   5.564   5.906   0.381  0.1939 -1.7519  1.3061
   18MOL   C192 3626   5.894   5.597   0.329 -0.1587 -0.0981  0.6884
   18MOL   C193 3627   5.864   5.485   0.223  0.3364  0.1929  0.9188
   18MOL   C194 3628   5.945   5.358   0.227  0.0624 -0.0525  0.0327
   18MOL   O195 3629   6.028   5.344   0.141  0.0372 -0.8516 -0.0751
   18MOL   N196 3630   5.922   5.259   0.309  0.1199 -0.3067  0.4629
   18MOL   H197 3631   5.853   5.563   0.424 -0.4357 -0.4541  0.4394
   18MOL   H198 3632   6.003   5.599   0.337 -0.1858  1.7845  1.0041
   18MOL   H199 3633   5.759   5.458   0.222  0.4501 -0.2414 -0.8792
   18MOL   H200 3634   5.977   5.176   0.294 -0.9607 -1.0671  0.6050
   18MOL   H201 3635   5.853   5.268   0.383  0.7918  0.9551  0.9500
   18MOL   H202 3636   5.873   5.521   0.120 -4.2528  0.9446  0.6961
   19MOL     C1 3637   1.043   2.543   5.101 -0.8415 -0.4123  0.6805
   19MOL     C2 3638   0.996   2.686   5.146 -0.3583  0.7053  1.1078
   19MOL     C3 3639   1.113   2.751   5.219 -0.0225 -0.1223 -0.6866
   19MOL     O4 3640   1.156   2.712   5.331 -0.2953 -0.1198 -0.1937
   19MOL     N5 3641   1.170   2.857   5.163  1.8335  0.0923 -0.2019
   19MOL     H6 3642   0.965   2.490   5.048  0.9258 -1.6927 -0.6853
   19MOL     H7 3643   1.131   2.529   5.037 -2.3710 -1.7024 -1.1831
   19MOL     H8 3644   0.984   2.736   5.051  3.0242 -1.8086 -0.7671
   19MOL     H9 3645   1.249   2.900   5.207  1.2759 -0.5027  1.4234
   19MOL    H10 3646   1.124   2.901   5.085  2.6226  0.4650 -0.4595
   19MOL    H11 3647   1.075   2.491   5.192  0.1453  1.1744  1.2745
   19MOL    C12 3648   0.871   2.696   5.223 -0.2221 -0.4297 -0.2474
   19MOL    C13 3649   0.797   2.831   5.233  0.0006 -0.0264 -0.5673
   19MOL    C14 3650   0.694   2.813   5.342  0.3009  0.2022  0.1387
   19MOL    O15 3651   0.587   2.756   5.318  0.6061  0.2607 -0.2627
   19MOL    N16 3652   0.727   2.858   5.466 -1.0886  0.2376  0.1437
   19MOL    H17 3653   0.894   2.657   5.322  1.4453  0.8800 -0.0964
   19MOL    H18 3654   0.799   2.628   5.177 -1.4049  0.5374  0.1423
   19MOL    H19 3655   0.868   2.909   5.259 -0.3553  0.3298 -0.6549
   19MOL    H20 3656   0.825   2.878   5.482 -0.9901 -0.6618  0.7030
   19MOL    H21 3657   0.658   2.853   5.538  0.7138 -0.9569  1.8475
   19MOL    C22 3658   0.739   2.862   5.094  0.6504  0.2672 -0.8427
   19MOL    C23 3659   0.681   3.010   5.096  0.1302 -0.3318  0.3459
   19MOL    C24 3660   0.561   3.043   5.005  0.0559  0.5434 -0.3192
   19MOL    O25 3661   0.506   3.150   5.002  0.2612 -0.5352  0.3967
   19MOL    N26 3662   0.514   2.945   4.932  0.1300  0.3960 -0.0281
   19MOL    H27 3663   0.660   2.793   5.065  1.3161 -0.0904 -1.8239
   19MOL    H28 3664   0.814   2.855   5.015  3.1362 -1.7488  1.6218
   19MOL    H29 3665   0.634   3.021   5.194  1.2616 -3.2260  1.2763
   19MOL    H30 3666   0.436   2.966   4.871  1.3284  0.1902 -1.6550
   19MOL    H31 3667   0.550   2.851   4.925  0.3830  0.5095 -0.2964
   19MOL    C32 3668   0.789   3.126   5.096 -0.5114 -0.0436  0.3893
   19MOL    C33 3669   0.871   3.169   4.974 -0.6408 -0.4251  0.1349
   19MOL    C34 3670   0.956   3.065   4.908  0.0710 -0.0710  0.8542
   19MOL    O35 3671   1.034   2.994   4.967 -1.1723  0.3522  0.1884
   19MOL    N36 3672   0.941   3.055   4.776  0.3031  0.2832 -1.0417
   19MOL    H37 3673   0.861   3.103   5.175 -1.9483  1.4839  2.1711
   19MOL    H38 3674   0.736   3.213   5.133 -2.1201 -0.9602  0.3042
   19MOL    H39 3675   0.794   3.209   4.908 -0.0699  1.8758  0.8058
   19MOL    H40 3676   0.881   3.126   4.736  0.4259  0.9218 -0.1107
   19MOL    H41 3677   1.001   2.988   4.731  0.7918  0.5153 -0.7339
   19MOL    C42 3678   0.964   3.290   5.016  0.4925  0.7822  0.8981
   19MOL    C43 3679   0.987   3.419   4.932  0.1307 -0.6882  0.0108
   19MOL    C44 3680   0.994   3.396   4.775 -0.2127 -0.1177 -0.3161
   19MOL    O45 3681   1.105   3.373   4.720  0.1230 -0.5501 -0.1428
   19MOL    N46 3682   0.883   3.394   4.713 -0.5035 -0.1152  0.7094
   19MOL    H47 3683   1.060   3.255   5.055 -0.5461 -1.2863  1.6918
   19MOL    H48 3684   0.914   3.326   5.106  1.7929  2.2679  1.0348
   19MOL    H49 3685   0.905   3.488   4.954 -0.6718 -1.1771 -1.3360
   19MOL    H50 3686   0.796   3.413   4.761 -0.8407 -0.4122  0.2270
   19MOL    H51 3687   0.877   3.370   4.615 -1.1879  1.5133  0.3398
   19MOL    C52 3688   1.113   3.494   4.989  0.2773  0.3633  0.4096
   19MOL    C53 3689   1.141   3.631   4.923 -0.0410  0.1241  0.0671
   19MOL    C54 3690   1.280   3.670   4.963 -0.0587 -0.0081 -0.3366
   19MOL    O55 3691   1.315   3.701   5.074 -0.5721 -0.2963 -0.1319
   19MOL    N56 3692   1.371   3.666   4.868 -0.0866 -0.3882 -0.1193
   19MOL    H57 3693   1.200   3.434   4.964 -0.0879  0.1975 -0.4918
   19MOL    H58 3694   1.104   3.501   5.098  2.6501  1.5062  0.5564
   19MOL    H59 3695   1.152   3.610   4.816 -0.5042 -0.1113  0.0638
   19MOL    H60 3696   1.345   3.615   4.785  3.0527 -3.5659  0.7195
   19MOL    H61 3697   1.466   3.698   4.882 -1.6943  4.1217  1.1945
   19MOL    C62 3698   1.035   3.730   4.924  0.1865  0.0394 -0.1848
   19MOL    C63 3699   0.997   3.790   5.065  0.3822 -0.6433 -0.3316
   19MOL    C64 3700   0.873   3.716   5.111 -0.3723  0.1043 -0.3490
   19MOL    O65 3701   0.762   3.739   5.062 -0.3738 -0.2230 -0.1538
   19MOL    N66 3702   0.898   3.625   5.205 -0.5493  0.3576 -0.4937
   19MOL    H67 3703   0.953   3.718   4.852  0.6517  0.6201 -0.8254
   19MOL    H68 3704   1.094   3.808   4.876  3.0805 -2.4507 -0.7610
   19MOL    H69 3705   1.079   3.774   5.134 -1.1876  0.0012  1.7508
   19MOL    H70 3706   0.833   3.563   5.253  0.1612 -0.8384 -1.0538
   19MOL    H71 3707   0.990   3.609   5.242 -0.1222  0.3977 -1.5325
   19MOL    C72 3708   0.970   3.948   5.055 -0.0395 -0.1837  0.1272
   19MOL    C73 3709   0.972   4.025   5.186 -0.3116  0.6325  0.3084
   19MOL    C74 3710   0.909   4.167   5.168 -0.3498  0.3941 -0.3880
   19MOL    O75 3711   0.833   4.217   5.255 -0.1151  0.1007 -0.1605
   19MOL    N76 3712   0.960   4.247   5.074  0.0533  0.0084 -0.0195
   19MOL    H77 3713   0.880   3.949   4.992 -1.2993 -1.1464  1.8829
   19MOL    H78 3714   1.049   3.991   4.993 -0.6935  1.3200  0.3181
   19MOL    H79 3715   0.912   3.965   5.255 -0.7977  0.7003 -0.0507
   19MOL    H80 3716   1.015   4.204   5.001 -0.3325  1.8066 -1.4114
   19MOL    H81 3717   0.929   4.343   5.072 -0.1508 -0.0819 -2.9030
   19MOL    C82 3718   1.107   4.038   5.250  0.3184 -0.3565 -0.6188
   19MOL    C83 3719   1.113   4.021   5.402 -0.8613 -0.4772 -0.2630
   19MOL    C84 3720   1.228   4.102   5.455  0.5941 -0.5947 -0.2156
   19MOL    O85 3721   1.225   4.225   5.458 -0.4543  0.0259  0.2031
   19MOL    N86 3722   1.341   4.041   5.498 -0.0275  0.0343 -0.1485
   19MOL    H87 3723   1.140   4.138   5.224 -2.9680  1.0463  0.3264
   19MOL    H88 3724   1.178   3.965   5.211 -0.3291 -0.9918 -0.6330
   19MOL    H89 3725   1.019   4.062   5.440 -1.1333 -1.3878  0.0611
   19MOL    H90 3726   1.342   3.940   5.499  1.2983  0.0198 -1.5115
   19MOL    H91 3727   1.416   4.092   5.542  0.7563  0.1032 -1.5246
   19MOL    C92 3728   1.119   3.869   5.437 -0.0764  0.2505 -0.2718
   19MOL    C93 3729   1.061   3.840   5.581 -0.0178 -0.2632  0.1251
   19MOL    C94 3730   1.107   3.703   5.632 -0.2860  0.0721  0.1527
   19MOL    O95 3731   1.110   3.609   5.551  0.0310  0.2323 -0.1099
   19MOL    N96 3732   1.149   3.685   5.753 -0.3453  0.1144 -0.7045
   19MOL    H97 3733   1.225   3.845   5.438  0.2562  1.6742  2.3494
   19MOL    H98 3734   1.063   3.808   5.365 -0.3958  0.6017 -0.3249
   19MOL    H99 3735   1.085   3.922   5.649  0.0213  1.1405 -1.5174
   19MOL   H100 3736   1.137   3.756   5.824  1.5914  0.0238 -0.2736
   19MOL   H101 3737   1.166   3.591   5.787 -0.4913  0.0979 -0.6783
   19MOL   C102 3738   0.905   3.847   5.568  0.1755 -0.1003  0.2333
   19MOL   C103 3739   0.813   3.831   5.690 -0.3113 -0.6914  0.2791
   19MOL   C104 3740   0.864   3.912   5.810 -0.4475 -0.8622  0.0208
   19MOL   O105 3741   0.951   3.867   5.889 -0.2408 -0.0834 -0.6869
   19MOL   N106 3742   0.807   4.030   5.827 -0.0037  0.4070  0.6805
   19MOL   H107 3743   0.874   3.786   5.483  1.9019  0.0568 -0.5199
   19MOL   H108 3744   0.891   3.951   5.538 -2.8758 -0.1517  1.2902
   19MOL   H109 3745   0.711   3.863   5.672  0.1946 -0.2336 -2.0235
   19MOL   H110 3746   0.731   4.060   5.769 -0.2599 -1.9258 -0.2313
   19MOL   H111 3747   0.835   4.087   5.906  1.0625  1.7302 -0.6206
   19MOL   C112 3748   0.808   3.681   5.724 -0.2512 -0.1375 -0.0774
   19MOL   C113 3749   0.718   3.647   5.849  0.0464  0.4523 -0.0218
   19MOL   C114 3750   0.799   3.603   5.968 -0.4265  0.2756  0.6056
   19MOL   O115 3751   0.887   3.514   5.965 -0.0422  0.7396 -0.3774
   19MOL   N116 3752   0.782   3.663   6.086 -0.2622 -0.3418  0.9439
   19MOL   H117 3753   0.901   3.632   5.754  0.2759  0.2511 -1.0691
   19MOL   H118 3754   0.786   3.624   5.634  1.6785 -1.1711  0.0747
   19MOL   H119 3755   0.653   3.732   5.870 -1.1689 -0.7751  1.2797
   19MOL   H120 3756   0.716   3.737   6.102  0.1935 -0.0692  1.5471
   19MOL   H121 3757   0.835   3.612   6.156  0.4987 -2.0993 -0.8442
   19MOL   C122 3758   0.619   3.536   5.819  0.3532 -0.2961  0.4652
   19MOL   C123 3759   0.534   3.560   5.688  0.1924  0.3304 -0.1310
   19MOL   C124 3760   0.455   3.692   5.682 -1.0253  0.4714  0.4059
   19MOL   O125 3761   0.391   3.733   5.787 -0.5324 -0.5691  0.3884
   19MOL   N126 3762   0.462   3.771   5.572  0.0641 -0.2692  0.1478
   19MOL   H127 3763   0.559   3.540   5.910 -2.5910  0.6859 -1.4520
   19MOL   H128 3764   0.671   3.440   5.814 -0.3312 -0.6610  0.3348
   19MOL   H129 3765   0.592   3.557   5.596  0.7947 -2.3635  0.3015
   19MOL   H130 3766   0.415   3.859   5.583  1.7763  0.7923 -0.6975
   19MOL   H131 3767   0.490   3.743   5.478 -2.1146 -3.6169  0.4306
   19MOL   C132 3768   0.452   3.433   5.667  0.0838 -0.1780  0.6316
   19MOL   C133 3769   0.347   3.405   5.781  0.3466 -0.3960 -0.2937
   19MOL   C134 3770   0.389   3.278   5.859 -0.9735 -0.1104  0.4040
   19MOL   O135 3771   0.399   3.170   5.806 -0.4120  0.1729 -0.2542
   19MOL   N136 3772   0.428   3.289   5.983  0.3136 -0.1659 -0.4744
   19MOL   H137 3773   0.518   3.349   5.648  0.8285  0.6440 -0.4993
   19MOL   H138 3774   0.407   3.453   5.570 -0.8531  0.6555  1.2333
   19MOL   H139 3775   0.345   3.480   5.860  1.2580 -0.2657 -0.3902
   19MOL   H140 3776   0.420   3.380   6.026  0.0773 -1.1128  1.5469
   19MOL   H141 3777   0.470   3.217   6.040  0.3097  1.0508  1.0969
   19MOL   C142 3778   0.210   3.376   5.719  0.6089 -0.5717 -0.0338
   19MOL   C143 3779   0.137   3.505   5.675  0.4167 -0.0611  0.3110
   19MOL   C144 3780   0.061   3.565   5.799 -0.1707  0.1845 -0.5543
   19MOL   O145 3781   7.600   3.527   5.826 -0.7511 -0.0032  0.0881
   19MOL   N146 3782   0.128   3.661   5.863  0.2420 -0.8465 -0.7901
   19MOL   H147 3783   0.138   3.333   5.788  1.1927  0.1489  1.0355
   19MOL   H148 3784   0.217   3.301   5.641  2.0847 -0.9653  0.4562
   19MOL   H149 3785   0.201   3.585   5.641 -1.0596  1.2487  0.5493
   19MOL   H150 3786   0.216   3.698   5.830  0.7159 -0.3452  0.9533
   19MOL   H151 3787   0.087   3.698   5.948  0.5817  0.0025 -0.9909
   19MOL   C152 3788   0.035   3.474   5.557  0.4061  0.6202 -0.4116
   19MOL   C153 3789   7.624   3.590   5.476 -0.4454  0.5998 -0.1327
   19MOL   C154 3790   0.036   3.721   5.492  0.1781  0.0086 -0.2096
   19MOL   O155 3791   7.646   3.797   5.575 -0.2215 -0.5727 -0.0642
   19MOL   N156 3792   0.141   3.752   5.412  0.0198  0.4104  0.0896
   19MOL   H157 3793   7.612   3.408   5.592 -0.5303  0.7127 -2.3281
   19MOL   H158 3794   0.083   3.415   5.479  0.8811  0.0792  0.2797
   19MOL   H159 3795   7.644   3.575   5.370  0.9346 -1.5585  0.4053
   19MOL   H160 3796   0.166   3.692   5.334 -0.7068  0.5854 -0.2829
   19MOL   H161 3797   0.181   3.843   5.426 -1.9110  1.5121 -1.2880
   19MOL   C162 3798   7.473   3.602   5.505 -0.0463 -0.8902 -0.9995
   19MOL   C163 3799   7.378   3.518   5.411 -0.9390 -0.4628 -0.2473
   19MOL   C164 3800   7.410   3.548   5.262  0.3404  0.8228 -0.2329
   19MOL   O165 3801   7.375   3.654   5.222  0.2178  0.1510 -0.1210
   19MOL   N166 3802   7.473   3.461   5.180 -0.5129  0.3454  0.2128
   19MOL   H167 3803   7.433   3.703   5.495 -1.4647 -1.2080  0.9912
   19MOL   H168 3804   7.459   3.570   5.608  0.5220 -2.7160 -1.4736
   19MOL   H169 3805   7.400   3.412   5.423 -1.1122 -0.4098  0.5188
   19MOL   H170 3806   7.494   3.497   5.088 -1.5325  1.5236  0.4345
   19MOL   H171 3807   7.519   3.374   5.203  1.5613  0.9954 -1.2978
   19MOL   C172 3808   7.231   3.541   5.448  0.3803  0.1487 -0.0999
   19MOL   C173 3809   7.186   3.442   5.559  0.2204  0.4117 -0.1910
   19MOL   C174 3810   7.145   3.296   5.510  0.8003 -0.1408  0.3434
   19MOL   O175 3811   7.061   3.272   5.417 -0.0180 -0.7830 -0.0101
   19MOL   N176 3812   7.193   3.189   5.571 -0.2615  0.0016 -0.4871
   19MOL   H177 3813   7.165   3.525   5.363  0.1961 -2.4324  0.4904
   19MOL   H178 3814   7.223   3.647   5.472 -0.1027  0.2999 -0.8965
   19MOL   H179 3815   7.277   3.437   5.618  2.0077  2.6366 -2.6705
   19MOL   H180 3816   7.159   3.098   5.546  0.1400  0.1109 -1.4671
   19MOL   H181 3817   7.255   3.201   5.650 -0.5661 -1.8106  0.0534
   19MOL   C182 3818   7.087   3.507   5.648 -0.6010  0.0867  0.3643
   19MOL   C183 3819   7.148   3.619   5.744 -0.0473  0.0710  0.0663
   19MOL   C184 3820   7.193   3.562   5.875 -0.0994  0.1081 -0.2216
   19MOL   O185 3821   7.104   3.520   5.950  0.6703 -0.4753 -0.0925
   19MOL   N186 3822   7.324   3.542   5.902  0.1446  0.0442 -0.5223
   19MOL   H187 3823   7.043   3.424   5.703 -0.4696 -0.4243 -0.2829
   19MOL   H188 3824   7.012   3.554   5.585 -1.7174 -0.6327  1.1295
   19MOL   H189 3825   7.228   3.673   5.692  0.9724  0.4220  1.9290
   19MOL   H190 3826   7.352   3.493   5.986 -0.2866  2.5652  1.1250
   19MOL   H191 3827   7.405   3.567   5.847  0.4409 -0.7467 -0.4558
   19MOL   C192 3828   7.044   3.731   5.769 -0.4667  0.1097  0.0190
   19MOL   C193 3829   7.005   3.829   5.654  0.5678  0.0403 -0.2310
   19MOL   C194 3830   7.110   3.930   5.606  0.2676 -0.5101 -0.6683
   19MOL   O195 3831   7.174   3.996   5.689 -0.3548  0.2217  0.2800
   19MOL   N196 3832   7.134   3.949   5.473  0.3082  0.0821  0.1314
   19MOL   H197 3833   7.069   3.788   5.859 -2.7990 -0.7876  1.2807
   19MOL   H198 3834   6.948   3.684   5.789 -0.9622 -0.1652 -2.8363
   19MOL   H199 3835   6.979   3.766   5.568  2.6485 -2.2468  0.7410
   19MOL   H200 3836   7.093   3.887   5.404  0.5939  0.1373 -0.0901
   19MOL   H201 3837   7.196   4.023   5.442  1.3915 -0.4709  0.9263
   19MOL   H202 3838   6.915   3.885   5.677  0.5702  0.7179 -1.7781
   20MOL     C1 3839   3.371   5.783   6.617 -0.0283 -0.1729  0.6245
   20MOL     C2 3840   3.221   5.750   6.600 -0.5543 -0.2358 -0.4599
   20MOL     C3 3841   3.159   5.713   6.729  0.1217  0.1616 -0.0154
   20MOL     O4 3842   3.136   5.599   6.769 -0.1349 -0.1936  1.1843
   20MOL     N5 3843   3.136   5.811   6.813 -0.3929  0.0021  0.3146
   20MOL     H6 3844   3.389   5.890   6.610 -0.4883 -0.1452 -0.3113
   20MOL     H7 3845   3.425   5.735   6.698  0.5223 -0.1016  0.3041
   20MOL     H8 3846   3.171   5.841   6.566 -1.4657 -1.3538 -2.1884
   20MOL     H9 3847   3.163   5.905   6.791 -0.4244 -0.1678 -0.4702
   20MOL    H10 3848   3.083   5.786   6.896 -1.7273 -1.7205 -1.0023
   20MOL    H11 3849   3.430   5.755   6.530  1.4517 -1.1605  1.9355
   20MOL    C12 3850   3.192   5.641   6.492 -0.0855  0.5820  0.2125
   20MOL    C13 3851   3.052   5.589   6.458 -0.7665  0.1578  0.3500
   20MOL    C14 3852   3.055   5.483   6.344  0.1422 -0.4173 -0.0633
   20MOL    O15 3853   3.058   5.520   6.226  0.3500 -0.6763 -0.3600
   20MOL    N16 3854   3.056   5.356   6.383  0.5203  0.9290  0.3616
   20MOL    H17 3855   3.260   5.563   6.524 -0.0656  0.2950 -0.5245
   20MOL    H18 3856   3.247   5.671   6.403  1.4611  0.5741  1.1587
   20MOL    H19 3857   3.006   5.539   6.543 -0.7988 -1.0801 -0.3884
   20MOL    H20 3858   3.042   5.281   6.317 -0.9398  1.0550  0.5037
   20MOL    H21 3859   3.062   5.341   6.483 -0.0602 -0.5478  0.1946
   20MOL    C22 3860   2.958   5.707   6.414 -0.5587 -0.2225 -0.0016
   20MOL    C23 3861   2.801   5.685   6.432  0.1452 -0.2801 -0.3253
   20MOL    C24 3862   2.765   5.681   6.581 -0.3627 -0.1124 -0.0484
   20MOL    O25 3863   2.741   5.577   6.640  0.1377 -0.5140  0.4972
   20MOL    N26 3864   2.728   5.795   6.633  0.0975  0.3824  0.9444
   20MOL    H27 3865   2.971   5.724   6.307 -0.1240 -0.3823  0.0262
   20MOL    H28 3866   2.982   5.805   6.455 -0.9537 -0.4034  0.6647
   20MOL    H29 3867   2.762   5.780   6.394 -0.8487 -0.0437  1.2604
   20MOL    H30 3868   2.700   5.786   6.730 -0.9158 -1.4005  0.5048
   20MOL    H31 3869   2.698   5.875   6.578 -1.1980 -0.5945  0.2136
   20MOL    C32 3870   2.750   5.561   6.349  0.0686 -0.2062  0.3784
   20MOL    C33 3871   2.592   5.549   6.350 -0.3096  0.3558 -0.0098
   20MOL    C34 3872   2.546   5.413   6.293  0.0615  0.4617  1.0180
   20MOL    O35 3873   2.555   5.394   6.174 -0.4295  0.6589 -0.1764
   20MOL    N36 3874   2.520   5.320   6.386  0.0432  0.2361  0.3953
   20MOL    H37 3875   2.792   5.467   6.386 -0.5515 -1.3572 -1.8077
   20MOL    H38 3876   2.793   5.570   6.250 -1.5251  0.2488 -0.2846
   20MOL    H39 3877   2.569   5.550   6.457 -1.1909  1.2620 -0.2052
   20MOL    H40 3878   2.513   5.336   6.485  0.8402  0.6751  0.3850
   20MOL    H41 3879   2.497   5.225   6.358 -3.9696  1.9186 -2.4529
   20MOL    C42 3880   2.520   5.666   6.284  0.3139  0.3767  0.0404
   20MOL    C43 3881   2.358   5.666   6.299  0.0304  0.4389 -0.2166
   20MOL    C44 3882   2.316   5.800   6.230 -0.4816  0.0966 -0.0375
   20MOL    O45 3883   2.362   5.910   6.265  0.1792  1.0451  0.6405
   20MOL    N46 3884   2.232   5.782   6.127 -0.2242 -0.3209 -0.4987
   20MOL    H47 3885   2.552   5.681   6.181 -0.2241 -0.4571 -0.2555
   20MOL    H48 3886   2.552   5.763   6.322  0.1308  0.2985  0.3989
   20MOL    H49 3887   2.310   5.587   6.242  0.5307  0.7178 -1.0407
   20MOL    H50 3888   2.210   5.688   6.099  0.7217 -0.7813  0.2833
   20MOL    H51 3889   2.205   5.858   6.065 -3.3522  0.3251  1.5289
   20MOL    C52 3890   2.316   5.658   6.442 -0.2808 -1.3665  0.2556
   20MOL    C53 3891   2.163   5.682   6.466  0.9101 -0.0995 -0.1984
   20MOL    C54 3892   2.150   5.724   6.616 -0.1635 -0.9213 -0.9663
   20MOL    O55 3893   2.206   5.658   6.708 -0.1699  0.1013  0.6676
   20MOL    N56 3894   2.098   5.844   6.642  0.4910  0.5553 -0.3084
   20MOL    H57 3895   2.380   5.732   6.491 -0.5743 -1.9715  1.5746
   20MOL    H58 3896   2.346   5.557   6.472 -0.8251 -0.3170  4.5844
   20MOL    H59 3897   2.134   5.765   6.402 -1.5558  1.0572  2.2988
   20MOL    H60 3898   2.102   5.877   6.737  0.9063 -1.5598  0.4279
   20MOL    H61 3899   2.056   5.906   6.573  2.1672  1.9159 -0.1368
   20MOL    C62 3900   2.077   5.555   6.405  0.6918 -0.4937 -0.5577
   20MOL    C63 3901   1.951   5.589   6.326 -0.7511  0.2035  0.4372
   20MOL    C64 3902   1.833   5.635   6.412 -0.2711  0.2986  0.0980
   20MOL    O65 3903   1.744   5.562   6.457  0.5744 -0.6605 -0.4073
   20MOL    N66 3904   1.836   5.760   6.440 -0.1700  0.1864 -0.0004
   20MOL    H67 3905   2.052   5.502   6.497  2.0045 -1.8000 -0.9374
   20MOL    H68 3906   2.145   5.485   6.358  0.4658 -1.8766  1.1391
   20MOL    H69 3907   1.989   5.665   6.259 -1.4929 -0.0319 -0.2508
   20MOL    H70 3908   1.778   5.798   6.513  0.3979  1.7986 -0.3698
   20MOL    H71 3909   1.898   5.818   6.386  1.5307 -1.4284  0.1705
   20MOL    C72 3910   1.907   5.470   6.237 -0.3568 -0.2572 -0.1179
   20MOL    C73 3911   1.808   5.501   6.122  0.5571 -0.1660  0.2504
   20MOL    C74 3912   1.730   5.375   6.078 -0.1205 -0.1382  0.1643
   20MOL    O75 3913   1.801   5.269   6.059  0.0132  0.2929 -0.7143
   20MOL    N76 3914   1.600   5.380   6.043 -1.1070 -0.0206  0.0075
   20MOL    H77 3915   1.859   5.392   6.297 -0.4605  0.2269  0.4331
   20MOL    H78 3916   1.998   5.426   6.196 -0.5229 -1.3533  0.6807
   20MOL    H79 3917   1.725   5.560   6.162  0.1688 -1.2001  1.0026
   20MOL    H80 3918   1.550   5.302   6.002 -0.1445 -0.4994 -0.2662
   20MOL    H81 3919   1.551   5.467   6.061 -1.9628 -0.5676  0.3501
   20MOL    C82 3920   1.866   5.572   6.003 -0.2302 -0.4723 -0.4404
   20MOL    C83 3921   1.946   5.492   5.901 -0.5187  0.0871  1.0327
   20MOL    C84 3922   2.094   5.469   5.936  0.5710  0.5262  0.0075
   20MOL    O85 3923   2.142   5.552   6.014  0.4542  0.3271  0.0481
   20MOL    N86 3924   2.156   5.360   5.898 -0.0216  0.0645  0.6185
   20MOL    H87 3925   1.921   5.659   6.039  1.8699 -1.9433 -0.0172
   20MOL    H88 3926   1.783   5.629   5.960 -1.0779 -1.7066 -0.4678
   20MOL    H89 3927   1.913   5.389   5.885  1.6884 -0.1596 -2.4322
   20MOL    H90 3928   2.254   5.358   5.922  0.4005  2.2500 -0.7692
   20MOL    H91 3929   2.120   5.292   5.834 -1.5198  0.5986  0.8852
   20MOL    C92 3930   1.947   5.566   5.757  0.0783  0.5799 -0.2901
   20MOL    C93 3931   1.929   5.469   5.643  0.1233 -0.6484  0.1291
   20MOL    C94 3932   2.060   5.412   5.594  0.1653 -0.3739  0.4132
   20MOL    O95 3933   2.154   5.475   5.543 -0.0654 -0.1082 -0.0093
   20MOL    N96 3934   2.070   5.283   5.607 -0.1904 -0.4254  0.2456
   20MOL    H97 3935   2.036   5.625   5.736 -1.1115  1.7065 -2.3758
   20MOL    H98 3936   1.869   5.641   5.749 -1.1714 -0.2778  2.9921
   20MOL    H99 3937   1.867   5.391   5.686  2.0641 -1.5574  1.3910
   20MOL   H100 3938   2.161   5.242   5.595  0.5755  1.2706  0.0245
   20MOL   H101 3939   1.986   5.229   5.620 -1.2199  0.8461 -0.8596
   20MOL   C102 3940   1.851   5.516   5.530  0.5762  0.0755 -0.0722
   20MOL   C103 3941   1.787   5.390   5.456 -0.2090  0.7891 -0.0786
   20MOL   C104 3942   1.768   5.415   5.309  0.7409 -0.9635 -0.2370
   20MOL   O105 3943   1.688   5.497   5.280 -0.3768  0.3239  0.6940
   20MOL   N106 3944   1.839   5.344   5.218 -0.6303 -0.1974  0.1605
   20MOL   H107 3945   1.918   5.579   5.472 -0.6605  0.4868 -1.1017
   20MOL   H108 3946   1.774   5.589   5.557  0.9971  0.4687  0.0673
   20MOL   H109 3947   1.854   5.306   5.476 -1.0928  0.5236  1.9645
   20MOL   H110 3948   1.912   5.279   5.243  0.6230  1.7196  1.5844
   20MOL   H111 3949   1.804   5.347   5.123 -0.7032 -1.2735  0.1413
   20MOL   C112 3950   1.651   5.360   5.524  0.3134 -0.2013 -0.0445
   20MOL   C113 3951   1.565   5.241   5.466  0.1248  0.2329 -0.1059
   20MOL   C114 3952   1.430   5.228   5.547 -0.4179  0.2886  0.3740
   20MOL   O115 3953   1.419   5.288   5.656  0.1458  0.0278 -0.0245
   20MOL   N116 3954   1.338   5.143   5.506 -0.0361  0.4228 -0.2748
   20MOL   H117 3955   1.575   5.437   5.514  0.2523 -0.3779 -0.9550
   20MOL   H118 3956   1.664   5.355   5.632 -2.2526  2.5572  0.4648
   20MOL   H119 3957   1.534   5.280   5.369  0.7443  0.2046 -0.3166
   20MOL   H120 3958   1.350   5.080   5.428 -1.2792 -0.0006 -0.1296
   20MOL   H121 3959   1.259   5.122   5.564 -0.5124  1.5521 -0.5018
   20MOL   C122 3960   1.637   5.108   5.445  0.4897 -0.5288  0.0225
   20MOL   C123 3961   1.668   5.024   5.576  0.1782 -0.2094  0.1218
   20MOL   C124 3962   1.782   5.084   5.660 -0.0834  0.3331  0.3000
   20MOL   O125 3963   1.895   5.087   5.612 -0.0321 -0.0557  0.1722
   20MOL   N126 3964   1.744   5.127   5.780  0.1650 -0.5940  0.4139
   20MOL   H127 3965   1.734   5.131   5.400  0.5621 -1.0934 -0.1093
   20MOL   H128 3966   1.577   5.041   5.384 -1.1929  1.0015 -0.0595
   20MOL   H129 3967   1.582   5.014   5.643  2.6248 -4.0324  2.8983
   20MOL   H130 3968   1.653   5.097   5.813 -0.8706  0.1575 -1.6497
   20MOL   H131 3969   1.813   5.149   5.850  0.7344 -1.0158 -0.0177
   20MOL   C132 3970   1.706   4.883   5.544  0.8898  1.2644  0.3613
   20MOL   C133 3971   1.652   4.769   5.641  0.3228  0.9190  0.6678
   20MOL   C134 3972   1.690   4.795   5.788  0.5547  0.4448  0.1651
   20MOL   O135 3973   1.807   4.799   5.826 -0.0665 -0.1865  0.2725
   20MOL   N136 3974   1.590   4.798   5.873  0.2126  0.3715 -0.1045
   20MOL   H137 3975   1.813   4.873   5.526  1.1851 -0.0236  2.6736
   20MOL   H138 3976   1.659   4.855   5.449 -0.3915 -0.7362  1.5330
   20MOL   H139 3977   1.543   4.773   5.642  0.2857  0.0516  0.1159
   20MOL   H140 3978   1.606   4.820   5.970 -0.0465 -1.7361  0.4260
   20MOL   H141 3979   1.496   4.776   5.842  0.6672 -1.1044 -0.4761
   20MOL   C142 3980   1.687   4.627   5.594 -0.4889 -0.8978  0.4513
   20MOL   C143 3981   1.625   4.496   5.643 -0.4290 -0.0350 -0.6394
   20MOL   C144 3982   1.482   4.474   5.584 -0.0736 -0.0564  0.0129
   20MOL   O145 3983   1.398   4.565   5.572  0.2400  0.1831 -0.1991
   20MOL   N146 3984   1.466   4.351   5.534  0.7738 -0.3297 -0.1358
   20MOL   H147 3985   1.795   4.620   5.612 -0.6007  0.5289  1.7510
   20MOL   H148 3986   1.678   4.643   5.486  3.0071  2.0997  0.4970
   20MOL   H149 3987   1.702   4.430   5.603 -0.4020  0.8049 -2.0499
   20MOL   H150 3988   1.537   4.280   5.526  1.4462 -0.1194  3.0574
   20MOL   H151 3989   1.379   4.325   5.490  0.4291  0.5611  0.0011
   20MOL   C152 3990   1.625   4.491   5.796 -0.1380  0.0520  0.6785
   20MOL   C153 3991   1.621   4.349   5.848  0.4786  0.3371 -0.7399
   20MOL   C154 3992   1.590   4.360   5.998 -0.3000  0.5421 -0.0181
   20MOL   O155 3993   1.478   4.357   6.050 -0.1843  0.1684 -0.2223
   20MOL   N156 3994   1.696   4.369   6.080 -0.2222  0.0914  0.1102
   20MOL   H157 3995   1.530   4.529   5.834 -0.0884  0.1422  0.7107
   20MOL   H158 3996   1.704   4.549   5.842  0.5535 -1.3001  1.2211
   20MOL   H159 3997   1.533   4.301   5.804 -0.0945  0.6230  0.0944
   20MOL   H160 3998   1.792   4.370   6.050  0.1825  0.3710  1.3986
   20MOL   H161 3999   1.678   4.367   6.180  0.3596 -4.0503  0.2240
   20MOL   C162 4000   1.730   4.253   5.810 -0.1606 -0.3833  0.8520
   20MOL   C163 4001   1.706   4.105   5.836  0.0435 -0.5263  0.1759
   20MOL   C164 4002   1.841   4.038   5.821 -0.3212  0.2548  0.2696
   20MOL   O165 4003   1.924   4.071   5.741  0.0294  0.0555 -0.7428
   20MOL   N166 4004   1.858   3.923   5.888  0.1213  0.2302 -0.7417
   20MOL   H167 4005   1.823   4.286   5.856  0.4094  1.1857 -1.3592
   20MOL   H168 4006   1.762   4.258   5.706  2.6612  1.9307  1.7485
   20MOL   H169 4007   1.660   4.091   5.934 -2.4213  2.2610 -0.4776
   20MOL   H170 4008   1.789   3.906   5.960  0.9585 -0.2897 -0.0417
   20MOL   H171 4009   1.929   3.857   5.860  0.6479  0.9399 -1.0811
   20MOL   C172 4010   1.616   4.032   5.733 -0.0798 -0.0516  0.0990
   20MOL   C173 4011   1.549   3.896   5.779 -0.2923  0.3040  0.1833
   20MOL   C174 4012   1.556   3.792   5.671 -0.9352  0.4670 -0.1666
   20MOL   O175 4013   1.489   3.796   5.565  0.3898 -0.1676  0.3870
   20MOL   N176 4014   1.641   3.690   5.704  0.0691  0.4429 -0.3955
   20MOL   H177 4015   1.673   4.019   5.641 -0.8216  1.4180 -0.5919
   20MOL   H178 4016   1.545   4.106   5.695  0.3520  0.3812  0.1322
   20MOL   H179 4017   1.602   3.861   5.868  0.5700  0.7283 -0.1570
   20MOL   H180 4018   1.651   3.622   5.630 -0.2827  0.8696 -0.8380
   20MOL   H181 4019   1.697   3.696   5.788 -0.4496 -2.3791  0.1851
   20MOL   C182 4020   1.401   3.924   5.811  0.0019  0.4285 -0.6581
   20MOL   C183 4021   1.360   4.040   5.903  0.7856 -0.8204  0.3957
   20MOL   C184 4022   1.403   4.002   6.048  0.0308 -0.0712 -0.9522
   20MOL   O185 4023   1.382   3.886   6.086  0.5783  0.5934 -0.4441
   20MOL   N186 4024   1.443   4.090   6.139  0.2588  0.0562 -0.0824
   20MOL   H187 4025   1.350   3.833   5.845 -2.3165  2.3781  1.3241
   20MOL   H188 4026   1.348   3.931   5.716  2.1631 -1.3038 -2.0578
   20MOL   H189 4027   1.414   4.133   5.885 -0.5292 -0.2964 -0.9644
   20MOL   H190 4028   1.444   4.186   6.107  0.0326 -0.9184 -3.1498
   20MOL   H191 4029   1.466   4.079   6.237  0.2731 -0.6941 -0.1688
   20MOL   C192 4030   1.201   4.057   5.902  0.4010 -0.6539 -0.6040
   20MOL   C193 4031   1.157   4.185   5.835 -0.3388  0.6665 -0.6529
   20MOL   C194 4032   1.206   4.301   5.918  0.1503  0.1721  0.4905
   20MOL   O195 4033   1.197   4.303   6.043  0.3891 -0.3038  0.3030
   20MOL   N196 4034   1.246   4.404   5.849  0.7489  0.2388  0.5999
   20MOL   H197 4035   1.155   4.044   6.000 -1.3608  0.5523 -1.2510
   20MOL   H198 4036   1.151   3.972   5.854 -3.1151  1.0687 -0.1631
   20MOL   H199 4037   1.193   4.194   5.733  2.3325 -2.2340 -0.0154
   20MOL   H200 4038   1.271   4.404   5.751 -0.1366 -0.4466  0.3650
   20MOL   H201 4039   1.269   4.494   5.888  4.3988 -0.0484 -0.7133
   20MOL   H202 4040   1.048   4.195   5.837 -0.4212 -0.2494  0.0829
   21MOL     C1 4041   3.564   0.604   4.891 -0.3128  0.2362 -0.0023
   21MOL     C2 4042   3.663   0.510   4.967  0.5279  0.3425 -0.0163
   21MOL     C3 4043   3.757   0.595   5.059  0.1383  0.0360  0.0380
   21MOL     O4 4044   3.857   0.650   5.008  0.0345  0.8535  0.2752
   21MOL     N5 4045   3.715   0.612   5.185 -0.2036  0.1184 -0.1822
   21MOL     H6 4046   3.464   0.587   4.928  0.0113 -0.1974  0.6743
   21MOL     H7 4047   3.579   0.712   4.894 -1.8718  0.5122 -1.4674
   21MOL     H8 4048   3.608   0.448   5.038 -1.1688  1.2340 -0.5197
   21MOL     H9 4049   3.641   0.551   5.217 -1.1476  0.5526 -1.4962
   21MOL    H10 4050   3.770   0.667   5.250 -1.9556  0.5419  0.9744
   21MOL    H11 4051   3.549   0.575   4.787 -1.5220 -0.9173  0.4919
   21MOL    C12 4052   3.751   0.414   4.871 -0.8856 -0.5328 -0.4284
   21MOL    C13 4053   3.670   0.292   4.828  0.8187 -0.7874  0.0340
   21MOL    C14 4054   3.653   0.188   4.943  0.4596  0.0723  0.5732
   21MOL    O15 4055   3.751   0.152   5.001  0.2317 -0.3555 -0.3610
   21MOL    N16 4056   3.537   0.132   4.956  0.2244 -0.0729 -0.2505
   21MOL    H17 4057   3.849   0.388   4.910 -0.0908 -1.0501 -2.7338
   21MOL    H18 4058   3.777   0.481   4.789  1.1066  0.2946  0.8327
   21MOL    H19 4059   3.573   0.327   4.793  0.6202 -2.3207 -0.9948
   21MOL    H20 4060   3.507   0.055   5.015 -0.3856  0.0172 -0.4339
   21MOL    H21 4061   3.458   0.172   4.907  0.2426  1.3400  0.8318
   21MOL    C22 4062   3.749   0.230   4.705  0.7234  0.1117  0.3066
   21MOL    C23 4063   3.704   0.089   4.654 -0.1715 -0.4620  0.0433
   21MOL    C24 4064   3.796   0.038   4.542  0.0809  1.1678 -0.1731
   21MOL    O25 4065   3.825   0.105   4.452  0.0539  0.2493 -0.0777
   21MOL    N26 4066   3.828   7.571   4.546 -0.4603 -0.4192 -0.1692
   21MOL    H27 4067   3.855   0.215   4.727  0.9148 -0.5881 -1.0450
   21MOL    H28 4068   3.734   0.297   4.620  0.9751  0.1213  0.2698
   21MOL    H29 4069   3.720   0.015   4.732  0.4303  1.8384  2.1576
   21MOL    H30 4070   3.893   7.536   4.477 -0.1990  1.1703 -0.7618
   21MOL    H31 4071   3.793   7.510   4.619  2.0459 -0.5258  0.9905
   21MOL    C32 4072   3.560   0.091   4.595 -0.6199  0.5325 -0.4795
   21MOL    C33 4073   3.484   7.611   4.578 -0.1250 -0.4186  1.0314
   21MOL    C34 4074   3.463   7.576   4.430 -0.4495  0.5412 -0.4495
   21MOL    O35 4075   3.359   7.610   4.373  0.0835 -0.0138 -0.0119
   21MOL    N36 4076   3.559   7.509   4.366 -0.2056 -0.4330 -0.2871
   21MOL    H37 4077   3.557   0.147   4.501 -0.1074  0.8871 -0.2845
   21MOL    H38 4078   3.494   0.152   4.657 -0.3639 -0.2602  0.5857
   21MOL    H39 4079   3.547   7.538   4.629  0.9498  1.2144  2.0823
   21MOL    H40 4080   3.554   7.492   4.266  1.0976  0.3991 -0.5050
   21MOL    H41 4081   3.643   7.476   4.412 -0.7862  0.0598  1.1428
   21MOL    C42 4082   3.344   7.609   4.650 -0.0650 -0.1790 -0.1528
   21MOL    C43 4083   3.267   7.469   4.659  0.1986  0.3045  0.0706
   21MOL    C44 4084   3.114   7.503   4.653  0.4384 -0.3822 -0.2595
   21MOL    O45 4085   3.060   7.592   4.730 -0.0419 -0.3584  0.2098
   21MOL    N46 4086   3.040   7.440   4.564  0.0921  0.0821 -0.1334
   21MOL    H47 4087   3.286   0.035   4.610  0.3623 -0.3781 -1.1939
   21MOL    H48 4088   3.364   7.644   4.751 -1.6147  0.4413 -0.0485
   21MOL    H49 4089   3.290   7.409   4.571  1.4969  0.7214  0.1023
   21MOL    H50 4090   3.067   7.369   4.498 -0.9153  0.7848 -1.3306
   21MOL    H51 4091   2.942   7.463   4.558 -0.2826 -1.1353  1.0678
   21MOL    C52 4092   3.296   7.383   4.788 -0.2876 -0.6094 -0.1910
   21MOL    C53 4093   3.243   7.233   4.776 -0.5443 -0.1351  0.5740
   21MOL    C54 4094   3.219   7.168   4.916  0.1515  0.1532  0.0303
   21MOL    O55 4095   3.308   7.157   5.003 -0.1317 -0.0553 -0.0662
   21MOL    N56 4096   3.095   7.138   4.942  0.4473 -0.3064 -0.7100
   21MOL    H57 4097   3.240   7.421   4.873 -0.0804  1.3364 -0.9029
   21MOL    H58 4098   3.404   7.386   4.801 -0.4051 -1.4543  1.0284
   21MOL    H59 4099   3.148   7.245   4.723 -0.1987 -1.3071 -0.3224
   21MOL    H60 4100   3.078   7.100   5.034  0.1605  0.7595 -0.3163
   21MOL    H61 4101   3.028   7.141   4.867  0.4407  2.2534 -0.6326
   21MOL    C62 4102   3.330   7.146   4.680 -0.4292  0.5022  0.0439
   21MOL    C63 4103   3.270   7.060   4.566 -0.6201 -0.4039 -0.0832
   21MOL    C64 4104   3.218   7.146   4.445 -0.9139 -0.3233 -0.1675
   21MOL    O65 4105   3.102   7.193   4.442 -0.5372  0.2167 -0.0898
   21MOL    N66 4106   3.305   7.175   4.350  0.5436 -0.8514  0.4735
   21MOL    H67 4107   3.388   7.076   4.741 -0.8654  1.2639  1.3706
   21MOL    H68 4108   3.408   7.205   4.633 -0.0247  0.6563  0.8973
   21MOL    H69 4109   3.363   7.018   4.529 -0.4025 -0.8800  0.9939
   21MOL    H70 4110   3.402   7.146   4.348  1.8017  3.0747  0.2322
   21MOL    H71 4111   3.275   7.238   4.277 -0.2475 -2.0156 -0.2331
   21MOL    C72 4112   3.165   6.966   4.621 -0.1559  0.0125  0.3785
   21MOL    C73 4113   3.211   6.834   4.690  0.5321 -0.3135  1.2051
   21MOL    C74 4114   3.334   6.770   4.626 -0.5581 -1.0958 -0.1794
   21MOL    O75 4115   3.332   6.727   4.510  0.3626  0.1423 -0.3568
   21MOL    N76 4116   3.453   6.774   4.688  0.4978 -0.4285  0.4112
   21MOL    H77 4117   3.100   6.940   4.538  2.7752 -0.2052 -1.9385
   21MOL    H78 4118   3.095   7.012   4.690  0.1096  0.8559  0.0919
   21MOL    H79 4119   3.253   6.879   4.781  2.7820  0.1128 -0.0243
   21MOL    H80 4120   3.463   6.803   4.784  0.6252  3.5397 -0.7455
   21MOL    H81 4121   3.538   6.755   4.637  0.4962  0.7131 -0.0211
   21MOL    C82 4122   3.098   6.736   4.705 -0.0148 -0.4218 -0.4399
   21MOL    C83 4123   3.006   6.755   4.833 -0.6231 -0.3112 -1.1931
   21MOL    C84 4124   2.886   6.848   4.818 -0.0792 -0.4971 -0.2388
   21MOL    O85 4125   2.811   6.832   4.725  0.2143 -0.0998  0.2475
   21MOL    N86 4126   2.865   6.947   4.906  0.4370 -0.0750 -0.0517
   21MOL    H87 4127   3.144   6.638   4.708 -0.8471 -0.7747  1.5690
   21MOL    H88 4128   3.033   6.745   4.618  1.8334 -0.4527 -1.8573
   21MOL    H89 4129   2.949   6.662   4.844 -0.4357 -0.5480 -2.1851
   21MOL    H90 4130   2.916   6.963   4.992 -0.3312  2.9773 -0.1010
   21MOL    H91 4131   2.793   7.015   4.884  1.4074  0.9598 -0.0588
   21MOL    C92 4132   3.102   6.772   4.963 -0.0522  0.0813 -0.3763
   21MOL    C93 4133   3.206   6.662   4.988  0.5028  0.2047 -0.1011
   21MOL    C94 4134   3.147   6.519   4.992  0.0845  0.0448  0.2548
   21MOL    O95 4135   3.031   6.498   5.033 -0.0626  0.3530 -0.7811
   21MOL    N96 4136   3.215   6.413   4.947  0.6221  0.1747  0.4668
   21MOL    H97 4137   3.039   6.773   5.051  1.1390  2.6766  0.4807
   21MOL    H98 4138   3.132   6.875   4.948 -0.9279  0.2279 -1.1743
   21MOL    H99 4139   3.273   6.653   4.902 -0.6084 -2.0624 -0.7715
   21MOL   H100 4140   3.309   6.420   4.911  0.2824 -0.0779 -0.4659
   21MOL   H101 4141   3.174   6.321   4.952  0.5342  0.0775 -1.7478
   21MOL   C102 4142   3.299   6.690   5.113  0.1137 -0.0881  0.2536
   21MOL   C103 4143   3.377   6.823   5.114 -0.0996  0.2318  0.4291
   21MOL   C104 4144   3.491   6.839   5.012 -0.4276 -0.0134 -0.2233
   21MOL   O105 4145   3.553   6.740   4.973  0.1951 -0.2405  0.8525
   21MOL   N106 4146   3.501   6.960   4.960  0.2013  0.8787  0.0335
   21MOL   H107 4147   3.360   6.603   5.139 -1.9328 -1.6448 -0.0411
   21MOL   H108 4148   3.225   6.685   5.193  1.7749  0.0949  1.8620
   21MOL   H109 4149   3.306   6.905   5.096 -0.1098  0.0646 -0.2787
   21MOL   H110 4150   3.433   7.029   4.991 -0.2833  0.7521 -0.7574
   21MOL   H111 4151   3.576   6.974   4.894  0.5322 -1.5119 -0.1349
   21MOL   C112 4152   3.430   6.847   5.263  0.3342 -0.3396 -0.2909
   21MOL   C113 4153   3.343   6.941   5.355  0.0148  0.3015  0.5062
   21MOL   C114 4154   3.426   6.999   5.472 -0.0927  0.0984  0.3571
   21MOL   O115 4155   3.479   6.926   5.555 -0.0531  0.4698 -0.3002
   21MOL   N116 4156   3.424   7.129   5.487  0.2545  0.2087 -0.3365
   21MOL   H117 4157   3.525   6.900   5.255 -1.3617  3.2986  2.3838
   21MOL   H118 4158   3.451   6.756   5.320 -1.7358  0.6934  2.2126
   21MOL   H119 4159   3.309   7.028   5.299 -1.9742  0.0281  1.2403
   21MOL   H120 4160   3.453   7.172   5.573 -0.3765 -0.9395  0.4530
   21MOL   H121 4161   3.368   7.184   5.423 -0.4965 -1.3399 -1.0492
   21MOL   C122 4162   3.215   6.862   5.403 -0.3135 -0.3380  0.7917
   21MOL   C123 4163   3.114   6.937   5.496  0.4475 -0.0814  0.5319
   21MOL   C124 4164   3.014   6.842   5.556  0.3719  0.1249 -0.0477
   21MOL   O125 4165   2.983   6.732   5.508  0.0428  0.0839  0.4029
   21MOL   N126 4166   2.961   6.871   5.670 -0.4568 -0.0619 -0.1964
   21MOL   H127 4167   3.241   6.766   5.447 -1.0325 -1.0604 -0.3483
   21MOL   H128 4168   3.155   6.837   5.316 -0.2174 -0.8418  0.8699
   21MOL   H129 4169   3.173   6.956   5.586  0.2120  1.0725  0.4558
   21MOL   H130 4170   2.987   6.959   5.712 -0.6107  0.4380 -1.1318
   21MOL   H131 4171   2.905   6.799   5.714  0.4773 -0.4930  0.3154
   21MOL   C132 4172   3.065   7.081   5.444  0.7692  0.0908 -0.2145
   21MOL   C133 4173   2.931   7.080   5.374 -0.2400 -0.1895 -0.6322
   21MOL   C134 4174   2.915   6.972   5.261  0.0461 -0.4033  0.2136
   21MOL   O135 4175   2.971   6.984   5.158 -0.5824 -0.7194 -0.1868
   21MOL   N136 4176   2.824   6.877   5.281  0.3432  0.4338  0.4595
   21MOL   H137 4177   3.141   7.120   5.377 -0.0062 -1.1355 -1.8406
   21MOL   H138 4178   3.055   7.144   5.532 -1.0467 -1.0628  0.4333
   21MOL   H139 4179   2.858   7.053   5.450  0.2941  2.9378  1.0619
   21MOL   H140 4180   2.779   6.862   5.370  0.7404  0.3754  0.6499
   21MOL   H141 4181   2.813   6.813   5.204 -0.6689  0.2646  0.7413
   21MOL   C142 4182   2.904   7.219   5.321  0.3865 -0.5823  0.3531
   21MOL   C143 4183   2.767   7.235   5.246  0.7705  1.0117  0.2944
   21MOL   C144 4184   2.758   7.377   5.191  0.6237 -0.2370 -0.9513
   21MOL   O145 4185   2.700   7.460   5.256 -0.8062 -0.3073 -0.4621
   21MOL   N146 4186   2.790   7.397   5.065  0.0851  0.4886  0.3908
   21MOL   H147 4187   2.992   7.250   5.265  0.8778  0.1796  1.5360
   21MOL   H148 4188   2.905   7.299   5.395 -1.2771  0.1082 -0.3504
   21MOL   H149 4189   2.766   7.172   5.157  0.5802 -0.6882  1.4697
   21MOL   H150 4190   2.778   7.492   5.031  4.1274  0.9069 -0.1236
   21MOL   H151 4191   2.827   7.326   5.003  0.5000  0.4362  0.7012
   21MOL   C152 4192   2.645   7.198   5.336 -0.0661 -0.5628  0.6198
   21MOL   C153 4193   2.512   7.187   5.264 -0.2803 -0.0177 -0.1280
   21MOL   C154 4194   2.407   7.295   5.297 -0.1035 -0.3427 -1.3874
   21MOL   O155 4195   2.292   7.275   5.266 -0.0223 -0.1045 -0.3734
   21MOL   N156 4196   2.443   7.420   5.330 -0.9388  0.2476  0.0935
   21MOL   H157 4197   2.644   7.265   5.422 -0.8535  0.2200  0.0246
   21MOL   H158 4198   2.658   7.100   5.382  0.6563 -1.2129 -0.9146
   21MOL   H159 4199   2.537   7.227   5.165 -1.6238  1.4940  0.1166
   21MOL   H160 4200   2.537   7.456   5.322 -0.8909  0.5180  1.7370
   21MOL   H161 4201   2.377   7.493   5.353  0.3061  1.4094  0.0853
   21MOL   C162 4202   2.455   7.042   5.252  0.2604  0.0015 -1.2630
   21MOL   C163 4203   2.371   6.983   5.369  0.2775 -0.2389  0.1161
   21MOL   C164 4204   2.456   6.969   5.491  0.5593  0.6628  0.5108
   21MOL   O165 4205   2.552   6.886   5.493  0.4633 -0.5959 -0.1101
   21MOL   N166 4206   2.431   7.032   5.605 -0.2534  0.6678 -0.2930
   21MOL   H167 4207   2.549   6.987   5.240 -0.1328 -0.6621 -1.3312
   21MOL   H168 4208   2.408   7.030   5.154 -2.3158 -0.0421 -0.0496
   21MOL   H169 4209   2.296   7.055   5.398 -0.1013 -0.5095 -0.1848
   21MOL   H170 4210   2.364   7.107   5.613  0.6043  1.3648  0.4368
   21MOL   H171 4211   2.502   7.036   5.677  0.3238  1.0803 -0.8696
   21MOL   C172 4212   2.297   6.858   5.326 -0.4233  0.0436  0.4123
   21MOL   C173 4213   2.143   6.853   5.352  0.2041 -0.3672  0.1222
   21MOL   C174 4214   2.090   6.715   5.394  0.1101 -0.2324  0.2305
   21MOL   O175 4215   2.041   6.700   5.505 -0.4151  0.6710 -1.0257
   21MOL   N176 4216   2.112   6.611   5.317  0.6929  0.0432 -0.3070
   21MOL   H177 4217   2.346   6.779   5.384 -0.2791 -0.9557 -1.0272
   21MOL   H178 4218   2.320   6.827   5.224 -0.5068 -2.5864  1.1409
   21MOL   H179 4219   2.123   6.906   5.445  2.8025  1.3076 -0.2171
   21MOL   H180 4220   2.072   6.521   5.338  2.7984 -0.7347  0.4681
   21MOL   H181 4221   2.135   6.624   5.219  0.7726 -0.2884 -0.3295
   21MOL   C182 4222   2.075   6.911   5.229  0.3227  0.2843 -0.2012
   21MOL   C183 4223   1.940   6.980   5.259  0.4480 -0.5469 -0.3692
   21MOL   C184 4224   1.824   6.891   5.224 -0.3246  0.5498  0.7801
   21MOL   O185 4225   1.811   6.855   5.107 -0.0829 -0.7149 -0.0820
   21MOL   N186 4226   1.756   6.843   5.321  0.0510 -0.0803 -0.3461
   21MOL   H187 4227   2.069   6.840   5.147  1.1571 -0.5805  0.4755
   21MOL   H188 4228   2.143   6.990   5.198 -2.1829  1.3820 -3.1837
   21MOL   H189 4229   1.937   7.007   5.365 -3.0633 -0.5551 -0.4186
   21MOL   H190 4230   1.684   6.777   5.293  0.5357  0.3583 -2.7814
   21MOL   H191 4231   1.771   6.866   5.418 -1.6010  2.4290 -0.6356
   21MOL   C192 4232   1.941   7.110   5.175 -0.3481  0.3721  0.0360
   21MOL   C193 4233   1.809   7.186   5.177 -0.0010  0.1187  0.6136
   21MOL   C194 4234   1.765   7.223   5.320  0.3197  0.2625 -0.4591
   21MOL   O195 4235   1.834   7.306   5.383  0.1975  0.4890  1.0712
   21MOL   N196 4236   1.657   7.175   5.374 -0.9172  0.2572  0.5884
   21MOL   H197 4237   1.957   7.083   5.070  0.1077 -0.5121  0.3197
   21MOL   H198 4238   2.029   7.166   5.206 -0.7567  0.1769  1.6128
   21MOL   H199 4239   1.810   7.283   5.128  1.8541  0.0389  0.4462
   21MOL   H200 4240   1.628   7.207   5.465  0.5268  0.0275  1.1374
   21MOL   H201 4241   1.597   7.118   5.316  0.3908  0.5031 -1.0441
   21MOL   H202 4242   1.735   7.120   5.132 -0.4784  0.1659  1.3153
   22MOL     C1 4243   4.065   7.139   4.236 -0.1740  0.7807 -1.0462
   22MOL     C2 4244   3.932   7.216   4.233  0.0406  0.3903 -0.0222
   22MOL     C3 4245   3.959   7.362   4.278  0.1488 -0.1474 -0.1749
   22MOL     O4 4246   4.030   7.378   4.369 -0.0945  0.4731  0.1941
   22MOL     N5 4247   3.888   7.466   4.234 -0.2547  0.3837 -0.0124
   22MOL     H6 4248   4.106   7.144   4.337  0.6629  4.2318 -1.4634
   22MOL     H7 4249   4.056   7.036   4.203 -0.7483  0.2864  0.5846
   22MOL     H8 4250   3.902   7.219   4.128  0.7636 -1.4855 -0.3067
   22MOL     H9 4251   3.829   7.464   4.152 -0.2152 -3.4060 -0.0571
   22MOL    H10 4252   3.907   7.554   4.280  0.2372  0.1265  0.2762
   22MOL    H11 4253   4.140   7.197   4.182  0.9282  1.4487  1.1309
   22MOL    C12 4254   3.813   7.147   4.313 -0.3125  0.1670 -0.3252
   22MOL    C13 4255   3.777   6.998   4.274  0.6223  0.6446 -0.1514
   22MOL    C14 4256   3.625   6.989   4.255 -0.4276  0.5678  0.2193
   22MOL    O15 4257   3.547   7.015   4.347 -0.1138  0.0553  0.1421
   22MOL    N16 4258   3.581   6.970   4.133 -0.2132 -0.5369 -0.1590
   22MOL    H17 4259   3.728   7.212   4.297  0.5814  1.8312  1.5135
   22MOL    H18 4260   3.830   7.141   4.421  0.4364  0.2790 -0.4325
   22MOL    H19 4261   3.820   6.983   4.175 -0.0518  0.9139 -0.4897
   22MOL    H20 4262   3.639   6.974   4.050  1.5102 -2.7723  0.8949
   22MOL    H21 4263   3.483   6.947   4.121 -0.6083  1.3519 -0.5928
   22MOL    C22 4264   3.830   6.898   4.378 -0.5441 -0.0648  0.6343
   22MOL    C23 4265   3.807   6.745   4.342 -0.8269  0.0314 -0.2258
   22MOL    C24 4266   3.681   6.695   4.419 -0.2564  0.6982  0.0635
   22MOL    O25 4267   3.681   6.693   4.542 -0.7829  0.0890 -0.7624
   22MOL    N26 4268   3.577   6.651   4.351  0.4778  0.2628  0.1870
   22MOL    H27 4269   3.785   6.933   4.471  0.9382  1.6101  0.7595
   22MOL    H28 4270   3.938   6.912   4.387 -0.5624 -0.1778  1.0554
   22MOL    H29 4271   3.780   6.752   4.237  0.6339 -0.9627 -0.6885
   22MOL    H30 4272   3.494   6.639   4.407 -0.0908  0.9037 -0.5170
   22MOL    H31 4273   3.567   6.677   4.254 -0.4584 -1.0667 -0.0763
   22MOL    C32 4274   3.929   6.654   4.344  0.6376 -0.6431 -0.3234
   22MOL    C33 4275   3.940   6.541   4.444 -0.9993 -0.3032  0.3182
   22MOL    C34 4276   4.090   6.507   4.471  0.6779 -0.4726  0.1488
   22MOL    O35 4277   4.167   6.472   4.380  0.6550  0.0426  0.7108
   22MOL    N36 4278   4.133   6.516   4.594  0.3050 -0.4933  0.1309
   22MOL    H37 4279   4.012   6.721   4.366 -1.0114  1.1118  0.8179
   22MOL    H38 4280   3.928   6.616   4.242 -0.3138 -0.5673 -0.3542
   22MOL    H39 4281   3.893   6.566   4.539  0.5767 -1.2076  1.3580
   22MOL    H40 4282   4.066   6.541   4.665 -0.5841 -0.9936 -0.5164
   22MOL    H41 4283   4.227   6.552   4.600 -0.3149  1.1355  0.1258
   22MOL    C42 4284   3.851   6.429   4.385 -0.0544 -0.0346  0.0402
   22MOL    C43 4285   3.793   6.323   4.484 -0.4171  0.5651  0.5322
   22MOL    C44 4286   3.912   6.219   4.503  0.0826 -0.4503  0.6734
   22MOL    O45 4287   3.936   6.134   4.421  0.1301  0.0822 -0.1206
   22MOL    N46 4288   3.970   6.228   4.617 -0.2303 -0.0467 -0.2236
   22MOL    H47 4289   3.913   6.381   4.310  1.3504  0.0223  1.1518
   22MOL    H48 4290   3.769   6.459   4.319  1.5185 -1.6845 -2.7495
   22MOL    H49 4291   3.786   6.367   4.584 -2.4295  1.8599 -0.1424
   22MOL    H50 4292   4.047   6.165   4.635  2.2898  2.1734 -2.6214
   22MOL    H51 4293   3.939   6.296   4.685 -0.4618  2.0760 -2.3599
   22MOL    C52 4294   3.662   6.251   4.439  0.0163  0.0694 -0.0238
   22MOL    C53 4295   3.594   6.141   4.524  0.8246  0.0626 -0.2016
   22MOL    C54 4296   3.491   6.076   4.431  0.5237  0.3181  0.9082
   22MOL    O55 4297   3.384   6.134   4.407 -0.3168 -0.1362  0.4745
   22MOL    N56 4298   3.530   5.967   4.367  0.2756 -0.0701  0.4858
   22MOL    H57 4299   3.682   6.216   4.338  3.3045 -0.9615  0.9087
   22MOL    H58 4300   3.586   6.329   4.431 -0.4616 -0.3117  0.7206
   22MOL    H59 4301   3.668   6.062   4.533 -0.6885 -1.5259 -1.3157
   22MOL    H60 4302   3.464   5.945   4.293  3.0234 -2.7704 -1.2607
   22MOL    H61 4303   3.619   5.920   4.374  0.6048  0.2201 -1.5053
   22MOL    C62 4304   3.529   6.181   4.656  0.0857  0.7275  0.6722
   22MOL    C63 4305   3.623   6.184   4.780 -0.3138 -0.0677 -0.5999
   22MOL    C64 4306   3.688   6.047   4.805 -0.1639 -0.2806  0.0670
   22MOL    O65 4307   3.617   5.950   4.836 -0.0984 -0.2077 -0.3604
   22MOL    N66 4308   3.818   6.035   4.808  0.9206 -0.7020 -0.0220
   22MOL    H67 4309   3.447   6.113   4.679  1.2513 -1.1694 -0.6164
   22MOL    H68 4310   3.490   6.280   4.632  1.2226  0.9774 -0.1613
   22MOL    H69 4311   3.710   6.248   4.765 -1.8718  1.9141 -1.3954
   22MOL    H70 4312   3.874   6.105   4.762 -0.6668  0.0258 -0.9217
   22MOL    H71 4313   3.855   5.947   4.842 -0.7521 -0.3233  2.8965
   22MOL    C72 4314   3.545   6.240   4.906  0.1975 -0.8530  0.4776
   22MOL    C73 4315   3.629   6.234   5.042 -0.0756  0.4173  0.1441
   22MOL    C74 4316   3.535   6.271   5.163 -0.0470 -0.0649 -0.6957
   22MOL    O75 4317   3.581   6.277   5.272 -0.5289 -0.1036 -0.0868
   22MOL    N76 4318   3.405   6.293   5.145 -0.0804  0.5281  0.4086
   22MOL    H77 4319   3.449   6.189   4.919 -0.4402 -0.3554 -2.0447
   22MOL    H78 4320   3.533   6.347   4.895  1.8097 -0.4607  2.3263
   22MOL    H79 4321   3.635   6.127   5.061  0.2588  0.2694 -0.7686
   22MOL    H80 4322   3.359   6.272   5.058  2.6764 -1.0582 -0.7248
   22MOL    H81 4323   3.349   6.328   5.221 -0.1109  0.8799  0.2261
   22MOL    C82 4324   3.766   6.302   5.043 -0.4010 -0.1805 -0.1555
   22MOL    C83 4325   3.779   6.452   5.027 -0.0496  0.2629  0.3812
   22MOL    C84 4326   3.802   6.487   4.883 -0.9649 -0.1188  0.6506
   22MOL    O85 4327   3.891   6.423   4.825  0.4870 -0.2437  0.0681
   22MOL    N86 4328   3.726   6.574   4.820 -0.6849 -0.3489  0.3982
   22MOL    H87 4329   3.837   6.249   4.980  0.2845  0.4181  0.1090
   22MOL    H88 4330   3.817   6.281   5.137 -1.9259  0.6404  0.8855
   22MOL    H89 4331   3.685   6.496   5.062 -1.0251 -2.9210  1.9291
   22MOL    H90 4332   3.753   6.593   4.724 -1.2974  0.3771  0.3614
   22MOL    H91 4333   3.657   6.630   4.868 -0.2757  0.0043  0.5790
   22MOL    C92 4334   3.891   6.510   5.116 -0.0756 -0.2622  0.6240
   22MOL    C93 4335   3.848   6.521   5.269  0.3149 -0.2923  0.8334
   22MOL    C94 4336   3.740   6.626   5.290  0.0044 -0.3250  0.1957
   22MOL    O95 4337   3.738   6.734   5.231  0.4417  1.1662  0.7164
   22MOL    N96 4338   3.650   6.591   5.379  0.1953 -0.4019 -0.9895
   22MOL    H97 4339   3.926   6.606   5.078  0.2117 -0.7147 -0.2667
   22MOL    H98 4340   3.982   6.451   5.106  0.5280  0.7464  0.0167
   22MOL    H99 4341   3.820   6.423   5.309  1.4939 -0.9791  0.0253
   22MOL   H100 4342   3.634   6.496   5.412  1.5936 -0.9466 -1.8399
   22MOL   H101 4343   3.583   6.664   5.399 -0.5225 -1.6440  1.4612
   22MOL   C102 4344   3.969   6.569   5.364 -0.1041  0.0897  0.6652
   22MOL   C103 4345   4.092   6.475   5.365 -0.0287 -0.2497  0.4378
   22MOL   C104 4346   4.059   6.336   5.433 -0.0811  0.1774  0.6124
   22MOL   O105 4347   4.059   6.332   5.558 -0.2043  0.4006  0.0938
   22MOL   N106 4348   4.031   6.237   5.354  0.4153  0.8828 -0.3794
   22MOL   H107 4349   3.940   6.567   5.469  1.9559 -0.5813  1.2420
   22MOL   H108 4350   4.003   6.669   5.336 -1.8109 -0.3990 -3.5799
   22MOL   H109 4351   4.107   6.448   5.260  0.5091  0.4920  0.3202
   22MOL   H110 4352   4.059   6.221   5.258 -0.3902 -0.5229 -0.3872
   22MOL   H111 4353   3.976   6.160   5.389  0.5386  0.2896 -1.4720
   22MOL   C112 4354   4.216   6.537   5.438 -0.6348 -0.3878 -0.3337
   22MOL   C113 4355   4.298   6.624   5.342 -0.3933  0.1850  0.2560
   22MOL   C114 4356   4.366   6.541   5.239  0.2822 -0.3004  0.9137
   22MOL   O115 4357   4.442   6.452   5.272 -0.2842  0.2912  0.1166
   22MOL   N116 4358   4.349   6.575   5.112  0.4051 -0.3528  0.1057
   22MOL   H117 4359   4.273   6.460   5.491 -1.3615 -1.6385 -1.3537
   22MOL   H118 4360   4.185   6.612   5.511  0.4987  1.1773 -1.4296
   22MOL   H119 4361   4.228   6.692   5.294  1.2183  1.5808 -0.1834
   22MOL   H120 4362   4.402   6.538   5.034 -0.1838  0.6596 -0.7860
   22MOL   H121 4363   4.295   6.658   5.090 -1.2735 -1.1518  1.1462
   22MOL   C122 4364   4.398   6.713   5.406 -0.2873  0.2093 -0.2775
   22MOL   C123 4365   4.358   6.823   5.509  0.5448  0.1100  0.0762
   22MOL   C124 4366   4.236   6.909   5.462 -0.9290 -0.7610  1.0978
   22MOL   O125 4367   4.247   6.979   5.362 -0.7557  0.6238 -0.2448
   22MOL   N126 4368   4.123   6.888   5.519 -0.1050 -0.2530  0.3527
   22MOL   H127 4369   4.455   6.771   5.334  0.2352 -0.4903 -0.4243
   22MOL   H128 4370   4.473   6.657   5.461  0.7479  0.1295 -1.7723
   22MOL   H129 4371   4.323   6.761   5.591 -0.7755 -0.0994 -0.6405
   22MOL   H130 4372   4.117   6.817   5.590 -0.3504  1.7195  2.3384
   22MOL   H131 4373   4.037   6.931   5.489  0.3923 -0.9259 -2.1799
   22MOL   C132 4374   4.492   6.903   5.554  0.1685  0.1635  0.6044
   22MOL   C133 4375   4.465   7.015   5.669 -0.4705 -0.1679 -0.3896
   22MOL   C134 4376   4.426   6.948   5.803  0.5025  0.5234  0.1030
   22MOL   O135 4377   4.307   6.960   5.847 -0.4918  0.1181 -0.7310
   22MOL   N136 4378   4.520   6.883   5.871  0.1930 -0.4427 -0.1403
   22MOL   H137 4379   4.525   6.952   5.462 -1.9412  2.7570  1.1461
   22MOL   H138 4380   4.562   6.826   5.585  0.4622  1.0765  2.2835
   22MOL   H139 4381   4.562   7.064   5.677 -0.8345  1.1846 -3.4655
   22MOL   H140 4382   4.614   6.904   5.842  0.4654 -0.8857  0.4327
   22MOL   H141 4383   4.503   6.855   5.966  4.4297  0.3576  0.9284
   22MOL   C142 4384   4.365   7.130   5.636 -0.2384  1.0505 -0.0433
   22MOL   C143 4385   4.386   7.262   5.714  0.5802 -0.2923 -0.5639
   22MOL   C144 4386   4.258   7.330   5.757 -0.1082  0.5926 -0.4194
   22MOL   O145 4387   4.186   7.390   5.678 -0.4429  0.5149  0.0675
   22MOL   N146 4388   4.224   7.323   5.881 -0.1092  0.5034  0.1401
   22MOL   H147 4389   4.266   7.085   5.645  1.1053 -2.3591 -1.4209
   22MOL   H148 4390   4.370   7.155   5.530  1.2297  2.8997  0.4406
   22MOL   H149 4391   4.428   7.225   5.807 -0.5313  2.3669  1.0600
   22MOL   H150 4392   4.135   7.359   5.912 -0.4339  0.0444 -0.2539
   22MOL   H151 4393   4.279   7.269   5.946  1.6161  1.3961 -0.5518
   22MOL   C152 4394   4.487   7.356   5.642  0.1579 -0.1757  0.6477
   22MOL   C153 4395   4.581   7.443   5.730  0.3443 -0.5581  0.1718
   22MOL   C154 4396   4.512   7.560   5.810 -0.3211 -0.0755  0.1687
   22MOL   O155 4397   4.483   0.005   5.752  1.0517  0.2231  0.0438
   22MOL   N156 4398   4.494   7.552   5.942  1.0408  0.5741  0.0635
   22MOL   H157 4399   4.429   7.426   5.581  0.7975 -0.7011 -0.5742
   22MOL   H158 4400   4.542   7.291   5.575  0.0810 -0.9828  1.3529
   22MOL   H159 4401   4.626   7.370   5.796 -0.6900 -2.1492 -0.8605
   22MOL   H160 4402   4.474   7.632   6.000 -0.2628 -0.6647  1.3779
   22MOL   H161 4403   4.533   7.469   5.985  1.8272  0.3873 -0.9861
   22MOL   C162 4404   4.710   7.487   5.642 -0.0722 -0.0878 -0.8382
   22MOL   C163 4405   4.842   7.495   5.717 -0.3023  0.6741 -0.6386
   22MOL   C164 4406   4.847   7.626   5.789 -0.2561 -0.2597 -0.5814
   22MOL   O165 4407   4.888   0.070   5.730 -0.6440 -0.0369  0.0141
   22MOL   N166 4408   4.830   7.630   5.919 -0.3620 -0.9050 -0.3472
   22MOL   H167 4409   4.691   7.584   5.595  2.7073  1.1456  0.4313
   22MOL   H168 4410   4.728   7.427   5.553  1.4789  1.4528 -1.6027
   22MOL   H169 4411   4.855   7.407   5.780 -0.8168  1.0325 -0.0336
   22MOL   H170 4412   4.796   7.547   5.965 -1.6520 -0.0492  0.2648
   22MOL   H171 4413   4.868   0.045   5.978  1.0076 -1.4036 -0.6029
   22MOL   C172 4414   4.961   7.487   5.614 -0.8620  0.0149  0.9263
   22MOL   C173 4415   4.997   7.356   5.545  0.1131 -0.3309 -0.7422
   22MOL   C174 4416   5.060   7.247   5.640  0.3010 -0.1549 -0.2354
   22MOL   O175 4417   4.987   7.160   5.686  0.0003 -0.0559 -0.6368
   22MOL   N176 4418   5.190   7.241   5.662 -0.7480  0.3570 -0.2226
   22MOL   H177 4419   5.046   7.532   5.664 -0.8223  1.5625 -0.4966
   22MOL   H178 4420   4.937   7.558   5.534 -0.8410 -0.2687  0.6656
   22MOL   H179 4421   4.903   7.315   5.510  0.4250 -0.0591 -1.9307
   22MOL   H180 4422   5.257   7.302   5.619  1.5238 -1.3647  0.8009
   22MOL   H181 4423   5.217   7.156   5.710  0.1167  0.7703  0.0196
   22MOL   C182 4424   5.096   7.369   5.422 -0.1797 -0.0732 -0.4072
   22MOL   C183 4425   5.218   7.468   5.421 -0.9744 -0.4376  0.3825
   22MOL   C184 4426   5.179   7.611   5.400 -0.2482 -0.0161  0.0711
   22MOL   O185 4427   5.124   7.644   5.295  0.2527 -0.3965 -0.0492
   22MOL   N186 4428   5.201   0.038   5.498  0.5309  0.7440 -0.0205
   22MOL   H187 4429   5.028   7.401   5.343 -1.6253 -1.2517  0.3389
   22MOL   H188 4430   5.127   7.268   5.397  2.0039  0.3806  0.3769
   22MOL   H189 4431   5.266   7.461   5.518  0.0034 -0.3971 -0.0886
   22MOL   H190 4432   5.174   0.135   5.498 -0.2749  0.5246  0.1077
   22MOL   H191 4433   5.224   0.004   5.590 -0.4688  0.3187  0.0767
   22MOL   C192 4434   5.323   7.424   5.315 -0.1641 -0.4081  0.1394
   22MOL   C193 4435   5.450   7.511   5.320 -0.9751  0.0782 -0.0272
   22MOL   C194 4436   5.557   7.484   5.217 -0.5087  1.0524  0.1167
   22MOL   O195 4437   5.587   7.370   5.189  0.1439 -0.2885  0.5845
   22MOL   N196 4438   5.628   7.586   5.177 -0.2844  0.2057 -0.0381
   22MOL   H197 4439   5.281   7.442   5.216 -1.1944 -1.0177  0.4530
   22MOL   H198 4440   5.344   7.318   5.327  0.4219 -0.3810 -0.6419
   22MOL   H199 4441   5.418   7.614   5.301  2.7185  1.8064  2.5028
   22MOL   H200 4442   5.704   7.572   5.112 -0.0115 -1.8383  0.6661
   22MOL   H201 4443   5.614   0.021   5.216 -0.1310  0.0163  0.4728
   22MOL   H202 4444   5.496   7.502   5.418  0.3112  1.3154 -0.4966
   23MOL     C1 4445   5.345   4.069   5.308 -0.0331  0.4041 -0.0981
   23MOL     C2 4446   5.307   4.013   5.178  0.1837  0.1319  0.0665
   23MOL     C3 4447   5.376   3.873   5.148 -0.4301 -0.1410  0.3866
   23MOL     O4 4448   5.479   3.841   5.207  1.3296 -0.2157 -0.0609
   23MOL     N5 4449   5.322   3.794   5.054  0.2489 -0.5479 -0.2698
   23MOL     H6 4450   5.272   4.147   5.328  0.8317  1.8180 -2.3601
   23MOL     H7 4451   5.330   3.996   5.388  0.6607  0.8881  0.4898
   23MOL     H8 4452   5.201   3.990   5.183 -0.0779  1.2473 -0.3241
   23MOL     H9 4453   5.236   3.822   5.010  0.4323  1.8672  0.8257
   23MOL    H10 4454   5.355   3.701   5.032  0.5006  0.0928 -2.6783
   23MOL    H11 4455   5.450   4.099   5.319  0.7252 -1.3527 -2.1468
   23MOL    C12 4456   5.321   4.109   5.057 -0.5468 -0.7112  0.3267
   23MOL    C13 4457   5.465   4.160   5.035  0.3560  0.4948 -0.3784
   23MOL    C14 4458   5.493   4.291   5.116 -0.6083 -1.0158 -0.2153
   23MOL    O15 4459   5.455   4.401   5.080  0.6776  0.1616 -0.0185
   23MOL    N16 4460   5.576   4.284   5.221 -0.3470  0.1368  0.8674
   23MOL    H17 4461   5.252   4.192   5.073  2.5493  2.0364 -0.0484
   23MOL    H18 4462   5.275   4.080   4.962 -1.0980  3.4191 -0.7316
   23MOL    H19 4463   5.539   4.084   5.058  1.8075  1.6347 -1.1305
   23MOL    H20 4464   5.610   4.197   5.260 -0.6771 -0.9951 -1.2851
   23MOL    H21 4465   5.598   4.366   5.276 -1.1029  0.3806  0.8090
   23MOL    C22 4466   5.495   4.187   4.879 -0.2690  0.0243  0.2843
   23MOL    C23 4467   5.503   4.068   4.780 -0.0955  0.3096  0.1510
   23MOL    C24 4468   5.627   3.978   4.797  0.0730 -0.0650 -0.3982
   23MOL    O25 4469   5.722   4.024   4.860 -0.1737  0.0828  0.4066
   23MOL    N26 4470   5.629   3.863   4.739 -0.1491 -0.6243  0.2563
   23MOL    H27 4471   5.580   4.255   4.874  1.2140 -1.6772  1.7008
   23MOL    H28 4472   5.408   4.240   4.842  1.4573  2.4333 -0.4358
   23MOL    H29 4473   5.421   4.002   4.809 -0.4825 -0.3834 -2.4299
   23MOL    H30 4474   5.551   3.840   4.680 -0.1342 -1.8502  0.6808
   23MOL    H31 4475   5.701   3.793   4.755  1.0782  0.7024  0.5998
   23MOL    C32 4476   5.484   4.115   4.634  0.1419 -0.0741  0.1674
   23MOL    C33 4477   5.347   4.084   4.571  0.4126 -0.6469  0.3512
   23MOL    C34 4478   5.329   3.930   4.562 -0.1731 -0.1673  0.4734
   23MOL    O35 4479   5.415   3.864   4.503  0.1276 -0.3770 -0.0508
   23MOL    N36 4480   5.219   3.874   4.605  0.1660 -0.0328 -0.0907
   23MOL    H37 4481   5.563   4.084   4.566  1.4097  0.4270  1.3731
   23MOL    H38 4482   5.506   4.222   4.626  0.9744 -0.3034 -0.6151
   23MOL    H39 4483   5.270   4.115   4.642 -1.2053 -1.0426 -1.1976
   23MOL    H40 4484   5.144   3.936   4.631  0.7611  0.5225  0.3155
   23MOL    H41 4485   5.208   3.774   4.597 -1.3155  0.1297 -0.2016
   23MOL    C42 4486   5.310   4.148   4.436  0.1590 -0.0955 -0.3260
   23MOL    C43 4487   5.276   4.297   4.451 -0.2746  0.2134  0.0313
   23MOL    C44 4488   5.167   4.330   4.559  0.1633  0.0616  0.3711
   23MOL    O45 4489   5.044   4.318   4.530 -0.1463 -0.3519 -0.3474
   23MOL    N46 4490   5.209   4.391   4.671  0.2315  0.0150 -0.3532
   23MOL    H47 4491   5.225   4.092   4.396 -0.2856  0.8722 -0.7589
   23MOL    H48 4492   5.394   4.147   4.367 -0.9327  1.5017 -1.7205
   23MOL    H49 4493   5.367   4.343   4.489  0.0463 -0.7656  0.4654
   23MOL    H50 4494   5.307   4.412   4.685  0.3049 -1.2980  1.2045
   23MOL    H51 4495   5.143   4.431   4.737  1.1458  0.2133  0.4489
   23MOL    C52 4496   5.232   4.365   4.313 -0.1127  0.1854  0.4059
   23MOL    C53 4497   5.222   4.513   4.316  0.5139  0.5139  0.2482
   23MOL    C54 4498   5.092   4.561   4.243 -0.5345  0.3137  0.1846
   23MOL    O55 4499   5.054   4.507   4.144  0.3924  0.1785 -0.4557
   23MOL    N56 4500   5.033   4.657   4.304 -0.8542  0.3881 -0.3905
   23MOL    H57 4501   5.140   4.312   4.289  2.0408 -2.9470 -1.1980
   23MOL    H58 4502   5.305   4.331   4.239 -0.5339 -1.8584  0.9176
   23MOL    H59 4503   5.220   4.545   4.420 -1.1509  1.5018 -0.0675
   23MOL    H60 4504   4.950   4.695   4.260 -2.0716 -2.1447 -0.4090
   23MOL    H61 4505   5.073   4.706   4.383 -0.7610  0.5385 -0.5302
   23MOL    C62 4506   5.339   4.587   4.248 -0.5836 -0.4808 -0.3446
   23MOL    C63 4507   5.361   4.742   4.277  0.7165  0.0066 -0.0078
   23MOL    C64 4508   5.367   4.816   4.143  1.0959 -0.2972 -0.8005
   23MOL    O65 4509   5.464   4.876   4.103 -0.9173  0.1254 -0.0869
   23MOL    N66 4510   5.262   4.809   4.067  0.3028 -0.3584  0.5044
   23MOL    H67 4511   5.335   4.558   4.143 -2.0595  1.4958 -0.8513
   23MOL    H68 4512   5.438   4.549   4.273  0.4915  2.2633 -0.2546
   23MOL    H69 4513   5.270   4.785   4.317  0.8382 -0.3399  0.6345
   23MOL    H70 4514   5.269   4.835   3.970  1.4518 -1.6027  0.2483
   23MOL    H71 4515   5.177   4.763   4.097 -0.9210  1.4453 -0.1172
   23MOL    C72 4516   5.471   4.777   4.378 -0.0223  0.1768  0.0992
   23MOL    C73 4517   5.421   4.794   4.527 -0.3511 -0.8283 -0.1105
   23MOL    C74 4518   5.339   4.917   4.545  0.0774 -0.1644  0.3024
   23MOL    O75 4519   5.387   5.027   4.526  0.3686  0.0212 -0.5444
   23MOL    N76 4520   5.207   4.920   4.568 -0.0840  0.3843  0.9700
   23MOL    H77 4521   5.514   4.872   4.346  2.0086 -1.2404 -1.4714
   23MOL    H78 4522   5.550   4.702   4.375 -1.2517 -1.1741  1.0125
   23MOL    H79 4523   5.357   4.710   4.556 -1.2908 -0.6213 -1.5386
   23MOL    H80 4524   5.167   4.829   4.581  1.0718 -0.9383 -3.7340
   23MOL    H81 4525   5.151   5.004   4.558  1.3541  1.0878 -1.8902
   23MOL    C82 4526   5.539   4.787   4.631  0.2674 -0.0293  0.0431
   23MOL    C83 4527   5.624   4.663   4.659 -0.0941 -0.2145 -0.2443
   23MOL    C84 4528   5.535   4.558   4.725 -0.1037 -0.1523  0.2789
   23MOL    O85 4529   5.477   4.475   4.656 -0.5776 -0.3400  0.4229
   23MOL    N86 4530   5.513   4.569   4.855 -0.0446 -0.4772  0.2830
   23MOL    H87 4531   5.494   4.811   4.727 -0.7979 -2.5719  0.2157
   23MOL    H88 4532   5.599   4.877   4.616  2.1415 -0.8918  2.1504
   23MOL    H89 4533   5.659   4.630   4.561  2.0106 -0.3637  0.5134
   23MOL    H90 4534   5.468   4.493   4.903 -1.0654 -0.8323 -1.1950
   23MOL    H91 4535   5.565   4.640   4.905 -0.7295  0.6351 -0.5604
   23MOL    C92 4536   5.754   4.700   4.734  0.4220 -0.3518  0.0024
   23MOL    C93 4537   5.869   4.595   4.751  0.0153 -0.0394  0.0011
   23MOL    C94 4538   5.831   4.502   4.871  0.4819  0.0078 -0.3930
   23MOL    O95 4539   5.804   4.549   4.980 -0.6105 -0.0310  0.0082
   23MOL    N96 4540   5.827   4.368   4.856  0.2944 -0.0111 -0.0257
   23MOL    H97 4541   5.736   4.753   4.828  0.1587 -0.8202  0.2129
   23MOL    H98 4542   5.800   4.768   4.663  4.3633 -0.4611  2.3026
   23MOL    H99 4543   5.894   4.535   4.664 -1.1565 -1.0423  0.3511
   23MOL   H100 4544   5.803   4.296   4.923 -0.8363  1.7229  1.4769
   23MOL   H101 4545   5.867   4.321   4.776 -1.1052 -0.2519 -0.5887
   23MOL   C102 4546   6.003   4.667   4.781 -0.0561 -0.3973 -0.4424
   23MOL   C103 4547   6.145   4.619   4.749 -0.3626  0.4294 -0.1505
   23MOL   C104 4548   6.179   4.485   4.817 -0.0137  0.3927 -0.1066
   23MOL   O105 4549   6.128   4.376   4.786  0.4428 -0.2346  0.0503
   23MOL   N106 4550   6.269   4.486   4.913 -0.5481  0.3639  0.5855
   23MOL   H107 4551   6.000   4.687   4.888 -0.9542  0.2390 -0.5790
   23MOL   H108 4552   5.985   4.770   4.748  1.1521  0.4507  1.4540
   23MOL   H109 4553   6.146   4.598   4.642  3.2928  0.3157 -0.1380
   23MOL   H110 4554   6.305   4.573   4.950  0.8290 -0.7512  1.9403
   23MOL   H111 4555   6.311   4.397   4.938  0.9420  1.3017  1.5260
   23MOL   C112 4556   6.237   4.745   4.772  0.7537  0.6760  0.4915
   23MOL   C113 4557   6.365   4.737   4.695  0.1231 -0.7298 -0.8431
   23MOL   C114 4558   6.475   4.825   4.758 -0.0590 -0.2128  0.3048
   23MOL   O115 4559   6.454   4.945   4.785  0.1166 -0.0390 -0.2265
   23MOL   N116 4560   6.593   4.767   4.783  0.5847 -0.2448  0.2818
   23MOL   H117 4561   6.256   4.741   4.879 -1.0498  0.0395  0.8063
   23MOL   H118 4562   6.191   4.841   4.748 -1.2265 -0.4167 -0.2000
   23MOL   H119 4563   6.394   4.634   4.720 -0.4387 -0.8178 -0.5389
   23MOL   H120 4564   6.609   4.671   4.755 -0.7664  0.0933 -1.7379
   23MOL   H121 4565   6.672   4.823   4.812 -1.9027  2.3793  2.2142
   23MOL   C122 4566   6.342   4.770   4.549 -0.6787 -0.3382 -0.2271
   23MOL   C123 4567   6.452   4.731   4.449 -0.0586  0.5400 -0.3479
   23MOL   C124 4568   6.497   4.846   4.356 -0.3722  0.1505 -0.8339
   23MOL   O125 4569   6.448   4.957   4.361 -0.7138  0.0549  0.7344
   23MOL   N126 4570   6.583   4.814   4.264  0.1578  0.3277 -0.1569
   23MOL   H127 4571   6.331   4.878   4.548 -0.4766 -0.3056  0.6306
   23MOL   H128 4572   6.249   4.725   4.512  0.5036 -0.9826 -2.4994
   23MOL   H129 4573   6.544   4.715   4.504 -0.9236  0.7596  1.2056
   23MOL   H130 4574   6.624   4.722   4.261  0.5524  0.4312  1.4205
   23MOL   H131 4575   6.620   4.891   4.210  0.7032 -0.9407 -1.6196
   23MOL   C132 4576   6.410   4.608   4.356  0.0554  0.4344  0.4804
   23MOL   C133 4577   6.467   4.470   4.399 -0.6509  0.1039  0.4289
   23MOL   C134 4578   6.620   4.468   4.387  0.5893 -0.3070 -0.5441
   23MOL   O135 4579   6.680   4.568   4.356 -0.1178 -0.4699 -0.0398
   23MOL   N136 4580   6.682   4.353   4.418 -0.1245 -0.1091 -0.6091
   23MOL   H137 4581   6.442   4.623   4.252  1.2135  0.5503  0.8534
   23MOL   H138 4582   6.302   4.607   4.339  0.0819 -1.7065  0.3385
   23MOL   H139 4583   6.438   4.452   4.503  2.6679 -0.2800  1.3327
   23MOL   H140 4584   6.640   4.263   4.438  0.0825  0.1135  0.9113
   23MOL   H141 4585   6.783   4.359   4.417 -0.1236 -0.2298 -1.2598
   23MOL   C142 4586   6.386   4.353   4.331  0.1557 -0.1109  0.2896
   23MOL   C143 4587   6.403   4.325   4.179 -0.4050 -0.8227  0.0353
   23MOL   C144 4588   6.272   4.272   4.117 -0.7398  0.1089  0.4435
   23MOL   O145 4589   6.220   4.175   4.168 -0.2300  0.6961 -0.4582
   23MOL   N146 4590   6.228   4.330   4.007  0.5505  0.4868  0.3068
   23MOL   H147 4591   6.282   4.380   4.349 -0.2511 -0.5396 -1.3869
   23MOL   H148 4592   6.399   4.255   4.377  2.0663  0.1171  0.2967
   23MOL   H149 4593   6.429   4.421   4.135  0.2961 -1.8392 -1.8292
   23MOL   H150 4594   6.279   4.410   3.973 -0.2097  0.6332 -0.5173
   23MOL   H151 4595   6.150   4.283   3.963  0.1555  1.6351 -0.2437
   23MOL   C152 4596   6.523   4.235   4.139  0.6874 -0.5201  0.0200
   23MOL   C153 4597   6.521   4.079   4.162  0.4127 -0.3489  0.3425
   23MOL   C154 4598   6.506   4.038   4.307  0.6400  0.3058  0.2235
   23MOL   O155 4599   6.589   4.057   4.396 -0.0611  0.1868  0.1560
   23MOL   N156 4600   6.389   3.987   4.335 -0.0686 -0.4710  0.3377
   23MOL   H157 4601   6.621   4.272   4.168  1.0492  0.0119 -1.8035
   23MOL   H158 4602   6.532   4.256   4.033 -1.2668  0.2458 -0.0066
   23MOL   H159 4603   6.436   4.047   4.102 -0.7799  0.8752  1.3588
   23MOL   H160 4604   6.316   3.994   4.265  0.0620  2.2076  0.4447
   23MOL   H161 4605   6.372   3.941   4.424  0.9498 -1.2331  0.1411
   23MOL   C162 4606   6.636   4.011   4.088 -0.3983 -0.2749 -0.4741
   23MOL   C163 4607   6.592   3.909   3.983 -0.4648  0.0666 -0.2690
   23MOL   C164 4608   6.509   3.795   4.053 -0.2189 -0.3298  0.9590
   23MOL   O165 4609   6.541   3.757   4.168  0.1085 -0.0225 -0.0438
   23MOL   N166 4610   6.413   3.740   3.987  0.1659  0.5404  0.6922
   23MOL   H167 4611   6.705   3.961   4.155 -2.1326  0.8885  2.2504
   23MOL   H168 4612   6.685   4.095   4.039 -0.0306  1.2573  2.4083
   23MOL   H169 4613   6.531   3.962   3.910 -0.8808 -0.2071 -0.1252
   23MOL   H170 4614   6.387   3.773   3.895 -1.6817  0.9108  1.3244
   23MOL   H171 4615   6.343   3.680   4.029  2.3730 -2.4421  0.2800
   23MOL   C172 4616   6.716   3.847   3.905 -0.7345  0.2954  0.2621
   23MOL   C173 4617   6.821   3.936   3.831  0.1041 -0.3670  0.0536
   23MOL   C174 4618   6.760   3.993   3.707  0.1060  0.5430  1.0829
   23MOL   O175 4619   6.690   3.931   3.627  0.4267  0.0966 -0.1231
   23MOL   N176 4620   6.773   4.122   3.693  0.8783  0.2338 -0.4279
   23MOL   H177 4621   6.669   3.780   3.833 -0.1046 -1.6519  1.6285
   23MOL   H178 4622   6.786   3.793   3.968  0.8056  3.3820  1.2920
   23MOL   H179 4623   6.848   4.025   3.888  0.0838 -0.9203  0.9357
   23MOL   H180 4624   6.820   4.181   3.760  1.7624  1.4142 -2.0420
   23MOL   H181 4625   6.724   4.160   3.614  1.9323 -0.5314 -1.4808
   23MOL   C182 4626   6.952   3.865   3.804  0.6296  0.3306 -0.6048
   23MOL   C183 4627   6.953   3.723   3.733 -0.3049 -0.4245 -0.0630
   23MOL   C184 4628   7.051   3.628   3.806  0.1553  0.1613 -0.8275
   23MOL   O185 4629   7.001   3.555   3.891 -0.1084  0.1780  0.1118
   23MOL   N186 4630   7.181   3.637   3.796  0.1210 -0.1382 -0.5804
   23MOL   H187 4631   6.990   3.860   3.906 -1.7508  3.4740  0.5244
   23MOL   H188 4632   7.035   3.927   3.772  1.1698 -0.2375 -0.3200
   23MOL   H189 4633   6.858   3.672   3.747 -0.3272 -1.2213 -2.7532
   23MOL   H190 4634   7.234   3.713   3.754 -3.0024  0.8254 -3.0129
   23MOL   H191 4635   7.230   3.566   3.849 -0.4924 -2.2718 -2.7606
   23MOL   C192 4636   6.974   3.724   3.579  0.0175  0.8020  0.1474
   23MOL   C193 4637   6.951   3.579   3.517  0.7360  0.0047 -0.2630
   23MOL   C194 4638   6.933   3.584   3.363 -0.3090  0.4094  0.3618
   23MOL   O195 4639   7.007   3.646   3.291  0.0709  0.4384  0.1214
   23MOL   N196 4640   6.826   3.529   3.314  0.4047  0.3773  0.3280
   23MOL   H197 4641   7.076   3.757   3.565 -0.3774  1.1418 -2.1953
   23MOL   H198 4642   6.917   3.807   3.536 -1.9568 -0.8178 -0.4580
   23MOL   H199 4643   7.037   3.520   3.549  1.4555 -0.3949 -2.7575
   23MOL   H200 4644   6.807   3.528   3.215  0.8460 -2.3053  0.2160
   23MOL   H201 4645   6.766   3.480   3.379  0.9776 -0.9856 -0.1417
   23MOL   H202 4646   6.865   3.544   3.573  0.2038  1.8264  0.0740
   24MOL     C1 4647   2.113   5.758   2.798 -0.3372 -0.3838  0.0754
   24MOL     C2 4648   2.263   5.720   2.761  0.6400 -0.1255 -0.1902
   24MOL     C3 4649   2.295   5.603   2.858  0.0641  0.5324 -0.1438
   24MOL     O4 4650   2.329   5.625   2.972  0.1324  0.1406 -0.2237
   24MOL     N5 4651   2.316   5.485   2.808 -0.0557  0.3578  0.9201
   24MOL     H6 4652   2.117   5.832   2.878 -0.2424 -0.0731 -0.2120
   24MOL     H7 4653   2.070   5.809   2.711  0.5170 -1.2701 -0.8750
   24MOL     H8 4654   2.261   5.682   2.659  0.4187 -0.8738  0.0913
   24MOL     H9 4655   2.357   5.418   2.871 -0.7820  0.1459  1.1668
   24MOL    H10 4656   2.310   5.479   2.707  0.0885  2.0286  0.8075
   24MOL    H11 4657   2.056   5.667   2.815 -1.6397 -0.1411 -2.6409
   24MOL    C12 4658   2.362   5.842   2.771 -0.9030  0.3595 -0.0826
   24MOL    C13 4659   2.505   5.827   2.711  0.6743 -0.0670 -0.2983
   24MOL    C14 4660   2.598   5.725   2.781 -0.6932 -0.3161 -0.4318
   24MOL    O15 4661   2.616   5.734   2.903  0.4473  0.1434  0.6074
   24MOL    N16 4662   2.685   5.647   2.712 -0.1835  0.0849 -0.3270
   24MOL    H17 4663   2.368   5.873   2.875  1.8036  0.2661 -0.1595
   24MOL    H18 4664   2.316   5.926   2.719  1.7326  1.1085 -1.3451
   24MOL    H19 4665   2.480   5.797   2.610 -0.4891  2.2973 -0.7317
   24MOL    H20 4666   2.755   5.596   2.764  1.0469  0.9329 -1.1232
   24MOL    H21 4667   2.678   5.634   2.612  1.7689  1.4590 -0.6688
   24MOL    C22 4668   2.571   5.971   2.702  0.2281  0.3238  0.1043
   24MOL    C23 4669   2.722   5.977   2.669  0.4355 -0.1302  0.9480
   24MOL    C24 4670   2.773   6.108   2.726 -0.0898  0.5337 -0.7265
   24MOL    O25 4671   2.855   6.100   2.818  0.0503  0.3001 -0.1617
   24MOL    N26 4672   2.711   6.216   2.684 -0.0444 -0.3719 -0.3798
   24MOL    H27 4673   2.553   6.019   2.798  0.6266  2.1901 -0.7449
   24MOL    H28 4674   2.518   6.033   2.630 -1.7065  0.2182  1.4146
   24MOL    H29 4675   2.779   5.906   2.729  2.2522 -0.9589 -1.6553
   24MOL    H30 4676   2.713   6.301   2.738  0.4484  0.2878 -1.4290
   24MOL    H31 4677   2.632   6.211   2.621  1.0281 -0.2281 -1.7407
   24MOL    C32 4678   2.763   5.961   2.518  0.0195 -0.2941  0.3636
   24MOL    C33 4679   2.916   5.986   2.486 -0.0388 -0.1777 -0.1449
   24MOL    C34 4680   2.921   6.010   2.334  0.5219  0.4461 -0.2294
   24MOL    O35 4681   2.849   5.953   2.249  0.1301 -0.4007  0.6112
   24MOL    N36 4682   3.008   6.102   2.295  0.1466 -0.3354  0.3495
   24MOL    H37 4683   2.699   6.027   2.460 -2.6702 -0.9699  2.4580
   24MOL    H38 4684   2.718   5.866   2.487 -3.9275  1.1682  1.3825
   24MOL    H39 4685   2.947   6.078   2.535 -0.4613 -0.1864  0.1375
   24MOL    H40 4686   3.065   6.156   2.358  1.0187 -1.6813  0.7380
   24MOL    H41 4687   3.023   6.109   2.195 -0.0960 -0.5934  0.2938
   24MOL    C42 4688   3.011   5.863   2.517  0.7882 -0.9726 -0.5885
   24MOL    C43 4689   3.063   5.835   2.660 -0.4032 -0.0937 -0.3090
   24MOL    C44 4690   3.158   5.947   2.703  0.4641  0.1388 -0.1018
   24MOL    O45 4691   3.280   5.943   2.695  0.0603  0.1118  0.1901
   24MOL    N46 4692   3.107   6.047   2.773 -0.0746 -0.0616 -0.4715
   24MOL    H47 4693   3.095   5.879   2.449  0.7189  0.3831 -0.3699
   24MOL    H48 4694   2.968   5.775   2.469  1.6037 -0.6123 -2.0288
   24MOL    H49 4695   2.974   5.837   2.723 -1.5679  0.6866 -1.9339
   24MOL    H50 4696   3.010   6.059   2.800  0.4400  0.8062  1.0602
   24MOL    H51 4697   3.169   6.118   2.809  0.5748 -0.0420 -1.6316
   24MOL    C52 4698   3.130   5.698   2.671 -0.8326 -0.3094  0.4663
   24MOL    C53 4699   3.178   5.644   2.813 -0.2436 -0.4849  0.6575
   24MOL    C54 4700   3.303   5.550   2.801 -0.1642 -0.2506  0.2450
   24MOL    O55 4701   3.292   5.434   2.775  0.2451  0.2375  0.5405
   24MOL    N56 4702   3.418   5.606   2.821 -0.1385  0.1617 -0.5521
   24MOL    H57 4703   3.217   5.699   2.606 -0.6023 -0.3607  0.7771
   24MOL    H58 4704   3.056   5.627   2.635 -0.3984 -0.7211  0.3854
   24MOL    H59 4705   3.207   5.735   2.866  5.2031 -0.3166 -2.2449
   24MOL    H60 4706   3.430   5.703   2.848  0.6224 -0.7628  2.5564
   24MOL    H61 4707   3.495   5.545   2.843 -1.6448 -2.7223 -2.8718
   24MOL    C62 4708   3.067   5.580   2.906  1.0315  1.1819 -0.3353
   24MOL    C63 4709   3.111   5.524   3.042  0.1234 -0.4414 -0.0712
   24MOL    C64 4710   2.985   5.470   3.111  0.3938 -0.0950  0.4293
   24MOL    O65 4711   2.867   5.496   3.075 -0.6800 -0.2124 -0.0728
   24MOL    N66 4712   3.001   5.382   3.213 -0.1925 -0.0074 -0.2556
   24MOL    H67 4713   3.007   5.509   2.849 -0.8629  1.5082  1.2159
   24MOL    H68 4714   2.999   5.664   2.923  0.4619  0.7850 -0.6510
   24MOL    H69 4715   3.180   5.444   3.018  0.0857 -1.0962  1.8973
   24MOL    H70 4716   2.919   5.337   3.252  0.2343 -2.3821 -1.9397
   24MOL    H71 4717   3.096   5.366   3.241  0.5264 -0.5360 -2.8535
   24MOL    C72 4718   3.186   5.619   3.135 -0.1353  0.4606  0.5571
   24MOL    C73 4719   3.287   5.549   3.235  0.5108 -0.1601  1.0917
   24MOL    C74 4720   3.228   5.571   3.370 -0.0574  0.4729  0.0393
   24MOL    O75 4721   3.217   5.680   3.424  0.4897 -0.1320 -0.2018
   24MOL    N76 4722   3.190   5.459   3.435  0.4308 -0.2975 -0.0347
   24MOL    H77 4723   3.113   5.678   3.191  0.1597 -0.1978  1.6550
   24MOL    H78 4724   3.228   5.705   3.084  0.5973 -2.5110 -4.1569
   24MOL    H79 4725   3.284   5.442   3.214 -0.2890 -0.2628  1.6899
   24MOL    H80 4726   3.147   5.464   3.526  0.2652 -0.2024 -0.1196
   24MOL    H81 4727   3.217   5.370   3.396  0.0787  0.4968 -2.1221
   24MOL    C82 4728   3.436   5.594   3.223  0.4262 -0.1813  0.6646
   24MOL    C83 4729   3.518   5.484   3.297 -0.6131 -0.1184  0.3778
   24MOL    C84 4730   3.632   5.560   3.367 -0.6774  0.3957  0.0540
   24MOL    O85 4731   3.651   5.545   3.488  0.8808 -0.5089 -0.3032
   24MOL    N86 4732   3.709   5.647   3.301  0.4838  0.4933 -0.1542
   24MOL    H87 4733   3.444   5.691   3.271 -1.2489  1.1709 -1.6960
   24MOL    H88 4734   3.465   5.587   3.118 -3.2653  0.5619 -0.4935
   24MOL    H89 4735   3.469   5.435   3.381  0.0802 -0.7398  0.4308
   24MOL    H90 4736   3.777   5.699   3.354 -0.1355 -0.9002  2.0533
   24MOL    H91 4737   3.687   5.674   3.206 -1.2221  0.2501  0.1588
   24MOL    C92 4738   3.563   5.371   3.201 -0.3914  0.9573 -0.5192
   24MOL    C93 4739   3.563   5.228   3.263 -0.5941  0.0836  0.3948
   24MOL    C94 4740   3.420   5.179   3.271 -0.0414 -0.3362 -0.1799
   24MOL    O95 4741   3.336   5.245   3.333  0.9547 -0.4299  0.7031
   24MOL    N96 4742   3.389   5.068   3.208 -0.3542  0.4019  0.1265
   24MOL    H97 4743   3.664   5.405   3.178 -0.9241  2.3689 -0.8586
   24MOL    H98 4744   3.505   5.371   3.109 -2.6732 -0.5831  0.8546
   24MOL    H99 4745   3.616   5.169   3.188 -3.7920 -0.5563 -1.4354
   24MOL   H100 4746   3.292   5.042   3.219  0.0574 -1.2196  0.0384
   24MOL   H101 4747   3.463   5.013   3.167 -1.4577 -0.9308 -0.0852
   24MOL   C102 4748   3.637   5.209   3.401  0.7158 -0.0398 -0.4681
   24MOL   C103 4749   3.707   5.082   3.440  0.2322 -0.2730  0.3343
   24MOL   C104 4750   3.625   4.952   3.427  0.5777  0.6012 -0.2341
   24MOL   O105 4751   3.507   4.942   3.446  0.7327  0.2662 -0.5421
   24MOL   N106 4752   3.694   4.850   3.371 -0.0013 -0.1830 -0.4830
   24MOL   H107 4753   3.568   5.243   3.478  0.2234 -0.6269 -0.6445
   24MOL   H108 4754   3.720   5.277   3.383  1.4055 -0.4910  0.9153
   24MOL   H109 4755   3.791   5.070   3.372 -1.2209 -1.0285 -1.3590
   24MOL   H110 4756   3.648   4.760   3.361  0.1143 -0.4797  1.3623
   24MOL   H111 4757   3.792   4.860   3.351  0.3137 -0.2970  0.9436
   24MOL   C112 4758   3.760   5.117   3.581  0.5963 -0.5564  0.7700
   24MOL   C113 4759   3.843   5.016   3.659  0.2669 -0.6517  0.0747
   24MOL   C114 4760   3.753   4.906   3.732 -0.3472 -0.2069  0.0849
   24MOL   O115 4761   3.683   4.938   3.826  0.0717 -0.0301 -0.5227
   24MOL   N116 4762   3.748   4.783   3.684  0.6489  0.0808  0.5541
   24MOL   H117 4763   3.674   5.137   3.645 -0.8694  2.2437 -1.9536
   24MOL   H118 4764   3.813   5.211   3.565 -0.8756  0.2955  0.8463
   24MOL   H119 4765   3.902   4.968   3.581 -0.8214 -1.1500 -0.4596
   24MOL   H120 4766   3.828   4.764   3.626  0.6765  1.3256  0.1668
   24MOL   H121 4767   3.679   4.715   3.714 -1.0451  1.5616  0.1514
   24MOL   C122 4768   3.945   5.073   3.762 -0.4007 -0.4260  0.3712
   24MOL   C123 4769   4.042   5.187   3.712  0.4340  0.5850 -0.4076
   24MOL   C124 4770   4.110   5.130   3.591  0.1770  0.1608  0.0898
   24MOL   O125 4771   4.207   5.055   3.607  0.3411 -0.0349 -0.0286
   24MOL   N126 4772   4.058   5.166   3.471  0.0180  0.1474 -0.0816
   24MOL   H127 4773   3.999   4.985   3.796  1.1841 -0.2573 -1.6453
   24MOL   H128 4774   3.883   5.118   3.839 -2.0670 -0.9424 -0.6427
   24MOL   H129 4775   3.979   5.272   3.686 -1.9698 -0.6782  1.1071
   24MOL   H130 4776   3.988   5.238   3.456  0.0082 -0.5395 -3.8097
   24MOL   H131 4777   4.105   5.124   3.392 -0.4503 -1.6064  0.5435
   24MOL   C132 4778   4.135   5.258   3.816  0.6743 -0.4893 -0.7535
   24MOL   C133 4779   4.112   5.409   3.856  0.0876  0.1991  0.3529
   24MOL   C134 4780   4.124   5.494   3.731  0.0075  0.2930  0.5674
   24MOL   O135 4781   4.232   5.524   3.684 -0.2493  0.1938  0.0544
   24MOL   N136 4782   4.004   5.526   3.677 -0.0084 -0.2338  0.0947
   24MOL   H137 4783   4.235   5.260   3.771  1.1299  0.7445  0.2784
   24MOL   H138 4784   4.138   5.195   3.904 -0.6384 -0.3375 -0.5869
   24MOL   H139 4785   4.008   5.411   3.890  0.4724 -0.2785  1.6149
   24MOL   H140 4786   3.997   5.587   3.597 -1.2094 -2.7536 -1.7632
   24MOL   H141 4787   3.917   5.507   3.724  1.3126 -2.3075  1.8122
   24MOL   C142 4788   4.216   5.464   3.960  0.1208  0.1414  0.1705
   24MOL   C143 4789   4.206   5.414   4.106  0.2914 -0.0555  0.0974
   24MOL   C144 4790   4.073   5.348   4.143 -0.2330  0.2512  0.1049
   24MOL   O145 4791   3.972   5.418   4.148  0.5695 -0.6894  0.2516
   24MOL   N146 4792   4.065   5.214   4.168  0.1010  0.1007 -0.5994
   24MOL   H147 4793   4.202   5.572   3.953 -1.8752 -0.0938  0.1793
   24MOL   H148 4794   4.319   5.431   3.944  1.2143  3.0343  0.9579
   24MOL   H149 4795   4.285   5.339   4.115  1.3369  0.6187 -2.7089
   24MOL   H150 4796   3.977   5.166   4.177  0.7906 -1.2083 -0.7343
   24MOL   H151 4797   4.139   5.152   4.137  0.8954  1.4650 -1.4996
   24MOL   C152 4798   4.239   5.542   4.197  0.1707 -0.3241 -0.4905
   24MOL   C153 4799   4.392   5.562   4.216  0.1573 -0.8655  0.1648
   24MOL   C154 4800   4.435   5.531   4.358  0.6760  0.1681  0.9253
   24MOL   O155 4801   4.377   5.575   4.463 -0.3907 -0.4024  0.3909
   24MOL   N156 4802   4.537   5.450   4.369 -0.1180 -0.5929  0.0243
   24MOL   H157 4803   4.193   5.536   4.296  3.5087 -0.1170  1.1226
   24MOL   H158 4804   4.193   5.632   4.157  2.1690  2.0976  2.5185
   24MOL   H159 4805   4.433   5.477   4.163  1.5640 -0.2192  0.2030
   24MOL   H160 4806   4.573   5.422   4.459  1.1240 -2.0809 -0.8949
   24MOL   H161 4807   4.582   5.409   4.288 -0.8470 -0.7404 -0.3057
   24MOL   C162 4808   4.444   5.700   4.172 -0.1503  0.3950 -1.0129
   24MOL   C163 4809   4.413   5.837   4.247 -0.3096 -0.4474  0.6918
   24MOL   C164 4810   4.317   5.910   4.163  0.1284  0.0049  0.2147
   24MOL   O165 4811   4.338   5.944   4.045  0.0473  0.1615  0.2807
   24MOL   N166 4812   4.197   5.926   4.227 -0.2894  0.1050  0.8035
   24MOL   H167 4813   4.426   5.716   4.066 -1.2203  0.4603 -0.8292
   24MOL   H168 4814   4.552   5.693   4.162 -0.0937  1.4009 -1.1464
   24MOL   H169 4815   4.366   5.812   4.342 -0.1309 -0.7684  0.6945
   24MOL   H170 4816   4.122   5.980   4.185 -0.1250 -0.4230 -0.1847
   24MOL   H171 4817   4.180   5.893   4.321 -1.8516  0.6455  0.7357
   24MOL   C172 4818   4.540   5.916   4.265 -0.0629  0.7897 -0.6218
   24MOL   C173 4819   4.533   6.034   4.365  0.0290 -0.3484  0.6121
   24MOL   C174 4820   4.461   6.163   4.313 -0.9829  0.6889 -0.7582
   24MOL   O175 4821   4.478   6.201   4.198  0.2247 -0.0390  0.4458
   24MOL   N176 4822   4.376   6.225   4.390  0.5613 -0.4345  0.0521
   24MOL   H177 4823   4.576   5.955   4.170  2.2421  2.9440  1.0787
   24MOL   H178 4824   4.621   5.847   4.290  0.5835  0.8002 -2.5973
   24MOL   H179 4825   4.474   6.001   4.450 -0.3081 -0.1770  0.4462
   24MOL   H180 4826   4.329   6.306   4.351 -1.8604 -1.9318 -0.2144
   24MOL   H181 4827   4.361   6.191   4.484 -1.6315 -0.8316 -0.4065
   24MOL   C182 4828   4.673   6.083   4.414 -0.2232 -0.0857  0.3663
   24MOL   C183 4829   4.773   6.163   4.328 -0.1897 -0.3755  0.1020
   24MOL   C184 4830   4.841   6.069   4.228  0.6081 -0.3437 -0.0156
   24MOL   O185 4831   4.845   5.946   4.242 -0.5091  0.4400  0.1455
   24MOL   N186 4832   4.910   6.120   4.128  0.0028 -0.5116 -0.2921
   24MOL   H187 4833   4.723   5.993   4.450 -2.5715 -0.0855  3.8409
   24MOL   H188 4834   4.650   6.125   4.511  1.5850  0.7533  0.4494
   24MOL   H189 4835   4.727   6.246   4.275  1.0878  0.0335 -0.3859
   24MOL   H190 4836   4.936   6.057   4.054  2.4091 -1.1304  1.0038
   24MOL   H191 4837   4.892   6.215   4.098  2.3485  0.7233  1.9771
   24MOL   C192 4838   4.875   6.234   4.423  0.8512 -0.0259 -0.0063
   24MOL   C193 4839   4.812   6.340   4.513  0.0883 -0.4929  1.2951
   24MOL   C194 4840   4.857   6.485   4.486 -0.2212  0.9288 -0.1421
   24MOL   O195 4841   4.857   6.527   4.373 -0.0255 -0.2246  0.0605
   24MOL   N196 4842   4.885   6.565   4.582  0.6041  0.4357  0.4663
   24MOL   H197 4843   4.960   6.274   4.369  1.3794 -2.2990 -0.9316
   24MOL   H198 4844   4.929   6.164   4.487  2.1731  0.6255 -0.4036
   24MOL   H199 4845   4.704   6.349   4.505 -0.0709 -0.9194  2.8450
   24MOL   H200 4846   4.922   6.659   4.578  1.4206  0.0829 -0.3718
   24MOL   H201 4847   4.874   6.529   4.676  2.0690 -1.1340  0.0816
   24MOL   H202 4848   4.831   6.313   4.616  0.2401  2.3987  2.0811
   25MOL     C1 4849   6.286   6.994   4.983  0.3330  0.2951  0.4780
   25MOL     C2 4850   6.351   6.903   4.882  0.1288  0.6253 -0.1322
   25MOL     C3 4851   6.471   6.977   4.810  0.4191  0.0077 -0.2110
   25MOL     O4 4852   6.464   7.083   4.744  0.3272  0.6472 -0.7442
   25MOL     N5 4853   6.590   6.910   4.809 -0.2412  0.1333 -0.2415
   25MOL     H6 4854   6.218   6.934   5.044  0.4213 -0.4189 -0.1143
   25MOL     H7 4855   6.363   7.040   5.046  0.1777  2.3706 -0.8461
   25MOL     H8 4856   6.396   6.819   4.934 -0.2833 -0.7159 -1.8878
   25MOL     H9 4857   6.597   6.821   4.855 -0.3262  0.2700  0.0398
   25MOL    H10 4858   6.668   6.962   4.772 -0.7540  0.9486 -0.2057
   25MOL    H11 4859   6.241   7.080   4.934  1.5548 -0.0314 -1.2517
   25MOL    C12 4860   6.242   6.845   4.780  0.2616 -0.2236  0.1122
   25MOL    C13 4861   6.294   6.720   4.692  0.8092  0.8131  0.0080
   25MOL    C14 4862   6.378   6.763   4.574  0.2643 -0.1500  0.0965
   25MOL    O15 4863   6.482   6.714   4.532 -0.2551  0.3533  0.9997
   25MOL    N16 4864   6.331   6.871   4.508 -0.5734  0.3275  0.4899
   25MOL    H17 4865   6.208   6.927   4.716 -0.0582 -0.1602  0.3596
   25MOL    H18 4866   6.152   6.810   4.830  0.3022  0.9458  1.0461
   25MOL    H19 4867   6.363   6.661   4.752 -0.6295 -1.6946 -0.7204
   25MOL    H20 4868   6.376   6.914   4.428 -0.6377  0.9484  0.7857
   25MOL    H21 4869   6.243   6.917   4.526 -0.7089  1.3553 -2.4599
   25MOL    C22 4870   6.172   6.627   4.657 -0.2507 -0.1274  0.3186
   25MOL    C23 4871   6.185   6.469   4.656 -0.2631 -0.3939 -0.1874
   25MOL    C24 4872   6.084   6.393   4.578  0.3748  0.1028  0.6509
   25MOL    O25 4873   6.107   6.277   4.540  0.0931  0.0168 -0.1241
   25MOL    N26 4874   5.976   6.458   4.539 -0.5499 -0.9925 -0.0847
   25MOL    H27 4875   6.152   6.663   4.556 -0.2537  0.3262  0.4816
   25MOL    H28 4876   6.081   6.657   4.708  0.9135  0.4088  2.1043
   25MOL    H29 4877   6.272   6.459   4.592  1.1171  0.6282  1.4853
   25MOL    H30 4878   5.953   6.553   4.564 -1.1702 -0.5696 -2.1394
   25MOL    H31 4879   5.909   6.418   4.475 -0.5212 -0.3423 -0.5317
   25MOL    C32 4880   6.219   6.405   4.792 -0.1180 -0.2104  0.4487
   25MOL    C33 4881   6.109   6.427   4.904 -0.6598 -0.5156 -0.0633
   25MOL    C34 4882   6.176   6.495   5.022 -0.2198 -0.4367 -0.0063
   25MOL    O35 4883   6.279   6.451   5.067 -0.1155 -0.0703 -0.4056
   25MOL    N36 4884   6.124   6.609   5.069 -0.4420 -0.0764 -0.4605
   25MOL    H37 4885   6.317   6.441   4.822 -0.7251 -1.2882  4.0703
   25MOL    H38 4886   6.238   6.299   4.776  2.6785 -0.1215  2.7971
   25MOL    H39 4887   6.025   6.483   4.865 -0.7811 -0.3780  0.3893
   25MOL    H40 4888   6.168   6.660   5.144 -1.1988  1.7994 -1.2571
   25MOL    H41 4889   6.042   6.655   5.033 -0.4254  0.8998  0.7160
   25MOL    C42 4890   6.058   6.290   4.942 -0.0623  0.0574 -0.0062
   25MOL    C43 4891   5.944   6.290   5.051 -0.1445 -0.1752  0.0078
   25MOL    C44 4892   5.987   6.314   5.193  0.0709 -0.9919  0.6494
   25MOL    O45 4893   6.072   6.245   5.237  0.2339  0.1007 -0.3237
   25MOL    N46 4894   5.927   6.402   5.269  0.3025  0.9712 -0.2238
   25MOL    H47 4895   6.140   6.226   4.974  0.0214 -0.7763 -1.8386
   25MOL    H48 4896   6.015   6.252   4.850 -0.2914 -0.6819  0.4066
   25MOL    H49 4897   5.873   6.364   5.017  0.7930  1.1420  0.8872
   25MOL    H50 4898   5.958   6.394   5.365 -1.1099 -1.2545  0.0879
   25MOL    H51 4899   5.853   6.460   5.231 -0.6673 -0.9778 -1.4089
   25MOL    C52 4900   5.870   6.153   5.043 -0.5105  0.1594 -0.1604
   25MOL    C53 4901   5.730   6.136   5.097  0.7991  0.0218  0.5000
   25MOL    C54 4902   5.639   6.252   5.068  0.1065  0.2325  0.3128
   25MOL    O55 4903   5.647   6.357   5.130  0.0021  0.7648  0.3790
   25MOL    N56 4904   5.552   6.248   4.974 -0.6395 -0.5447  0.2049
   25MOL    H57 4905   5.935   6.078   5.089 -0.8959  1.7643  3.1428
   25MOL    H58 4906   5.859   6.124   4.938  1.8350  0.1638 -0.4406
   25MOL    H59 4907   5.685   6.056   5.038  0.0857  0.9845 -0.2687
   25MOL    H60 4908   5.535   6.160   4.926  1.7147  0.1145 -1.9304
   25MOL    H61 4909   5.482   6.321   4.966  1.6339  1.3453 -3.8705
   25MOL    C62 4910   5.733   6.109   5.248 -0.2029 -0.2522  0.0589
   25MOL    C63 4911   5.658   5.988   5.298  0.4788 -0.1945 -0.0159
   25MOL    C64 4912   5.742   5.864   5.257  0.3953  0.7393 -0.5542
   25MOL    O65 4913   5.717   5.808   5.152 -0.2509 -0.2562 -0.2736
   25MOL    N66 4914   5.826   5.822   5.348 -0.8260 -0.0997 -0.9147
   25MOL    H67 4915   5.689   6.190   5.306 -0.6947 -1.1408  0.9583
   25MOL    H68 4916   5.839   6.098   5.272 -0.0247  0.8722 -0.2068
   25MOL    H69 4917   5.662   5.999   5.406 -0.9646 -2.2906  0.2928
   25MOL    H70 4918   5.879   5.738   5.329 -0.8614 -0.8344  1.9629
   25MOL    H71 4919   5.838   5.876   5.432  0.4418  0.5291 -1.4906
   25MOL    C72 4920   5.513   5.986   5.248 -0.1290 -0.0874  0.0067
   25MOL    C73 4921   5.413   5.887   5.314  0.6206 -0.9157 -0.2014
   25MOL    C74 4922   5.358   5.786   5.211  0.3523  0.0938 -0.8765
   25MOL    O75 4923   5.309   5.825   5.104 -0.1002 -0.1300  0.4858
   25MOL    N76 4924   5.350   5.657   5.253 -0.7122  0.3947  0.3514
   25MOL    H77 4925   5.511   5.977   5.139  3.4602  1.9880 -0.3060
   25MOL    H78 4926   5.475   6.088   5.257 -1.3263 -0.2151 -2.9771
   25MOL    H79 4927   5.467   5.829   5.389  0.6647 -1.2160 -0.4621
   25MOL    H80 4928   5.372   5.629   5.348 -0.2916 -1.7853 -0.3579
   25MOL    H81 4929   5.290   5.592   5.205  0.5348 -1.6725  1.4727
   25MOL    C82 4930   5.294   5.960   5.383 -0.2428  0.4003  0.2467
   25MOL    C83 4931   5.280   5.926   5.531 -0.5846  0.4098 -0.0707
   25MOL    C84 4932   5.218   5.791   5.554 -0.4670  0.2691 -0.0257
   25MOL    O85 4933   5.129   5.750   5.478 -0.0844 -0.0944 -0.7004
   25MOL    N86 4934   5.255   5.717   5.660  0.0062  0.3516  0.4753
   25MOL    H87 4935   5.203   5.925   5.335  0.2158  1.0336 -1.1168
   25MOL    H88 4936   5.299   6.069   5.384 -2.4090  0.5253 -0.7017
   25MOL    H89 4937   5.384   5.920   5.564 -1.5968  0.3402  3.2157
   25MOL    H90 4938   5.224   5.620   5.660 -1.1111  0.6975  1.1026
   25MOL    H91 4939   5.315   5.750   5.733 -0.8661  2.7247  0.1668
   25MOL    C92 4940   5.215   6.032   5.619  0.4347 -0.5288 -0.8503
   25MOL    C93 4941   5.056   6.024   5.640  0.6168 -0.2206 -0.3453
   25MOL    C94 4942   4.977   6.048   5.511 -0.3771 -0.1562 -0.4815
   25MOL    O95 4943   5.022   6.121   5.422  0.0071  0.1036 -0.4260
   25MOL    N96 4944   4.859   5.995   5.497  0.1398  0.5939 -0.0104
   25MOL    H97 4945   5.228   6.129   5.571 -0.4855 -1.2192 -2.5481
   25MOL    H98 4946   5.267   6.035   5.715 -2.3094  0.7715  0.6598
   25MOL    H99 4947   5.026   5.920   5.660 -1.3618  0.5922  1.1457
   25MOL   H100 4948   4.816   5.926   5.557  0.3677  0.7016  0.2763
   25MOL   H101 4949   4.803   6.033   5.422 -1.2249 -0.4088  0.4800
   25MOL   C102 4950   5.004   6.106   5.759  0.0377  0.8921  0.1972
   25MOL   C103 4951   5.039   6.050   5.900 -0.1254 -0.3691  0.0234
   25MOL   C104 4952   4.973   5.908   5.934  0.1488 -0.1647 -0.2003
   25MOL   O105 4953   5.048   5.808   5.919 -0.2393  0.0494 -0.5501
   25MOL   N106 4954   4.850   5.894   5.983 -0.0663  0.5204  0.2103
   25MOL   H107 4955   4.896   6.114   5.749 -0.2023 -1.1504  0.8495
   25MOL   H108 4956   5.045   6.204   5.738 -1.2537  1.2343 -0.8140
   25MOL   H109 4957   5.147   6.037   5.910 -0.3196 -3.7326 -1.8257
   25MOL   H110 4958   4.811   5.807   6.016  1.4971  0.6132  2.4340
   25MOL   H111 4959   4.797   5.977   6.007  0.5254  0.6637  1.0818
   25MOL   C112 4960   4.997   6.149   6.013  0.9313 -0.6517  0.8026
   25MOL   C113 4961   5.090   6.271   6.032  0.2936 -0.6615  0.1198
   25MOL   C114 4962   5.193   6.262   6.141  0.4031  0.0856 -0.0692
   25MOL   O115 4963   5.198   6.160   6.212  0.1902  0.0192  0.6390
   25MOL   N116 4964   5.288   6.357   6.141  0.3751 -0.0984  0.3104
   25MOL   H117 4965   4.983   6.099   6.109 -1.2930 -1.4625  0.0835
   25MOL   H118 4966   4.895   6.175   5.988  0.6521 -2.5747 -0.2111
   25MOL   H119 4967   5.157   6.280   5.947  0.6414 -0.1581  0.4398
   25MOL   H120 4968   5.284   6.431   6.072  0.0576  0.5511  1.0188
   25MOL   H121 4969   5.376   6.350   6.190  0.9086  2.9846 -0.0612
   25MOL   C122 4970   5.016   6.410   6.031 -0.0495 -0.4134  0.7405
   25MOL   C123 4971   5.025   6.493   5.897  0.5493 -0.0930 -0.3380
   25MOL   C124 4972   5.164   6.545   5.875  0.7655 -0.0705 -0.0581
   25MOL   O125 4973   5.228   6.602   5.954  0.1525 -0.5833 -0.0466
   25MOL   N126 4974   5.213   6.518   5.754  0.6900 -0.2662 -0.6822
   25MOL   H127 4975   5.055   6.478   6.107  1.3171  0.7396 -0.9609
   25MOL   H128 4976   4.911   6.405   6.058 -0.0792  0.5486  0.8490
   25MOL   H129 4977   4.991   6.416   5.828 -0.0401 -0.6181  0.5236
   25MOL   H130 4978   5.161   6.459   5.690 -0.6978  0.1481  0.0374
   25MOL   H131 4979   5.296   6.568   5.727  1.0729 -0.2487  0.5087
   25MOL   C132 4980   4.924   6.614   5.892 -0.4632  0.5216 -0.0685
   25MOL   C133 4981   4.893   6.665   5.740  0.3684  0.2592 -0.3459
   25MOL   C134 4982   4.882   6.815   5.746  0.2790 -0.2515 -0.4323
   25MOL   O135 4983   4.772   6.871   5.741  0.0593 -0.6929  0.0120
   25MOL   N136 4984   4.989   6.890   5.752  0.3376 -0.0514  0.4629
   25MOL   H137 4985   4.972   6.689   5.954  1.0976 -1.3320  1.0069
   25MOL   H138 4986   4.827   6.586   5.935  0.7570  1.2224  3.2688
   25MOL   H139 4987   4.981   6.646   5.678  0.2703 -1.9167  0.1418
   25MOL   H140 4988   5.083   6.852   5.760 -0.7551 -3.4763 -1.9020
   25MOL   H141 4989   4.973   6.989   5.761  1.7208  0.2206  0.1505
   25MOL   C142 4990   4.772   6.590   5.686  0.5572  0.1494 -0.4071
   25MOL   C143 4991   4.778   6.556   5.533 -0.4072  1.0232 -0.2657
   25MOL   C144 4992   4.886   6.454   5.496 -0.6502  1.1508 -0.1835
   25MOL   O145 4993   5.006   6.469   5.527  0.2505 -0.2060 -0.0026
   25MOL   N146 4994   4.844   6.344   5.428 -0.1275 -0.4349 -0.4644
   25MOL   H147 4995   4.678   6.640   5.707 -0.1577 -1.7796  1.2337
   25MOL   H148 4996   4.762   6.496   5.741  1.6156  0.0029 -0.4534
   25MOL   H149 4997   4.679   6.515   5.517 -0.5198  0.8773  0.7595
   25MOL   H150 4998   4.743   6.339   5.427 -0.0829 -1.4744 -1.7880
   25MOL   H151 4999   4.909   6.284   5.380 -0.1706 -1.1539  0.3685
   25MOL   C152 5000   4.793   6.687   5.447  0.6734 -0.1180  0.5383
   25MOL   C153 5001   4.737   6.670   5.303  0.2814  0.4396  0.0182
   25MOL   C154 5002   4.794   6.564   5.213 -0.6168 -0.1787 -0.1966
   25MOL   O155 5003   4.909   6.570   5.160  0.1326 -0.2666  0.1543
   25MOL   N156 5004   4.726   6.449   5.191 -0.3310 -0.3622  0.5131
   25MOL   H157 5005   4.898   6.714   5.434  0.4652  1.3212  1.7888
   25MOL   H158 5006   4.733   6.759   5.502  0.1479  1.2899 -1.8198
   25MOL   H159 5007   4.636   6.634   5.320 -0.3336  1.5389 -1.2202
   25MOL   H160 5008   4.632   6.449   5.229 -0.0932  1.1713  1.1298
   25MOL   H161 5009   4.748   6.368   5.135  0.5691 -0.3148  0.7990
   25MOL   C162 5010   4.726   6.805   5.224 -0.3007  0.3789  0.2559
   25MOL   C163 5011   4.867   6.878   5.205 -0.1788  0.4402 -0.7492
   25MOL   C164 5012   4.913   6.946   5.343  0.0407 -0.3162  0.1883
   25MOL   O165 5013   5.028   6.921   5.384  0.2556 -0.1289  0.6591
   25MOL   N166 5014   4.830   7.026   5.403 -0.2970 -0.1435  0.5562
   25MOL   H167 5015   4.664   6.876   5.279 -1.0191 -0.4016  0.4554
   25MOL   H168 5016   4.667   6.783   5.135 -1.3496  0.1144  1.0052
   25MOL   H169 5017   4.940   6.802   5.177 -1.8208 -1.6642  0.4239
   25MOL   H170 5018   4.742   7.056   5.363 -0.5827 -1.5096  0.1307
   25MOL   H171 5019   4.857   7.072   5.488 -0.2413  0.1042  0.4060
   25MOL   C172 5020   4.857   6.980   5.086 -0.4775 -0.2789  0.2915
   25MOL   C173 5021   4.999   7.023   5.034  0.3118  0.5726 -0.2883
   25MOL   C174 5022   4.987   7.151   4.950  1.2404 -0.3574  0.0501
   25MOL   O175 5023   4.934   7.156   4.831  0.4210 -0.0691 -0.5680
   25MOL   N176 5024   5.035   7.263   5.008 -0.1669 -0.1057 -0.2680
   25MOL   H177 5025   4.808   7.070   5.122  1.7445  2.1421 -2.4590
   25MOL   H178 5026   4.810   6.932   5.000  0.1297 -0.1928 -0.0895
   25MOL   H179 5027   5.057   7.055   5.121 -2.4964 -0.4605  2.0820
   25MOL   H180 5028   5.049   7.343   4.948 -1.7060 -0.2768 -0.8849
   25MOL   H181 5029   5.094   7.241   5.086  0.1237 -0.7394 -0.6668
   25MOL   C182 5030   5.077   6.919   4.957  0.2018 -0.6536  0.2287
   25MOL   C183 5031   5.218   6.939   4.901  0.1756 -0.4362 -0.4874
   25MOL   C184 5032   5.307   7.018   4.988  0.6046 -0.1019  0.6504
   25MOL   O185 5033   5.317   7.141   4.986 -0.3936 -0.1788 -0.5092
   25MOL   N186 5034   5.374   6.957   5.089  0.3603  0.5625 -0.0720
   25MOL   H187 5035   5.015   6.894   4.871  0.4923  0.5481 -0.3519
   25MOL   H188 5036   5.087   6.833   5.023 -0.4541 -0.2559  0.8589
   25MOL   H189 5037   5.258   6.837   4.908  0.3336 -0.2318  2.0637
   25MOL   H190 5038   5.434   7.011   5.150 -0.5717  1.6189 -0.0752
   25MOL   H191 5039   5.372   6.857   5.099  1.5846  0.1743 -2.9653
   25MOL   C192 5040   5.220   6.982   4.750 -0.1170 -0.5532  0.7148
   25MOL   C193 5041   5.359   6.960   4.691 -0.3826  0.3994  0.3134
   25MOL   C194 5042   5.427   6.817   4.682 -0.0838 -0.3537  0.6995
   25MOL   O195 5043   5.356   6.720   4.661 -0.1431 -0.3815  0.0349
   25MOL   N196 5044   5.554   6.804   4.707  0.3579 -0.4011  0.0220
   25MOL   H197 5045   5.198   7.089   4.749 -0.1460 -0.5616 -0.6374
   25MOL   H198 5046   5.153   6.916   4.696 -0.5057  0.3076  0.1393
   25MOL   H199 5047   5.348   6.988   4.586  1.3524 -0.5953 -0.1427
   25MOL   H200 5048   5.600   6.883   4.751  1.5009 -1.3687  0.5803
   25MOL   H201 5049   5.600   6.715   4.696 -0.3938 -0.7618 -0.2214
   25MOL   H202 5050   5.435   7.033   4.717  1.1040  0.1086 -2.9247
   26MOL     C1 5051   7.462   0.942   3.317 -0.3692 -0.4827  0.4333
   26MOL     C2 5052   7.377   0.880   3.208 -0.1654 -0.1380  0.1480
   26MOL     C3 5053   7.318   0.980   3.095 -0.5111  1.1246  0.7154
   26MOL     O4 5054   7.265   0.933   2.994  0.2512 -0.6492 -0.2339
   26MOL     N5 5055   7.335   1.106   3.113 -0.7512  0.2510  0.7405
   26MOL     H6 5056   7.547   0.877   3.341 -0.2249  0.5929  3.0780
   26MOL     H7 5057   7.498   1.042   3.293 -2.6851  0.1287 -0.6334
   26MOL     H8 5058   7.453   0.827   3.151 -1.5930 -1.1022 -0.8893
   26MOL     H9 5059   7.330   1.163   3.030  0.8677 -0.9687 -0.2303
   26MOL    H10 5060   7.362   1.157   3.196  1.1442 -1.0757  0.9684
   26MOL    H11 5061   7.404   0.960   3.408  1.6381  0.7942  1.4981
   26MOL    C12 5062   7.287   0.769   3.253  0.3015  0.2137 -0.4396
   26MOL    C13 5063   7.147   0.815   3.303  0.5057 -0.2731  0.4900
   26MOL    C14 5064   7.152   0.910   3.424 -0.3271  0.5057 -0.4021
   26MOL    O15 5065   7.198   0.863   3.526 -0.1047  0.7368  0.5950
   26MOL    N16 5066   7.096   1.031   3.417 -0.3127  0.8623  0.1980
   26MOL    H17 5067   7.326   0.715   3.339 -0.1914  2.3170  1.1551
   26MOL    H18 5068   7.285   0.695   3.173  0.3979 -0.9831  0.6410
   26MOL    H19 5069   7.105   0.879   3.225  0.5474  0.7495  1.2981
   26MOL    H20 5070   7.040   1.061   3.338 -0.3693 -0.4531 -0.2763
   26MOL    H21 5071   7.082   1.074   3.507 -0.1573 -1.9658  1.6138
   26MOL    C22 5072   7.057   0.687   3.340 -0.8393  0.5108 -0.1141
   26MOL    C23 5073   6.995   0.601   3.231 -0.4534  0.2977 -0.2050
   26MOL    C24 5074   6.957   0.694   3.114 -0.2259  1.1231 -0.1318
   26MOL    O25 5075   6.904   0.804   3.116 -0.3717 -0.2095 -0.1351
   26MOL    N26 5076   6.984   0.641   2.993 -0.0966  0.6326  0.3779
   26MOL    H27 5077   6.979   0.714   3.411 -1.2766  2.1457 -1.1947
   26MOL    H28 5078   7.114   0.623   3.407  0.7592  0.3960 -1.5588
   26MOL    H29 5079   7.069   0.530   3.196 -1.4997 -0.7745 -0.2696
   26MOL    H30 5080   7.024   0.549   2.977  0.6739  0.8263  1.1078
   26MOL    H31 5081   6.964   0.697   2.912 -0.2425  1.7887  1.1994
   26MOL    C32 5082   6.877   0.532   3.306  0.2992 -0.2034  0.0648
   26MOL    C33 5083   6.834   0.392   3.263 -1.0271 -0.1830  0.1210
   26MOL    C34 5084   6.695   0.353   3.325  0.5005 -0.3748  0.2882
   26MOL    O35 5085   6.681   0.333   3.448  0.3462  0.1145  0.6226
   26MOL    N36 5086   6.595   0.337   3.233 -0.1385 -0.9212 -0.8440
   26MOL    H37 5087   6.789   0.595   3.294 -0.1847 -1.1548 -1.4531
   26MOL    H38 5088   6.901   0.524   3.412  1.7355  1.3626 -0.1094
   26MOL    H39 5089   6.819   0.402   3.155  0.8060 -0.9782 -0.2179
   26MOL    H40 5090   6.503   0.325   3.274  1.1472  2.1291  3.2160
   26MOL    H41 5091   6.600   0.373   3.139  0.9340 -0.9729 -0.8139
   26MOL    C42 5092   6.946   0.285   3.286 -0.0130 -0.2213  0.2898
   26MOL    C43 5093   6.913   0.147   3.218  0.2864  0.1243 -0.5959
   26MOL    C44 5094   6.844   0.044   3.307 -0.9134 -0.1640  0.1349
   26MOL    O45 5095   6.898   7.656   3.405  0.4002  0.1570  0.3126
   26MOL    N46 5096   6.728   7.648   3.264  0.7218  0.2628  0.4616
   26MOL    H47 5097   6.964   0.272   3.393 -1.4044 -0.6354  0.4777
   26MOL    H48 5098   7.039   0.326   3.245 -1.2993 -0.3432 -2.8328
   26MOL    H49 5099   6.863   0.165   3.122 -1.6402  0.1639  0.3786
   26MOL    H50 5100   6.695   7.573   3.322 -1.4080  0.0948 -0.8928
   26MOL    H51 5101   6.687   0.017   3.175 -3.0697 -0.3335  1.9572
   26MOL    C52 5102   7.044   0.069   3.169  0.5862 -0.2258  0.2621
   26MOL    C53 5103   7.117   0.092   3.025  0.7797 -0.1909  0.2422
   26MOL    C54 5104   7.151   0.246   3.019  0.3511  0.0244  0.5995
   26MOL    O55 5105   7.073   0.334   2.972 -0.2223 -0.0796 -0.4630
   26MOL    N56 5106   7.276   0.269   3.048 -0.6623 -0.2498 -0.1439
   26MOL    H57 5107   7.032   7.617   3.168 -2.3984  0.0602 -2.4578
   26MOL    H58 5108   7.112   0.087   3.252  1.5327  3.1007 -1.1266
   26MOL    H59 5109   7.212   0.040   3.030  0.6620 -0.4558 -0.2276
   26MOL    H60 5110   7.326   0.354   3.026  1.5861 -1.3096  0.7039
   26MOL    H61 5111   7.333   0.204   3.100 -1.9846 -1.0931  0.2548
   26MOL    C62 5112   7.031   0.064   2.899  1.0691 -0.1928  0.6916
   26MOL    C63 5113   6.989   7.573   2.878 -0.0126  0.4105  0.3771
   26MOL    C64 5114   7.102   7.475   2.876 -0.4230  0.1307 -0.0743
   26MOL    O65 5115   7.212   7.506   2.831 -0.1644 -0.7435 -0.1827
   26MOL    N66 5116   7.077   7.348   2.904  0.0400 -0.1996 -0.0338
   26MOL    H67 5117   7.085   0.098   2.811  0.6844  0.6971  0.7987
   26MOL    H68 5118   6.934   0.115   2.904  1.2132  0.2183 -0.6328
   26MOL    H69 5119   6.919   7.530   2.949  2.1800 -1.9381  1.1927
   26MOL    H70 5120   6.981   7.317   2.904  0.0793 -0.3246 -0.7075
   26MOL    H71 5121   7.147   7.276   2.889  1.4751  1.0150  0.7472
   26MOL    C72 5122   6.917   7.577   2.739  0.2659  0.1136 -0.4569
   26MOL    C73 5123   6.808   7.460   2.711 -0.4515 -0.6955 -0.1216
   26MOL    C74 5124   6.767   7.450   2.559 -0.6503 -0.4660  0.8871
   26MOL    O75 5125   6.736   7.551   2.500  0.3337  0.0612 -0.1491
   26MOL    N76 5126   6.773   7.336   2.504  0.1387 -1.1221 -0.4348
   26MOL    H77 5127   6.997   7.573   2.665 -0.3189  2.1408 -1.2431
   26MOL    H78 5128   6.855   0.008   2.720 -0.7010 -0.4677 -0.0101
   26MOL    H79 5129   6.861   7.369   2.739 -1.5243 -1.2655  0.0605
   26MOL    H80 5130   6.748   7.320   2.407 -0.8538  2.5039 -0.8410
   26MOL    H81 5131   6.795   7.256   2.561 -0.8388  0.5685  2.4342
   26MOL    C82 5132   6.682   7.471   2.796 -0.0030  0.1730  0.2554
   26MOL    C83 5133   6.599   7.605   2.788 -0.3763  0.0428 -0.3360
   26MOL    C84 5134   6.651   0.058   2.881 -0.7399  0.1063 -0.1765
   26MOL    O85 5135   6.667   0.026   3.000  0.3046  0.0242  0.1196
   26MOL    N86 5136   6.670   0.181   2.834  0.4326 -0.2362 -0.4712
   26MOL    H87 5137   6.713   7.457   2.899  2.9830 -0.9748 -0.7565
   26MOL    H88 5138   6.622   7.385   2.768 -1.4108  1.7278 -1.7268
   26MOL    H89 5139   6.594   7.640   2.685 -2.6090  1.7854  0.3143
   26MOL    H90 5140   6.698   0.251   2.901 -1.0002  0.1849 -0.2893
   26MOL    H91 5141   6.644   0.205   2.739 -3.3037  1.0593  0.7849
   26MOL    C92 5142   6.446   7.587   2.815  0.7736  0.1053 -0.2150
   26MOL    C93 5143   6.360   0.055   2.778  0.3947  0.3988 -0.4668
   26MOL    C94 5144   6.270   0.100   2.896 -0.4528 -0.3755 -0.7636
   26MOL    O95 5145   6.150   0.080   2.893 -0.3276  0.4073  0.0057
   26MOL    N96 5146   6.331   0.175   2.993 -0.1247 -0.4079  0.2375
   26MOL    H97 5147   6.429   7.561   2.919  0.2636 -1.5528 -0.6902
   26MOL    H98 5148   6.429   7.497   2.755 -1.5974  0.8946 -0.7873
   26MOL    H99 5149   6.413   0.146   2.750 -0.6389  0.8034 -1.1809
   26MOL   H100 5150   6.432   0.183   2.992 -0.0688 -1.0746  0.5263
   26MOL   H101 5151   6.284   0.210   3.075  0.8732 -1.3389  1.2133
   26MOL   C102 5152   6.271   0.019   2.661  0.1516  0.1541  0.4604
   26MOL   C103 5153   6.331   7.633   2.529  0.1457 -0.2526  0.2442
   26MOL   C104 5154   6.411   0.095   2.471 -0.1545  0.0072 -0.2638
   26MOL   O105 5155   6.344   0.191   2.450  0.0189 -0.5721 -0.4925
   26MOL   N106 5156   6.542   0.090   2.452  0.1368  0.3397 -0.7121
   26MOL   H107 5157   6.204   0.104   2.650 -0.2582 -0.1216  0.8368
   26MOL   H108 5158   6.204   7.597   2.695 -0.0635 -0.3716 -1.1001
   26MOL   H109 5159   6.403   7.552   2.538  0.1684 -0.3263 -0.5838
   26MOL   H110 5160   6.591   0.169   2.413  0.5927  0.0717 -0.6984
   26MOL   H111 5161   6.591   0.002   2.465  3.0237  1.8338 -1.0825
   26MOL   C112 5162   6.233   7.589   2.414  0.2019  0.0135 -0.3251
   26MOL   C113 5163   6.188   7.442   2.422 -0.4456  0.6439  0.5902
   26MOL   C114 5164   6.307   7.349   2.392  0.3536  0.2967  0.1864
   26MOL   O115 5165   6.376   7.366   2.290 -0.5255 -0.0181 -0.4551
   26MOL   N116 5166   6.329   7.246   2.471  0.1952  0.2500  0.0750
   26MOL   H117 5167   6.285   7.602   2.319 -1.2964  1.4883 -0.9823
   26MOL   H118 5168   6.153   0.006   2.411 -0.1401 -0.0878  3.3502
   26MOL   H119 5169   6.165   7.428   2.527 -1.2027  1.5219  0.5406
   26MOL   H120 5170   6.266   7.235   2.549 -0.3794 -1.1044 -0.5460
   26MOL   H121 5171   6.392   7.173   2.441  1.2046  2.0884 -2.4107
   26MOL   C122 5172   6.066   7.403   2.335  0.5271 -0.2069  0.5787
   26MOL   C123 5173   5.990   7.271   2.386  0.2564  0.4471  0.1728
   26MOL   C124 5174   5.990   7.144   2.292  0.1305 -0.5469 -0.2455
   26MOL   O125 5175   5.927   7.147   2.183 -0.1992 -0.2043  0.1231
   26MOL   N126 5176   6.061   7.035   2.329 -0.0072  0.1684 -0.2452
   26MOL   H127 5177   6.085   7.395   2.228  0.4839 -1.1676  0.6342
   26MOL   H128 5178   6.003   7.491   2.341 -0.8361 -1.1352  0.1098
   26MOL   H129 5179   6.039   7.236   2.476  0.6917 -1.4502 -0.7863
   26MOL   H130 5180   6.048   6.950   2.276  0.7848 -0.0403 -0.1068
   26MOL   H131 5181   6.108   7.037   2.418 -1.5632  2.3924  0.5821
   26MOL   C132 5182   5.840   7.307   2.420 -1.2531 -0.3395 -0.3711
   26MOL   C133 5183   5.738   7.205   2.480 -0.0499  0.7195  0.8533
   26MOL   C134 5184   5.594   7.265   2.477 -0.8341  0.5484 -0.0086
   26MOL   O135 5185   5.554   7.347   2.565  0.3379  0.5457  0.8524
   26MOL   N136 5186   5.531   7.231   2.368  0.2595 -0.7226  0.4852
   26MOL   H137 5187   5.792   7.342   2.328 -0.7885 -0.9437 -0.8436
   26MOL   H138 5188   5.841   7.393   2.486  2.8797 -0.4534 -0.2040
   26MOL   H139 5189   5.729   7.116   2.418  0.8675  0.4913  1.0300
   26MOL   H140 5190   5.577   7.193   2.286  2.0574  2.4872 -0.0687
   26MOL   H141 5191   5.442   7.278   2.363  1.0034  0.4763 -2.6871
   26MOL   C142 5192   5.763   7.148   2.625 -0.3135 -0.0065  0.9600
   26MOL   C143 5193   5.668   7.034   2.662  0.2541  0.3835  0.0939
   26MOL   C144 5194   5.666   6.997   2.812  0.7166  0.0080  0.1887
   26MOL   O145 5195   5.764   6.932   2.851 -0.1994 -0.4850  0.5381
   26MOL   N146 5196   5.562   7.036   2.884  0.3912 -0.5403 -0.2188
   26MOL   H147 5197   5.756   7.230   2.697  1.8038 -0.4973  1.7614
   26MOL   H148 5198   5.869   7.123   2.633 -0.2065 -0.0836 -0.5554
   26MOL   H149 5199   5.564   7.064   2.646 -0.0117  0.0552  1.1726
   26MOL   H150 5200   5.497   7.107   2.853  0.3684  0.1954  1.4441
   26MOL   H151 5201   5.541   6.992   2.973 -2.0227 -1.5322 -1.2281
   26MOL   C152 5202   5.688   6.914   2.564 -0.2367  0.3984  0.0258
   26MOL   C153 5203   5.562   6.883   2.475  0.1069  0.5885 -0.4891
   26MOL   C154 5204   5.433   6.841   2.552 -0.1677 -0.3266 -0.0822
   26MOL   O155 5205   5.450   6.765   2.644  0.2895 -0.7881  0.2660
   26MOL   N156 5206   5.316   6.893   2.519 -0.0647  0.3686 -0.2732
   26MOL   H157 5207   5.740   6.825   2.598  1.4181  1.5195  0.5026
   26MOL   H158 5208   5.764   6.938   2.490 -0.9781 -0.4452 -1.0198
   26MOL   H159 5209   5.538   6.970   2.413  1.6469  1.4978  0.1619
   26MOL   H160 5210   5.314   6.966   2.449 -2.0292  0.5925 -0.0174
   26MOL   H161 5211   5.237   6.863   2.573  1.8832 -0.6286  2.1119
   26MOL   C162 5212   5.598   6.775   2.368  0.4431 -0.2103  0.3992
   26MOL   C163 5213   5.566   6.806   2.221  0.5389  0.0635 -0.0220
   26MOL   C164 5214   5.646   6.921   2.160  0.5438 -0.6210  0.5627
   26MOL   O165 5215   5.615   7.039   2.177  0.0195  0.2377  0.5032
   26MOL   N166 5216   5.754   6.895   2.087  0.5289  0.3923 -0.4907
   26MOL   H167 5217   5.557   6.683   2.408  2.0538 -1.7346 -1.3718
   26MOL   H168 5218   5.704   6.750   2.375  0.2318 -1.0654  0.5123
   26MOL   H169 5219   5.612   6.726   2.163  0.3330  1.2757 -1.8966
   26MOL   H170 5220   5.817   6.970   2.065 -2.0112  2.2908 -1.5753
   26MOL   H171 5221   5.776   6.801   2.058 -1.2347  0.2892 -1.5922
   26MOL   C172 5222   5.415   6.809   2.193 -0.0109 -0.7600 -1.2554
   26MOL   C173 5223   5.383   6.774   2.048 -0.1732 -0.0725  0.1485
   26MOL   C174 5224   5.268   6.862   2.001 -0.2529 -0.3219  0.0327
   26MOL   O175 5225   5.159   6.857   2.058 -0.9710 -0.0412 -0.0552
   26MOL   N176 5226   5.286   6.935   1.890 -0.1521  0.3285  0.0683
   26MOL   H177 5227   5.387   6.907   2.233  1.1171 -1.3054  0.9619
   26MOL   H178 5228   5.355   6.742   2.255 -1.2533  0.9989 -0.4884
   26MOL   H179 5229   5.469   6.797   1.985  1.4975 -0.6296  2.2043
   26MOL   H180 5230   5.213   6.995   1.855  2.0624  2.6655 -0.7147
   26MOL   H181 5231   5.381   6.954   1.860  0.7706 -1.6267  1.6217
   26MOL   C182 5232   5.369   6.619   2.017  0.8634 -0.3751  0.2906
   26MOL   C183 5233   5.312   6.577   1.881  0.2721 -0.2400  0.1759
   26MOL   C184 5234   5.153   6.568   1.883 -0.1269  0.0135  0.0192
   26MOL   O185 5235   5.085   6.495   1.952  0.0637  0.8783  0.0137
   26MOL   N186 5236   5.087   6.653   1.804  0.0728  0.5600 -0.5920
   26MOL   H187 5237   5.301   6.587   2.097 -3.0818  3.0990 -1.4825
   26MOL   H188 5238   5.460   6.570   2.052  1.9216  2.0171  1.0161
   26MOL   H189 5239   5.325   6.658   1.809  0.3735 -0.1724  0.2699
   26MOL   H190 5240   4.988   6.641   1.788  0.4557 -2.4930 -0.9078
   26MOL   H191 5241   5.130   6.715   1.737 -0.7315 -0.4568 -2.0854
   26MOL   C192 5242   5.386   6.441   1.840  0.3151  0.0594  0.0579
   26MOL   C193 5243   5.366   6.404   1.697  0.4992  0.2650 -1.1063
   26MOL   C194 5244   5.438   6.278   1.655 -0.2971 -0.0539  0.1900
   26MOL   O195 5245   5.544   6.285   1.593  0.3699 -0.0632  0.1120
   26MOL   N196 5246   5.385   6.163   1.699  0.2588  0.0407 -0.1650
   26MOL   H197 5247   5.350   6.360   1.904 -1.2452  0.9701  0.3647
   26MOL   H198 5248   5.492   6.445   1.864  0.1120  0.4286  0.8881
   26MOL   H199 5249   5.259   6.387   1.684 -0.3700  2.9210  1.9387
   26MOL   H200 5250   5.316   6.158   1.772 -0.5937  0.4556 -0.9356
   26MOL   H201 5251   5.408   6.071   1.662 -1.1903 -1.2878  2.1138
   26MOL   H202 5252   5.391   6.484   1.628 -1.3983  1.2988 -0.6147
   27MOL     C1 5253   4.646   6.033   1.942  0.1723 -0.0442  0.0582
   27MOL     C2 5254   4.536   6.098   1.855  0.3983  0.2932 -0.3055
   27MOL     C3 5255   4.476   6.221   1.925 -0.4790 -0.1435 -0.0844
   27MOL     O4 5256   4.388   6.214   2.010  0.1473 -0.6229  0.3232
   27MOL     N5 5257   4.522   6.340   1.892 -0.5380 -0.0935  0.1099
   27MOL     H6 5258   4.618   6.012   2.045  0.5974  0.3261  0.2494
   27MOL     H7 5259   4.699   5.949   1.896 -0.8839 -0.6194 -0.1322
   27MOL     H8 5260   4.579   6.145   1.766 -0.0744 -0.1059 -0.7547
   27MOL     H9 5261   4.489   6.421   1.942 -1.4517  0.9684 -2.1672
   27MOL    H10 5262   4.589   6.356   1.818  0.5813 -1.1940  0.8719
   27MOL    H11 5263   4.724   6.107   1.960 -0.9819  0.7495  1.9769
   27MOL    C12 5264   4.425   6.005   1.792 -0.5914 -0.1206 -0.1571
   27MOL    C13 5265   4.483   5.933   1.670  0.3339  0.0631  0.5494
   27MOL    C14 5266   4.451   6.011   1.543 -0.0047  0.1964  0.4234
   27MOL    O15 5267   4.339   6.023   1.496  0.2511 -0.3879  0.5066
   27MOL    N16 5268   4.557   6.068   1.484  0.3721  0.7202  0.3529
   27MOL    H17 5269   4.338   6.065   1.770 -0.9458 -0.8208 -0.6935
   27MOL    H18 5270   4.407   5.936   1.875  3.7922 -0.8820  0.2941
   27MOL    H19 5271   4.591   5.927   1.681  0.4834  2.9741  1.0267
   27MOL    H20 5272   4.648   6.065   1.528  1.1957 -0.0610 -1.3208
   27MOL    H21 5273   4.541   6.129   1.405 -0.5764  0.8911  0.6776
   27MOL    C22 5274   4.409   5.797   1.663 -0.3761 -0.4425 -0.4823
   27MOL    C23 5275   4.496   5.679   1.700  0.4229 -0.6881  0.6608
   27MOL    C24 5276   4.598   5.662   1.589  0.6639  0.5481 -0.3074
   27MOL    O25 5277   4.566   5.636   1.475  0.4194 -0.5116  0.1700
   27MOL    N26 5278   4.725   5.690   1.620  0.0234  0.1327  0.2731
   27MOL    H27 5279   4.361   5.778   1.568  0.8762 -0.4613 -1.1247
   27MOL    H28 5280   4.323   5.800   1.730  1.8130 -1.9639  2.5161
   27MOL    H29 5281   4.549   5.707   1.791  1.0342  0.2922  0.0131
   27MOL    H30 5282   4.799   5.684   1.551  1.8624  2.3217  1.9853
   27MOL    H31 5283   4.751   5.729   1.709 -2.5156 -0.9686  1.5412
   27MOL    C32 5284   4.410   5.553   1.727  0.1942 -0.3319 -0.0445
   27MOL    C33 5285   4.468   5.429   1.806 -0.0841 -0.1367  0.0428
   27MOL    C34 5286   4.569   5.465   1.911  0.3072 -0.1649 -0.3906
   27MOL    O35 5287   4.675   5.510   1.893 -0.1218 -0.5237 -0.1083
   27MOL    N36 5288   4.536   5.438   2.038  0.3130 -0.8726 -0.1075
   27MOL    H37 5289   4.356   5.525   1.636  0.2191  2.5280 -1.0073
   27MOL    H38 5290   4.330   5.590   1.791  1.3130  0.1784  1.0904
   27MOL    H39 5291   4.384   5.387   1.862 -1.7529  1.1927 -1.4049
   27MOL    H40 5292   4.443   5.417   2.071  0.3503  0.3005  0.7886
   27MOL    H41 5293   4.595   5.474   2.111  0.0490  0.5096 -0.5504
   27MOL    C42 5294   4.525   5.326   1.700  0.4429  0.0204 -0.2240
   27MOL    C43 5295   4.566   5.182   1.755  0.2055  0.3696  0.5009
   27MOL    C44 5296   4.442   5.119   1.826 -0.0976  0.2472 -0.4761
   27MOL    O45 5297   4.426   5.108   1.947 -0.0156 -0.5660 -0.0953
   27MOL    N46 5298   4.351   5.070   1.745 -0.6694  0.2953  0.4143
   27MOL    H47 5299   4.608   5.374   1.649  0.1302 -0.4207 -1.1614
   27MOL    H48 5300   4.441   5.309   1.633 -0.4697 -0.8891  1.1093
   27MOL    H49 5301   4.568   5.126   1.661  0.2372  1.9242 -0.4377
   27MOL    H50 5302   4.339   5.099   1.649  1.8053  1.0855  0.3247
   27MOL    H51 5303   4.275   5.019   1.789 -2.4611  1.1432 -1.6042
   27MOL    C52 5304   4.710   5.167   1.824  0.2484  0.5549 -0.0191
   27MOL    C53 5305   4.772   5.023   1.833  0.7308 -0.7785 -0.1703
   27MOL    C54 5306   4.884   5.006   1.928 -0.3445  0.0960 -0.4580
   27MOL    O55 5307   4.970   5.089   1.946  0.0632  0.1480  0.0111
   27MOL    N56 5308   4.869   4.902   2.008 -0.5353  0.7958  0.3066
   27MOL    H57 5309   4.697   5.192   1.929 -1.7314 -1.2449  0.2137
   27MOL    H58 5310   4.775   5.240   1.777  0.5892  0.3547  0.1439
   27MOL    H59 5311   4.688   4.972   1.880 -1.8251  1.5269 -2.0865
   27MOL    H60 5312   4.796   4.837   1.986  0.5564 -0.2427 -0.2780
   27MOL    H61 5313   4.940   4.862   2.068 -0.1620 -0.9103 -1.2380
   27MOL    C62 5314   4.793   4.952   1.701 -0.5819 -0.9198 -0.4140
   27MOL    C63 5315   4.915   5.001   1.612  0.1801  0.7719  0.3900
   27MOL    C64 5316   4.858   5.120   1.530  0.4255  0.0552 -0.2583
   27MOL    O65 5317   4.758   5.103   1.457 -0.2156  0.6718 -0.4303
   27MOL    N66 5318   4.909   5.245   1.545  0.0970 -0.4166  0.3770
   27MOL    H67 5319   4.704   4.940   1.640 -1.4392  0.0715  0.6536
   27MOL    H68 5320   4.823   4.852   1.734  0.3753 -0.5801 -0.2193
   27MOL    H69 5321   5.003   5.038   1.664 -0.0899 -0.1572  1.5330
   27MOL    H70 5322   4.876   5.322   1.487 -1.3885  0.0994  1.8674
   27MOL    H71 5323   4.991   5.265   1.600  1.2192  0.0398 -1.3900
   27MOL    C72 5324   4.951   4.880   1.515  0.2707  0.1760  0.4298
   27MOL    C73 5325   5.089   4.892   1.440  0.1590 -0.7378  0.5967
   27MOL    C74 5326   5.207   4.894   1.536  0.1616  0.1977 -0.5781
   27MOL    O75 5327   5.250   4.999   1.584 -0.2935  0.0805 -0.1903
   27MOL    N76 5328   5.254   4.775   1.573 -0.3197 -0.0456 -0.0266
   27MOL    H77 5329   4.869   4.865   1.445  0.4573  0.5320  0.1305
   27MOL    H78 5330   4.952   4.792   1.580  0.4925  0.6766  1.1163
   27MOL    H79 5331   5.111   4.801   1.385  2.1852  0.6000 -0.8868
   27MOL    H80 5332   5.329   4.765   1.640  1.3850 -0.7661 -1.9674
   27MOL    H81 5333   5.213   4.692   1.533  2.0069 -1.0159 -0.5311
   27MOL    C82 5334   5.100   5.001   1.331 -0.4118  0.0604 -0.2882
   27MOL    C83 5335   4.990   4.988   1.221  0.2577 -0.4705  0.5294
   27MOL    C84 5336   4.984   4.846   1.154  0.1381 -0.0054  0.6050
   27MOL    O85 5337   4.884   4.772   1.171  0.5282  0.5818 -0.2246
   27MOL    N86 5338   5.101   4.805   1.101  0.1961  0.0514  0.4901
   27MOL    H87 5339   5.198   4.992   1.284 -0.7091  0.3400 -0.9733
   27MOL    H88 5340   5.095   5.106   1.360  0.3522  0.6606 -2.2612
   27MOL    H89 5341   4.896   4.996   1.274  0.1283  1.5755  0.0080
   27MOL    H90 5342   5.182   4.864   1.097  1.8433 -2.1904 -0.3878
   27MOL    H91 5343   5.101   4.717   1.051 -0.7139 -1.2057  2.6119
   27MOL    C92 5344   4.984   5.110   1.126 -0.0509  0.0905  0.2487
   27MOL    C93 5345   4.837   5.155   1.095  0.5117 -0.6582  0.6562
   27MOL    C94 5346   4.768   5.064   0.993  0.1327  0.7684  0.7183
   27MOL    O95 5347   4.797   5.071   0.876 -0.0366 -0.2771 -0.4478
   27MOL    N96 5348   4.670   4.991   1.034 -0.7844  0.3851  0.4451
   27MOL    H97 5349   5.033   5.078   1.034 -1.3326 -0.7145 -0.1599
   27MOL    H98 5350   5.043   5.191   1.169 -0.8533  0.3910  0.7777
   27MOL    H99 5351   4.768   5.147   1.179 -1.0587  1.0227 -0.4428
   27MOL   H100 5352   4.649   4.968   1.130  1.4804 -0.2214  0.8246
   27MOL   H101 5353   4.620   4.943   0.961 -1.9502  1.6808  0.3935
   27MOL   C102 5354   4.827   5.303   1.045 -0.1649  0.4219  0.2379
   27MOL   C103 5355   4.862   5.414   1.131 -0.0390 -0.4431 -0.0818
   27MOL   C104 5356   4.762   5.421   1.245 -0.1301  0.0089  0.0990
   27MOL   O105 5357   4.649   5.376   1.241 -0.3556  0.0597 -0.1311
   27MOL   N106 5358   4.789   5.492   1.351 -0.0421  0.2313 -0.2323
   27MOL   H107 5359   4.729   5.318   1.000 -0.1881  1.2859  0.5584
   27MOL   H108 5360   4.904   5.305   0.968 -0.6969  1.5085 -0.2805
   27MOL   H109 5361   4.962   5.388   1.167 -0.1241  0.3228  0.7420
   27MOL   H110 5362   4.714   5.506   1.417 -0.6294  1.7752 -1.1877
   27MOL   H111 5363   4.874   5.547   1.358 -0.7467  1.1956  0.8293
   27MOL   C112 5364   4.871   5.552   1.068 -0.1610  0.1722  0.6018
   27MOL   C113 5365   4.958   5.564   0.936  0.4105 -0.8995 -0.3369
   27MOL   C114 5366   5.107   5.536   0.969  0.3387  0.5357  0.1597
   27MOL   O115 5367   5.181   5.619   1.020  0.2524  0.2498 -0.2630
   27MOL   N116 5368   5.160   5.414   0.948 -0.0548 -0.0315  0.7100
   27MOL   H117 5369   4.915   5.615   1.145  1.9456 -0.9959  0.3789
   27MOL   H118 5370   4.768   5.581   1.045  0.2334 -0.2347 -1.8596
   27MOL   H119 5371   4.909   5.497   0.865 -1.3484  1.0914 -1.0544
   27MOL   H120 5372   5.115   5.334   0.907 -1.4325  0.3510  1.4689
   27MOL   H121 5373   5.261   5.413   0.957  0.1750  0.5238 -1.5867
   27MOL   C122 5374   4.951   5.699   0.868  0.1848 -0.1781 -0.0899
   27MOL   C123 5375   5.021   5.730   0.733 -0.4997  0.4730 -0.5245
   27MOL   C124 5376   5.003   5.623   0.624  0.2382  0.1684 -0.2021
   27MOL   O125 5377   4.902   5.625   0.552 -0.1832  0.2975  0.1590
   27MOL   N126 5378   5.107   5.541   0.604 -0.2652  0.5572 -0.6790
   27MOL   H127 5379   4.971   5.771   0.947 -1.0176  0.4091 -0.2983
   27MOL   H128 5380   4.843   5.712   0.863 -0.1906 -0.9892  3.8042
   27MOL   H129 5381   4.978   5.819   0.687  0.1109  0.5755 -0.9139
   27MOL   H130 5382   5.086   5.465   0.541 -1.3352 -0.6963  1.1440
   27MOL   H131 5383   5.195   5.550   0.653  0.7271 -0.9144 -2.1547
   27MOL   C132 5384   5.167   5.772   0.747  0.0108 -0.1677 -0.1173
   27MOL   C133 5385   5.225   5.850   0.623  0.1816  0.0297  0.0499
   27MOL   C134 5386   5.323   5.760   0.545  0.0683 -0.1410  0.5159
   27MOL   O135 5387   5.380   5.662   0.599  0.3717 -0.0523 -0.0967
   27MOL   N136 5388   5.362   5.791   0.421 -0.6397  0.2867  0.2659
   27MOL   H137 5389   5.233   5.697   0.789  0.8640 -0.2848 -1.6518
   27MOL   H138 5390   5.153   5.846   0.827  0.7959 -1.3806  1.1588
   27MOL   H139 5391   5.143   5.879   0.558 -1.1752  0.4954  1.9376
   27MOL   H140 5392   5.314   5.862   0.368  0.4941  1.8621  1.3277
   27MOL   H141 5393   5.424   5.729   0.371  1.2539  2.8117 -0.6342
   27MOL   C142 5394   5.302   5.975   0.671  0.2780 -0.1134  0.1137
   27MOL   C143 5395   5.201   6.088   0.717 -0.2407 -0.1808  0.2565
   27MOL   C144 5396   5.199   6.212   0.620 -0.0809 -0.5067 -0.1679
   27MOL   O145 5397   5.289   6.299   0.626  0.5924 -0.3033 -0.2088
   27MOL   N146 5398   5.098   6.216   0.531 -0.5147 -0.0649  0.4709
   27MOL   H147 5399   5.363   6.003   0.586 -1.3001 -1.9631 -1.6642
   27MOL   H148 5400   5.366   5.946   0.754  0.1429 -0.1475  0.2058
   27MOL   H149 5401   5.103   6.043   0.708  0.7993 -2.6497  1.0217
   27MOL   H150 5402   5.092   6.302   0.479 -1.9973 -0.3226  0.1791
   27MOL   H151 5403   5.027   6.144   0.528 -1.6390  1.0957 -1.4149
   27MOL   C152 5404   5.231   6.129   0.861  0.3342  0.8771 -0.1940
   27MOL   C153 5405   5.132   6.233   0.923 -0.0244  0.3408  0.0510
   27MOL   C154 5406   5.205   6.359   0.963  0.3669 -0.5463  0.0536
   27MOL   O155 5407   5.220   6.388   1.079  0.3065 -0.0629 -0.1189
   27MOL   N156 5408   5.255   6.430   0.861 -0.7073 -0.0122  0.8780
   27MOL   H157 5409   5.333   6.165   0.870  0.5634 -0.1554  1.5317
   27MOL   H158 5410   5.230   6.042   0.927 -1.9171  1.7199  0.9469
   27MOL   H159 5411   5.062   6.258   0.843  1.0656  1.1463 -0.6706
   27MOL   H160 5412   5.321   6.505   0.879  0.5885 -0.5818 -1.2738
   27MOL   H161 5413   5.262   6.390   0.768  1.9967  0.9482  0.6134
   27MOL   C162 5414   5.047   6.176   1.038  0.0077  0.2650 -0.2188
   27MOL   C163 5415   4.950   6.064   0.996 -0.5702  1.1323 -0.1769
   27MOL   C164 5416   4.855   6.094   0.882  0.0238  0.1669 -0.5710
   27MOL   O165 5417   4.845   6.015   0.784 -0.0919  0.3209  0.3709
   27MOL   N166 5418   4.783   6.205   0.893  0.8207  0.2598 -0.7151
   27MOL   H167 5419   4.980   6.251   1.080 -2.0913 -0.8418 -1.4994
   27MOL   H168 5420   5.117   6.127   1.106  0.5404 -1.0502 -1.6883
   27MOL   H169 5421   5.022   5.991   0.960  1.2189  2.5902  0.3143
   27MOL   H170 5422   4.801   6.275   0.963  1.2131  1.2198 -1.7609
   27MOL   H171 5423   4.708   6.228   0.829 -0.8438 -1.8492  0.4232
   27MOL   C172 5424   4.862   6.006   1.114 -0.5360 -0.1051  0.1789
   27MOL   C173 5425   4.923   5.972   1.257  0.0613 -0.1699  0.1774
   27MOL   C174 5426   4.855   5.842   1.321 -0.3626 -0.2970 -0.1439
   27MOL   O175 5427   4.930   5.754   1.369 -0.0293 -0.1132 -0.2906
   27MOL   N176 5428   4.724   5.834   1.330 -0.0844  0.2791  0.3430
   27MOL   H177 5429   4.813   5.916   1.076 -2.4833 -0.0877  2.4838
   27MOL   H178 5430   4.778   6.075   1.122  2.2085  3.2496  1.0253
   27MOL   H179 5431   5.026   5.949   1.230  0.7358  1.1908  1.5225
   27MOL   H180 5432   4.670   5.902   1.279  1.0471  1.0659  0.1671
   27MOL   H181 5433   4.671   5.758   1.370 -0.1357  0.6361  0.9663
   27MOL   C182 5434   4.923   6.091   1.352  0.1418 -0.0530 -0.5524
   27MOL   C183 5435   5.020   6.095   1.472 -0.3104 -0.0267 -0.1248
   27MOL   C184 5436   4.962   6.013   1.585 -0.3245  0.1151  0.2830
   27MOL   O185 5437   4.854   6.024   1.627 -0.6305  0.1201  0.1414
   27MOL   N186 5438   5.043   5.920   1.643  0.4370  0.2015 -0.7528
   27MOL   H187 5439   4.822   6.103   1.390  1.2921  1.3515  2.2546
   27MOL   H188 5440   4.928   6.181   1.291 -0.3712 -0.9939 -2.0056
   27MOL   H189 5441   5.101   6.038   1.427  1.5951  0.3982  2.6485
   27MOL   H190 5442   4.996   5.868   1.717  0.4124 -0.1322 -0.9999
   27MOL   H191 5443   5.143   5.933   1.643  0.5285 -0.1620  1.5680
   27MOL   C192 5444   5.062   6.237   1.523  0.2527  0.2274  0.5956
   27MOL   C193 5445   4.940   6.331   1.561  0.1376  0.6863  0.7551
   27MOL   C194 5446   4.961   6.480   1.548  0.7278  0.4751 -0.8338
   27MOL   O195 5447   5.044   6.526   1.473  0.1561 -0.7044  0.1963
   27MOL   N196 5448   4.879   6.559   1.617  0.2970  0.0024 -0.2741
   27MOL   H197 5449   5.108   6.280   1.434 -0.8618 -0.9122 -0.5495
   27MOL   H198 5450   5.137   6.237   1.602  0.3197  0.9228  0.5353
   27MOL   H199 5451   4.858   6.310   1.492 -1.6114  1.5908  2.5037
   27MOL   H200 5452   4.813   6.513   1.678  1.5730 -1.9942 -0.3514
   27MOL   H201 5453   4.888   6.659   1.619 -2.4721  0.3131 -1.0665
   27MOL   H202 5454   4.898   6.305   1.658 -0.6453  1.3265  0.5948
   28MOL     C1 5455   2.271   6.468   1.012  0.8458  0.2648 -0.0150
   28MOL     C2 5456   2.280   6.549   1.143  0.1582 -0.1238 -0.4207
   28MOL     C3 5457   2.185   6.667   1.145  0.1652  0.2302 -0.6990
   28MOL     O4 5458   2.165   6.742   1.049  0.1203  0.8918 -0.0829
   28MOL     N5 5459   2.111   6.688   1.254 -0.5730 -0.2161 -0.0320
   28MOL     H6 5460   2.296   6.542   0.936 -1.8933  0.5391 -0.6853
   28MOL     H7 5461   2.339   6.383   1.010 -1.1715 -1.5221  2.8540
   28MOL     H8 5462   2.256   6.476   1.220  1.4158 -2.9993 -2.5979
   28MOL     H9 5463   2.040   6.759   1.258 -0.3278  0.0424 -0.1842
   28MOL    H10 5464   2.123   6.628   1.334 -0.6396  0.4001  0.4481
   28MOL    H11 5465   2.172   6.429   0.987  0.7969 -0.1948  0.8789
   28MOL    C12 5466   2.429   6.595   1.152 -0.3131 -0.6759  0.9614
   28MOL    C13 5467   2.460   6.652   1.294  0.3046  0.1262  0.0812
   28MOL    C14 5468   2.591   6.720   1.274 -0.6759 -0.6458  0.0862
   28MOL    O15 5469   2.691   6.656   1.287 -0.0229  0.2510 -0.2340
   28MOL    N16 5470   2.586   6.849   1.239 -0.0770 -0.0250 -0.3708
   28MOL    H17 5471   2.448   6.663   1.069  2.0856 -0.2592  1.8087
   28MOL    H18 5472   2.491   6.508   1.130 -0.9408 -0.0954 -3.7573
   28MOL    H19 5473   2.384   6.728   1.312  2.0508  1.7337  0.9038
   28MOL    H20 5474   2.499   6.899   1.229 -0.0739 -0.1855 -1.2595
   28MOL    H21 5475   2.673   6.897   1.219 -2.2837  3.3310 -2.4840
   28MOL    C22 5476   2.447   6.551   1.413 -0.0000 -0.2733  0.0032
   28MOL    C23 5477   2.503   6.592   1.547  0.4991 -0.1123  0.3570
   28MOL    C24 5478   2.481   6.471   1.641  0.6353 -0.5990  0.2145
   28MOL    O25 5479   2.373   6.444   1.679  0.1834 -0.2246 -0.0596
   28MOL    N26 5480   2.586   6.392   1.671 -0.2315  0.2202  0.0390
   28MOL    H27 5481   2.500   6.464   1.376  0.3572 -1.8487  3.9893
   28MOL    H28 5482   2.343   6.520   1.419  0.8860 -3.5896 -0.5261
   28MOL    H29 5483   2.610   6.608   1.541  0.2390  1.3961 -0.3656
   28MOL    H30 5484   2.678   6.415   1.638 -0.7730 -0.4707 -2.0067
   28MOL    H31 5485   2.582   6.304   1.721 -1.2963  0.2291 -0.0239
   28MOL    C32 5486   2.439   6.722   1.597 -0.4189 -0.4651  0.7985
   28MOL    C33 5487   2.539   6.833   1.648 -0.1983 -0.2405 -0.4522
   28MOL    C34 5488   2.577   6.782   1.791 -0.9172  0.1016  1.1980
   28MOL    O35 5489   2.500   6.797   1.886  0.3924 -0.8608  0.2080
   28MOL    N36 5490   2.701   6.748   1.809 -0.1250 -0.8111  0.6100
   28MOL    H37 5491   2.365   6.688   1.669 -1.4849 -0.6869 -0.3937
   28MOL    H38 5492   2.384   6.766   1.514  0.1216 -0.0422  0.6621
   28MOL    H39 5493   2.622   6.840   1.578 -1.5929  1.8146 -1.9696
   28MOL    H40 5494   2.769   6.767   1.737  0.1063 -1.7039  0.5880
   28MOL    H41 5495   2.735   6.709   1.896 -1.5111 -0.4613  1.3168
   28MOL    C42 5496   2.474   6.978   1.636 -0.5261 -0.3183 -0.1279
   28MOL    C43 5497   2.570   7.102   1.656  0.5689  0.0070  0.0982
   28MOL    C44 5498   2.706   7.082   1.601  0.5198 -0.2525  0.9300
   28MOL    O45 5499   2.790   7.003   1.645  0.0693  0.1801  0.0094
   28MOL    N46 5500   2.736   7.140   1.483  0.2099 -0.6599 -0.0307
   28MOL    H47 5501   2.384   6.988   1.698  1.2980  3.0412  2.1215
   28MOL    H48 5502   2.443   6.973   1.531  1.3081 -0.0600 -0.6968
   28MOL    H49 5503   2.529   7.186   1.601  0.9577  0.6924  0.8480
   28MOL    H50 5504   2.831   7.122   1.456  0.0675 -3.1384  0.9987
   28MOL    H51 5505   2.662   7.185   1.431  0.3641  0.0911  0.3930
   28MOL    C52 5506   2.587   7.135   1.806 -0.0545 -0.5586  0.4889
   28MOL    C53 5507   2.660   7.261   1.859 -0.0352 -0.4188  0.0186
   28MOL    C54 5508   2.662   7.261   2.016 -0.2427  0.1306 -0.8817
   28MOL    O55 5509   2.567   7.312   2.081  0.5510 -0.1285 -0.3942
   28MOL    N56 5510   2.763   7.197   2.069  0.5022  0.4225  0.2277
   28MOL    H57 5511   2.650   7.054   1.842  1.6234  0.1920 -0.6729
   28MOL    H58 5512   2.489   7.119   1.851 -0.5522  0.6266 -0.1486
   28MOL    H59 5513   2.763   7.242   1.828  0.9706  0.8284  2.4498
   28MOL    H60 5514   2.758   7.178   2.168  0.8945 -2.6597 -0.2947
   28MOL    H61 5515   2.840   7.157   2.017  0.5915  1.8654 -0.7855
   28MOL    C62 5516   2.597   7.389   1.805 -0.1622  0.0611 -0.3174
   28MOL    C63 5517   2.680   7.454   1.696  0.8291 -0.2100 -0.0786
   28MOL    C64 5518   2.825   7.483   1.734  0.5839 -1.2128 -0.2376
   28MOL    O65 5519   2.852   7.537   1.844 -0.2360  0.1685 -0.2089
   28MOL    N66 5520   2.912   7.442   1.648 -0.2022 -0.0007 -0.3314
   28MOL    H67 5521   2.565   7.450   1.890  2.2677 -0.4610  1.0306
   28MOL    H68 5522   2.499   7.378   1.760 -1.0646 -0.0304  1.6101
   28MOL    H69 5523   2.683   7.387   1.610  2.9496  2.5509 -2.2668
   28MOL    H70 5524   3.008   7.462   1.670  0.1610  0.6404 -2.3303
   28MOL    H71 5525   2.890   7.407   1.555 -0.7406  2.0705 -1.0159
   28MOL    C72 5526   2.607   7.577   1.656  0.1153  0.3966 -0.9224
   28MOL    C73 5527   2.664   0.008   1.535 -0.1047  0.4286  0.3490
   28MOL    C74 5528   2.756   0.123   1.581 -0.3009  0.6246  0.2784
   28MOL    O75 5529   2.716   0.213   1.652  0.1774 -0.1960 -0.1835
   28MOL    N76 5530   2.889   0.120   1.546  0.4493 -0.1295  0.1296
   28MOL    H77 5531   2.612   7.642   1.744  3.4222 -0.0908 -0.6930
   28MOL    H78 5532   2.500   7.560   1.644  0.1027 -0.9245  0.9620
   28MOL    H79 5533   2.716   7.605   1.460 -1.3007 -0.4392  0.1890
   28MOL    H80 5534   2.921   0.045   1.486 -1.4649 -1.2480  0.4499
   28MOL    H81 5535   2.957   0.187   1.577 -1.3481  1.5891  0.4791
   28MOL    C82 5536   2.546   0.064   1.452 -0.7595 -0.2553 -0.1621
   28MOL    C83 5537   2.471   7.629   1.350 -0.2250  0.5932  0.4553
   28MOL    C84 5538   2.409   0.055   1.246 -0.1523 -0.2124  0.3338
   28MOL    O85 5539   2.354   0.166   1.269 -0.3019  0.0077  0.8239
   28MOL    N86 5540   2.400   0.010   1.122 -0.0407  0.5766 -0.9002
   28MOL    H87 5541   2.591   0.155   1.412  1.2443 -1.2079 -0.1059
   28MOL    H88 5542   2.471   0.111   1.517 -1.9811 -0.3520 -1.4762
   28MOL    H89 5543   2.540   7.561   1.299 -1.2174 -2.1875  2.7041
   28MOL    H90 5544   2.353   0.058   1.047 -1.1812 -0.9243 -1.1844
   28MOL    H91 5545   2.436   7.574   1.104 -0.4077 -0.0332  1.2955
   28MOL    C92 5546   2.366   7.534   1.413  0.7988  0.3998 -0.2893
   28MOL    C93 5547   2.266   7.459   1.315  0.3433  0.1426  0.0260
   28MOL    C94 5548   2.141   7.427   1.403 -0.3647 -0.4207 -0.4663
   28MOL    O95 5549   2.142   7.334   1.480  0.8802  0.2392 -0.2162
   28MOL    N96 5550   2.029   7.502   1.381  0.5012 -0.0154 -0.5094
   28MOL    H97 5551   2.311   7.578   1.497 -2.1340 -1.2336 -1.2926
   28MOL    H98 5552   2.427   7.457   1.460 -0.5064 -1.2975 -1.3331
   28MOL    H99 5553   2.226   7.519   1.233 -0.5166  1.1288  1.1459
   28MOL   H100 5554   1.952   7.486   1.443  0.1265  0.9185 -0.7223
   28MOL   H101 5555   2.031   7.586   1.325 -0.6726  0.4112  0.0870
   28MOL   C102 5556   2.328   7.320   1.270  0.0830  0.3556 -0.1645
   28MOL   C103 5557   2.242   7.250   1.166 -0.5742  0.1223 -0.1583
   28MOL   C104 5558   2.297   7.104   1.143  0.2805 -0.0768 -0.0034
   28MOL   O105 5559   2.408   7.076   1.174 -0.0349  0.4724  0.1534
   28MOL   N106 5560   2.216   7.004   1.113  0.2203 -0.0077  0.0308
   28MOL   H107 5561   2.356   7.256   1.354  0.4457 -0.7307 -1.0923
   28MOL   H108 5562   2.420   7.347   1.220  0.5082  0.0837  0.4620
   28MOL   H109 5563   2.146   7.229   1.213 -1.1819  0.5632 -1.1865
   28MOL   H110 5564   2.242   6.907   1.113 -0.2597 -0.1891 -2.9121
   28MOL   H111 5565   2.124   7.024   1.078 -0.4146  0.2457  1.7794
   28MOL   C112 5566   2.229   7.313   1.027 -0.0792  0.0471 -0.1740
   28MOL   C113 5567   2.097   7.373   0.987  0.8385 -0.4691  0.2661
   28MOL   C114 5568   1.967   7.315   1.053 -0.1892 -0.1215  0.2054
   28MOL   O115 5569   1.948   7.193   1.053  0.2359  0.3397  0.0739
   28MOL   N116 5570   1.898   7.399   1.123  0.0771 -0.3232  1.0096
   28MOL   H117 5571   2.277   7.257   0.947 -0.2565 -2.3846  1.3699
   28MOL   H118 5572   2.293   7.401   1.033  2.0267 -1.3632 -1.1352
   28MOL   H119 5573   2.098   7.478   1.017 -1.3850 -0.5915  0.8691
   28MOL   H120 5574   1.821   7.361   1.176 -0.4354  0.1044  0.5798
   28MOL   H121 5575   1.923   7.496   1.137 -0.5512  0.1409 -0.9685
   28MOL   C122 5576   2.082   7.361   0.833 -0.3926 -0.6117  0.9709
   28MOL   C123 5577   2.195   7.445   0.761  0.2381 -0.2604  0.4671
   28MOL   C124 5578   2.168   7.596   0.778 -1.1999 -0.6484  0.0920
   28MOL   O125 5579   2.250   7.656   0.847  0.1035  0.0879 -0.1842
   28MOL   N126 5580   2.063   0.004   0.727  0.3578 -0.4689 -0.0527
   28MOL   H127 5581   1.986   7.406   0.807  0.8204  0.5604 -1.7260
   28MOL   H128 5582   2.080   7.257   0.799 -0.6254  0.2924 -1.9038
   28MOL   H129 5583   2.291   7.407   0.796  0.3250 -1.9315 -1.4690
   28MOL   H130 5584   2.005   7.618   0.656 -1.8973  2.1841  0.1371
   28MOL   H131 5585   2.033   0.098   0.745 -1.6991 -0.9147 -1.0064
   28MOL   C132 5586   2.201   7.402   0.611  0.1719  0.4566 -0.7343
   28MOL   C133 5587   2.310   7.470   0.516  0.4576  0.1078  0.3355
   28MOL   C134 5588   2.282   7.435   0.366  0.0813 -1.0337  0.1428
   28MOL   O135 5589   2.314   7.327   0.322  0.8589 -0.1699 -0.4441
   28MOL   N136 5590   2.214   7.528   0.302 -0.1710 -0.4286  0.0130
   28MOL   H137 5591   2.107   7.404   0.556  0.2138  0.7803 -0.7979
   28MOL   H138 5592   2.222   7.296   0.595 -1.6430 -0.0877  0.3910
   28MOL   H139 5593   2.302   7.578   0.527  4.5138  0.6065 -0.8027
   28MOL   H140 5594   2.190   7.516   0.205  0.0511  1.3295 -0.2838
   28MOL   H141 5595   2.174   7.606   0.354 -0.0048 -0.8739  0.8147
   28MOL   C142 5596   2.452   7.438   0.555 -0.5993  0.4948 -0.5442
   28MOL   C143 5597   2.526   7.541   0.641  0.1529 -0.3059 -0.2262
   28MOL   C144 5598   2.534   0.029   0.587 -0.2765 -0.4017  0.1175
   28MOL   O145 5599   2.569   0.062   0.473  0.3622 -0.2563  0.4557
   28MOL   N146 5600   2.500   0.126   0.674 -0.8136  0.3713 -0.3979
   28MOL   H147 5601   2.506   7.426   0.461 -2.9883  0.8091 -2.0043
   28MOL   H148 5602   2.458   7.338   0.598 -0.2552  0.3912 -0.8350
   28MOL   H149 5603   2.489   7.532   0.743  0.7760  0.5016  0.0700
   28MOL   H150 5604   2.473   0.096   0.767 -1.7019 -0.7950 -1.0028
   28MOL   H151 5605   2.530   0.218   0.648  0.4854 -0.0097 -0.2579
   28MOL   C152 5606   2.666   7.487   0.667 -0.2087 -0.1261 -0.4388
   28MOL   C153 5607   2.755   7.544   0.777 -0.4143  0.1508  0.1772
   28MOL   C154 5608   2.858   7.636   0.710 -0.5387 -0.4930  0.2580
   28MOL   O155 5609   2.932   7.598   0.619  0.6848  0.2132 -0.7272
   28MOL   N156 5610   2.866   0.112   0.751 -1.1064 -0.0349  0.0583
   28MOL   H157 5611   2.722   7.487   0.573  0.8400  0.0727  0.1812
   28MOL   H158 5612   2.646   7.384   0.694 -0.5338  0.3850  1.3452
   28MOL   H159 5613   2.694   7.606   0.843 -0.3084  0.2702  0.1633
   28MOL   H160 5614   2.808   0.141   0.829 -0.7588 -1.0767  0.7176
   28MOL   H161 5615   2.918   0.183   0.703 -1.3147 -0.2378 -0.4723
   28MOL   C162 5616   2.830   7.433   0.855  0.1301 -0.4773 -0.0790
   28MOL   C163 5617   2.773   7.405   0.999  0.3542 -0.4086 -0.4621
   28MOL   C164 5618   2.621   7.354   0.988 -0.2886 -0.0275  0.3879
   28MOL   O165 5619   2.530   7.437   0.990  0.4355  0.0099 -0.4067
   28MOL   N166 5620   2.595   7.224   0.999 -1.2583  0.6382  0.6184
   28MOL   H167 5621   2.935   7.455   0.873  0.4212 -0.2232 -2.0485
   28MOL   H168 5622   2.838   7.335   0.807 -2.7363  0.3964 -2.4911
   28MOL   H169 5623   2.830   7.320   1.039  0.9322 -0.6642 -1.7934
   28MOL   H170 5624   2.506   7.181   1.022 -1.8903  0.7593 -1.4976
   28MOL   H171 5625   2.670   7.157   1.012 -1.1151  0.1049 -2.4169
   28MOL   C172 5626   2.778   7.523   1.095  0.2241 -0.0064  0.5532
   28MOL   C173 5627   2.914   7.568   1.158  0.4788 -0.2126  0.2911
   28MOL   C174 5628   2.952   7.457   1.247 -0.3221  0.1522  0.8476
   28MOL   O175 5629   2.889   7.440   1.351 -0.1237  0.1058 -0.0633
   28MOL   N176 5630   3.062   7.383   1.224 -0.2173  0.3977  0.5673
   28MOL   H177 5631   2.700   7.510   1.170  1.9018 -0.2151  2.2962
   28MOL   H178 5632   2.734   7.613   1.052  1.1703  0.3736  0.3537
   28MOL   H179 5633   2.993   7.565   1.083 -0.1870  1.3368 -0.4854
   28MOL   H180 5634   3.133   7.401   1.154 -0.1184  0.9145  0.8014
   28MOL   H181 5635   3.073   7.305   1.286 -0.6176  0.3961  0.6411
   28MOL   C182 5636   2.906   0.043   1.232  0.3526 -0.2509 -0.2416
   28MOL   C183 5637   2.875   0.165   1.142  0.3311  0.3805 -0.4091
   28MOL   C184 5638   3.004   0.238   1.109 -0.4267 -0.0930  0.0393
   28MOL   O185 5639   3.015   0.281   0.991 -0.4645 -0.2444  0.2070
   28MOL   N186 5640   3.083   0.278   1.210 -0.6813  0.9432 -0.3111
   28MOL   H187 5641   2.998   0.056   1.290  1.6597 -0.7759 -2.1379
   28MOL   H188 5642   2.828   0.050   1.307  0.7580 -0.4525  0.2029
   28MOL   H189 5643   2.838   0.136   1.043 -1.0803 -0.4533  0.3496
   28MOL   H190 5644   3.063   0.274   1.309  0.1849  0.9368 -0.1282
   28MOL   H191 5645   3.157   0.341   1.181 -0.2805  0.0494 -1.2746
   28MOL   C192 5646   2.773   0.270   1.199  0.3348  0.2440 -0.2773
   28MOL   C193 5647   2.728   0.399   1.120 -0.5124  0.1803 -0.7784
   28MOL   C194 5648   2.692   0.367   0.977  0.1989 -0.3770  0.4884
   28MOL   O195 5649   2.611   0.274   0.963 -0.4677  0.0586  0.3564
   28MOL   N196 5650   2.747   0.431   0.874  0.3186 -0.1687  0.4975
   28MOL   H197 5651   2.794   0.303   1.300 -2.7520  1.5110  0.0158
   28MOL   H198 5652   2.681   0.212   1.209 -0.0342  0.8281 -0.2571
   28MOL   H199 5653   2.633   0.432   1.163 -0.4773 -0.4398 -0.2122
   28MOL   H200 5654   2.718   0.413   0.779  1.6558  2.1705 -0.3908
   28MOL   H201 5655   2.806   0.512   0.884 -0.8252  0.7631 -0.2612
   28MOL   H202 5656   2.799   0.481   1.121  0.1691 -0.4088  1.3593
   29MOL     C1 5657   7.632   6.163   0.278  0.0139 -0.4713  0.2126
   29MOL     C2 5658   0.014   6.017   0.313  0.1538  0.0894 -0.8098
   29MOL     C3 5659   0.164   6.007   0.293 -0.4392 -0.6724  1.1621
   29MOL     O4 5660   0.218   6.013   0.182 -0.0003  0.4254 -0.2729
   29MOL     N5 5661   0.246   5.999   0.402  0.1013 -0.0471  0.7060
   29MOL     H6 5662   0.040   6.235   0.329  0.8608  0.1562 -1.7260
   29MOL     H7 5663   7.649   6.186   0.173 -4.1542 -0.1684 -0.5069
   29MOL     H8 5664   7.655   6.019   0.421  1.0504  1.8970 -0.6823
   29MOL     H9 5665   0.209   6.024   0.493  2.6004 -2.0110  2.3086
   29MOL    H10 5666   0.345   6.008   0.389  0.1670 -4.0282 -2.4636
   29MOL    H11 5667   7.529   6.201   0.277  1.4694  3.7611  0.0175
   29MOL    C12 5668   7.579   5.925   0.231 -0.1429  0.6037  1.1123
   29MOL    C13 5669   7.429   5.923   0.260  0.6345 -0.4528  0.1263
   29MOL    C14 5670   7.410   5.876   0.404  0.3132 -0.1367 -0.8690
   29MOL    O15 5671   7.442   5.762   0.435  0.1136  0.0863  0.0950
   29MOL    N16 5672   7.334   5.949   0.477 -0.0656 -0.1624 -0.1604
   29MOL    H17 5673   7.627   5.827   0.236 -1.3123 -0.0995 -0.6951
   29MOL    H18 5674   7.598   5.954   0.127 -0.7037  0.8803  1.0830
   29MOL    H19 5675   7.390   6.021   0.235  2.1654  0.1566  0.0862
   29MOL    H20 5676   7.319   5.929   0.575 -0.0856  2.3697  0.3713
   29MOL    H21 5677   7.281   6.021   0.432  1.4315 -0.1217 -1.9036
   29MOL    C22 5678   7.354   5.810   0.172 -0.2213 -0.2870 -0.4820
   29MOL    C23 5679   7.219   5.849   0.097  0.3448 -0.1366  0.1357
   29MOL    C24 5680   7.241   5.948   7.640 -0.3295  0.1906 -0.1490
   29MOL    O25 5681   7.295   6.054   0.002  0.3062  0.2230 -0.1732
   29MOL    N26 5682   7.196   5.919   7.518 -0.4003  0.1303  0.0526
   29MOL    H27 5683   7.337   5.719   0.229  0.9540 -0.1164  0.1401
   29MOL    H28 5684   7.426   5.774   0.098  0.0205 -0.7019 -0.0521
   29MOL    H29 5685   7.176   5.763   0.045  1.5435 -0.9123  0.4157
   29MOL    H30 5686   7.191   5.992   7.447  0.5473  0.0418 -0.1107
   29MOL    H31 5687   7.133   5.843   7.499 -0.8983  0.0586  1.9735
   29MOL    C32 5688   7.104   5.881   0.196 -0.3844 -0.5381  0.2355
   29MOL    C33 5689   7.067   5.768   0.296  0.2990 -0.1133 -0.6162
   29MOL    C34 5690   6.978   5.672   0.220  0.3705  0.2700 -0.0436
   29MOL    O35 5691   6.854   5.687   0.199  0.2412  0.0476  0.1482
   29MOL    N36 5692   7.036   5.570   0.154 -0.5059  0.0535  0.6383
   29MOL    H37 5693   7.015   5.899   0.136 -0.5484  0.9742  0.9011
   29MOL    H38 5694   7.122   5.972   0.254 -1.0890 -0.9906  1.1825
   29MOL    H39 5695   7.155   5.723   0.343  1.1867  3.0659  0.9528
   29MOL    H40 5696   7.127   5.540   0.186  0.1366 -0.3441 -1.5155
   29MOL    H41 5697   6.973   5.497   0.124  1.7233 -1.2349 -1.0068
   29MOL    C42 5698   6.987   5.832   0.412 -0.5232  0.0924  0.1453
   29MOL    C43 5699   6.932   5.738   0.519 -0.4425 -0.3269 -0.2027
   29MOL    C44 5700   6.805   5.795   0.587 -0.1238  0.7314  0.3762
   29MOL    O45 5701   6.780   5.917   0.582  0.3895  0.3122  0.4094
   29MOL    N46 5702   6.717   5.706   0.639 -0.1497 -0.3974 -0.2306
   29MOL    H47 5703   6.904   5.885   0.366 -0.1805 -0.2535 -0.8827
   29MOL    H48 5704   7.049   5.911   0.454 -0.6594  1.5572 -2.3107
   29MOL    H49 5705   6.879   5.653   0.476 -1.0580  0.5208 -1.1205
   29MOL    H50 5706   6.624   5.730   0.671 -0.7258 -0.6932 -1.6251
   29MOL    H51 5707   6.733   5.607   0.626  0.7456  0.0554 -3.0313
   29MOL    C52 5708   7.037   5.700   0.625  0.5459 -0.6392 -0.2825
   29MOL    C53 5709   7.068   5.551   0.630  0.2046 -0.3776  0.5883
   29MOL    C54 5710   6.955   5.467   0.698  0.3893 -1.1104 -0.1677
   29MOL    O55 5711   6.921   5.489   0.809  0.0607  0.2522 -0.5506
   29MOL    N56 5712   6.889   5.382   0.620 -0.2451  0.4453 -0.1657
   29MOL    H57 5713   7.005   5.736   0.723 -0.6016 -1.2804 -0.4089
   29MOL    H58 5714   7.126   5.761   0.612  1.2560 -1.4521  0.7037
   29MOL    H59 5715   7.090   5.509   0.532  2.0370 -0.8561  1.1752
   29MOL    H60 5716   6.908   5.366   0.523  0.4472 -1.2566  0.2325
   29MOL    H61 5717   6.831   5.310   0.661 -1.4962  1.5546  0.0589
   29MOL    C62 5718   7.200   5.519   0.710 -0.0895 -0.4705  0.3275
   29MOL    C63 5719   7.337   5.522   0.632  0.4146 -0.5455 -0.0138
   29MOL    C64 5720   7.332   5.435   0.509  0.2876  0.2365 -0.3225
   29MOL    O65 5721   7.299   5.316   0.515 -0.0953  0.2852 -0.0908
   29MOL    N66 5722   7.355   5.502   0.394  0.0469 -0.6109 -0.2432
   29MOL    H67 5723   7.189   5.420   0.754  1.3704  0.1113  2.0532
   29MOL    H68 5724   7.206   5.587   0.794  0.4191 -0.6220  0.4187
   29MOL    H69 5725   7.343   5.628   0.610  0.1831 -0.4865  0.2129
   29MOL    H70 5726   7.363   5.455   0.304 -0.3840 -3.1580  0.9936
   29MOL    H71 5727   7.353   5.603   0.394 -3.3500 -0.5907 -1.1207
   29MOL    C72 5728   7.461   5.492   0.723 -1.2525  0.1150  0.1873
   29MOL    C73 5729   7.597   5.499   0.653 -0.0840 -0.1400 -0.3810
   29MOL    C74 5730   0.007   5.365   0.677 -1.2971 -0.6286 -1.0990
   29MOL    O75 5731   0.010   5.311   0.788  0.3597 -0.5111 -0.5108
   29MOL    N76 5732   0.051   5.305   0.571  0.1502 -0.6346  0.0233
   29MOL    H77 5733   7.448   5.408   0.790 -1.5397  0.1249  0.1449
   29MOL    H78 5734   7.475   5.565   0.803  1.2409 -0.6948  0.5373
   29MOL    H79 5735   7.585   5.527   0.548  1.1376  3.6866  0.4210
   29MOL    H80 5736   0.035   5.343   0.479  1.7902 -1.1307 -0.4829
   29MOL    H81 5737   0.097   5.216   0.585 -1.6921 -1.6678 -0.1877
   29MOL    C82 5738   0.030   5.617   0.718  0.9991  0.0555 -0.1436
   29MOL    C83 5739   0.178   5.628   0.670 -0.6271  0.0569 -0.1971
   29MOL    C84 5740   0.242   5.728   0.772 -0.2293  0.2356  0.1971
   29MOL    O85 5741   0.195   5.836   0.795  0.2076  0.4092  0.1680
   29MOL    N86 5742   0.349   5.687   0.832 -0.0306  0.5749  0.0070
   29MOL    H87 5743   0.041   5.598   0.824  0.9888  1.9193  0.2090
   29MOL    H88 5744   7.627   5.708   0.720  1.3926  0.3015  1.1092
   29MOL    H89 5745   0.236   5.539   0.691  1.1853  1.1429 -0.4379
   29MOL    H90 5746   0.373   5.589   0.834  0.1981  0.6357  0.3890
   29MOL    H91 5747   0.412   5.757   0.870  0.3636 -0.6916  1.7712
   29MOL    C92 5748   0.194   5.681   0.526  0.1148  0.0836  0.1400
   29MOL    C93 5749   0.251   5.579   0.423 -0.6209 -0.0750  0.0020
   29MOL    C94 5750   0.392   5.532   0.474 -0.1139 -0.4520 -0.9675
   29MOL    O95 5751   0.420   5.411   0.484 -0.0515  0.1172 -0.6446
   29MOL    N96 5752   0.492   5.618   0.487 -0.6703 -0.0996  0.0435
   29MOL    H97 5753   0.263   5.765   0.534 -0.5051  0.7701 -1.6389
   29MOL    H98 5754   0.094   5.717   0.500  0.1486 -0.0721 -0.2085
   29MOL    H99 5755   0.189   5.489   0.424  0.6436 -1.0570 -3.5601
   29MOL   H100 5756   0.480   5.717   0.473 -1.2493 -0.0193  1.0265
   29MOL   H101 5757   0.583   5.577   0.500 -1.3617 -1.8854 -0.5872
   29MOL   C102 5758   0.259   5.635   0.276  0.8146 -0.4148  0.4495
   29MOL   C103 5759   0.327   5.537   0.169  0.7323 -0.1210  0.6867
   29MOL   C104 5760   0.362   5.623   0.054  0.1575  0.3329 -0.0589
   29MOL   O105 5761   0.281   5.646   7.619  0.0540 -0.4029 -0.3686
   29MOL   N106 5762   0.471   5.695   0.069 -0.2965 -0.4128 -0.0859
   29MOL   H107 5763   0.318   5.727   0.278  0.2371  0.0247 -2.0347
   29MOL   H108 5764   0.167   5.681   0.242  0.2972 -1.7279  0.0378
   29MOL   H109 5765   0.421   5.503   0.213  1.6046  0.3298 -0.7995
   29MOL   H110 5766   0.498   5.753   7.648 -3.7839  0.5332 -0.6821
   29MOL   H111 5767   0.530   5.681   0.149 -1.3173 -0.0021  0.7428
   29MOL   C112 5768   0.246   5.408   0.131 -0.1862  0.2687 -0.9452
   29MOL   C113 5769   0.095   5.409   0.090  0.0752  0.3132  0.8228
   29MOL   C114 5770   0.005   5.431   0.211  0.3185 -0.5737  0.0992
   29MOL   O115 5771   7.636   5.340   0.291  0.0033 -0.6783  0.8851
   29MOL   N116 5772   7.610   5.549   0.233 -0.1416 -0.0823 -0.4300
   29MOL   H117 5773   0.265   5.340   0.214  0.3135  0.8120 -0.6111
   29MOL   H118 5774   0.294   5.343   0.057 -0.1150 -0.3374 -0.3678
   29MOL   H119 5775   0.081   5.496   0.025 -1.3055 -0.4533  0.0920
   29MOL   H120 5776   7.568   5.586   0.317  0.7679 -3.0765  1.4283
   29MOL   H121 5777   7.642   5.624   0.174  1.7352 -0.1555  0.4533
   29MOL   C122 5778   0.057   5.284   0.003 -0.8816  0.4266 -0.4060
   29MOL   C123 5779   7.568   5.282   7.595 -0.1400 -0.0156 -0.1743
   29MOL   C124 5780   7.542   5.142   7.533  0.3209 -0.3249 -1.0501
   29MOL   O125 5781   7.626   5.080   7.466 -0.3457 -0.1766 -0.2472
   29MOL   N126 5782   7.421   5.095   7.545 -0.2502 -0.2153  0.0755
   29MOL   H127 5783   0.074   5.196   0.065  0.2265  1.2943  0.5264
   29MOL   H128 5784   0.134   5.280   7.582  1.6106  2.5738  1.8646
   29MOL   H129 5785   7.497   5.289   0.020 -2.0494 -0.0943 -1.8023
   29MOL   H130 5786   7.393   5.006   7.505 -0.3406  0.9097 -2.4135
   29MOL   H131 5787   7.344   5.140   7.593  0.4898  1.5660 -0.3695
   29MOL   C132 5788   7.528   5.402   7.499 -0.4672  0.2831 -1.2154
   29MOL   C133 5789   7.443   5.517   7.562  0.6212 -0.2864 -0.3099
   29MOL   C134 5790   7.316   5.464   7.626 -0.3151  0.1447 -0.2412
   29MOL   O135 5791   7.301   5.473   0.088 -0.4529 -0.0172  0.4925
   29MOL   N136 5792   7.235   5.397   7.544 -0.0967  0.4250  0.5685
   29MOL   H137 5793   7.482   5.365   7.407 -2.4111 -0.2701 -0.0338
   29MOL   H138 5794   7.609   5.450   7.443  0.9568 -1.4959 -0.7081
   29MOL   H139 5795   7.502   5.560   7.643  0.5163  0.0728 -0.4227
   29MOL   H140 5796   7.151   5.349   7.574 -0.6364  0.0277 -1.4923
   29MOL   H141 5797   7.270   5.394   7.449  0.2655  1.1526  0.6731
   29MOL   C142 5798   7.393   5.618   7.453 -0.4805 -0.3330  0.7319
   29MOL   C143 5799   7.495   5.685   7.358  0.5547 -0.0813 -0.2022
   29MOL   C144 5800   7.601   5.748   7.451 -0.2905  0.0998  0.1683
   29MOL   O145 5801   7.569   5.841   7.526 -0.3435 -0.2261  0.3469
   29MOL   N146 5802   0.066   5.696   7.447  1.2144  0.4662 -0.3393
   29MOL   H147 5803   7.346   5.701   7.507 -1.8951 -0.2462 -0.5886
   29MOL   H148 5804   7.314   5.571   7.394  0.4114 -1.2657  0.2701
   29MOL   H149 5805   7.543   5.608   7.298 -0.6043 -1.0201  0.0608
   29MOL   H150 5806   0.142   5.723   7.508  1.2445  2.0037 -1.0382
   29MOL   H151 5807   0.079   5.628   7.374 -1.8813  1.3673 -1.7936
   29MOL   C152 5808   7.417   5.784   7.263 -0.4717  0.0192 -0.3963
   29MOL   C153 5809   7.489   5.843   7.150 -0.6393  0.0047  0.5763
   29MOL   C154 5810   7.526   5.750   7.040  0.0908 -0.2249 -0.3912
   29MOL   O155 5811   7.642   5.750   7.005 -0.4364  0.3816  0.3241
   29MOL   N156 5812   7.434   5.681   6.976  0.2100 -0.9780  0.5362
   29MOL   H157 5813   7.381   5.868   7.322 -3.6944 -1.5694  0.0039
   29MOL   H158 5814   7.327   5.740   7.221 -0.3705  1.3443 -2.0749
   29MOL   H159 5815   7.420   5.917   7.110  0.6593  0.9016 -0.0605
   29MOL   H160 5816   7.340   5.668   7.010 -0.1780 -0.4036 -0.3060
   29MOL   H161 5817   7.453   5.627   6.892  1.2959 -0.3943  0.4040
   29MOL   C162 5818   7.608   5.940   7.187 -0.3263 -0.2291 -0.4564
   29MOL   C163 5819   7.628   6.075   7.116  0.5077 -0.5412  0.3155
   29MOL   C164 5820   0.003   6.059   6.962  0.3067  0.1724 -0.1077
   29MOL   O165 5821   0.087   5.985   6.917 -0.6428  0.2633 -0.7733
   29MOL   N166 5822   7.583   6.127   6.880  0.1902  0.2888 -0.3847
   29MOL   H167 5823   0.046   5.887   7.190  0.8940  2.0345  2.5849
   29MOL   H168 5824   7.586   5.962   7.291 -1.1856  0.5880 -0.8017
   29MOL   H169 5825   7.533   6.129   7.120  2.2311  2.6491 -0.4762
   29MOL   H170 5826   7.514   6.193   6.914 -1.4755  0.9030 -4.6063
   29MOL   H171 5827   7.585   6.101   6.782 -0.2569 -2.4920  0.3228
   29MOL   C172 5828   0.078   6.165   7.193  0.7076 -0.1836  0.1023
   29MOL   C173 5829   0.080   6.165   7.352 -0.2221 -0.5620  0.1766
   29MOL   C174 5830   7.595   6.205   7.400  0.6415 -0.2245 -0.5254
   29MOL   O175 5831   7.536   6.310   7.364 -0.0175  0.1106 -0.2394
   29MOL   N176 5832   7.530   6.124   7.477 -0.2324 -0.1731  0.3353
   29MOL   H177 5833   0.050   6.261   7.150 -2.0702  0.0601  2.3389
   29MOL   H178 5834   0.179   6.138   7.162  0.1683 -0.1277 -1.7938
   29MOL   H179 5835   0.098   6.061   7.380 -1.3644 -0.8035  0.0768
   29MOL   H180 5836   7.559   6.036   7.518  2.0475  0.1660 -0.4421
   29MOL   H181 5837   7.431   6.134   7.494 -0.0816 -2.0415  2.5092
   29MOL   C182 5838   0.194   6.239   7.420  0.1952  0.1501  0.2314
   29MOL   C183 5839   0.296   6.145   7.493  0.0380 -0.3123  0.2157
   29MOL   C184 5840   0.378   6.231   7.587 -0.7614  0.5035 -0.1263
   29MOL   O185 5841   0.457   6.313   7.542  0.1392 -0.0193 -0.0645
   29MOL   N186 5842   0.364   6.211   0.058 -0.1127  0.3574  0.0195
   29MOL   H187 5843   0.152   6.315   7.487 -0.4533  1.2010 -1.3507
   29MOL   H188 5844   0.241   6.312   7.355 -2.5684 -0.2911 -2.3576
   29MOL   H189 5845   0.236   6.070   7.545 -2.5814 -0.2463 -2.5268
   29MOL   H190 5846   0.422   6.260   0.124  0.0553  1.3508 -0.8442
   29MOL   H191 5847   0.313   6.130   0.089  1.8102 -0.6369  0.7025
   29MOL   C192 5848   0.378   6.050   7.394  0.5703 -0.1247 -0.2805
   29MOL   C193 5849   0.439   5.926   7.465 -0.4873 -0.1784 -0.1049
   29MOL   C194 5850   0.594   5.934   7.470  0.4281  0.7875 -0.0380
   29MOL   O195 5851   0.647   5.932   7.585 -0.0964  0.5985 -0.1027
   29MOL   N196 5852   0.665   5.930   7.360 -0.0932 -0.7439 -0.0736
   29MOL   H197 5853   0.452   6.105   7.337  0.6487 -0.7823 -0.8127
   29MOL   H198 5854   0.314   6.001   7.322  2.5687  0.3506 -2.4270
   29MOL   H199 5855   0.410   5.924   7.570 -2.4167 -1.9756 -0.6313
   29MOL   H200 5856   0.764   5.945   7.368 -0.5134  1.9649  0.4413
   29MOL   H201 5857   0.622   5.917   7.269 -1.5867 -1.8934  0.7695
   29MOL   H202 5858   0.404   5.831   7.425  0.7141 -0.8808  0.4707
   30MOL     C1 5859   3.258   2.550   5.170 -0.3113 -0.2036  0.1057
   30MOL     C2 5860   3.181   2.669   5.129  0.5229 -0.2319 -0.1640
   30MOL     C3 5861   3.091   2.706   5.249  0.0074  0.5779 -0.1357
   30MOL     O4 5862   2.997   2.638   5.288  1.0317 -0.2658  0.5357
   30MOL     N5 5863   3.103   2.823   5.316 -0.6435  0.5643 -0.0481
   30MOL     H6 5864   3.196   2.462   5.188 -1.0845  0.3903  0.3598
   30MOL     H7 5865   3.333   2.512   5.101 -2.6587 -1.7619 -1.6412
   30MOL     H8 5866   3.258   2.743   5.111  1.0040 -1.4680 -3.5565
   30MOL     H9 5867   3.061   2.827   5.408 -0.3173  1.5114  0.0698
   30MOL    H10 5868   3.177   2.888   5.294  2.8819 -3.0216  0.5486
   30MOL    H11 5869   3.320   2.573   5.257  0.3941  0.8325 -0.6651
   30MOL    C12 5870   3.099   2.645   4.995  0.6254  0.1917  0.5710
   30MOL    C13 5871   3.120   2.753   4.885  0.0597  0.1244 -0.4485
   30MOL    C14 5872   3.065   2.887   4.928 -0.1399 -0.3066 -0.2545
   30MOL    O15 5873   2.957   2.900   4.976 -0.6439 -0.8587 -0.0978
   30MOL    N16 5874   3.150   2.985   4.921  0.2067 -0.9277 -0.3455
   30MOL    H17 5875   2.997   2.631   5.031  0.7159 -1.4173  0.2071
   30MOL    H18 5876   3.131   2.552   4.949  1.0742  0.3532  0.5614
   30MOL    H19 5877   3.229   2.756   4.879  0.3618 -0.4601  3.6280
   30MOL    H20 5878   3.128   3.083   4.933  0.5751 -0.6686 -1.6915
   30MOL    H21 5879   3.238   2.961   4.877 -0.2457 -1.0252 -1.2055
   30MOL    C22 5880   3.057   2.711   4.748 -0.1178  0.3807  0.2422
   30MOL    C23 5881   3.074   2.815   4.629 -0.0001 -0.1402  0.4019
   30MOL    C24 5882   2.986   2.767   4.513 -0.8157  0.4217 -0.1875
   30MOL    O25 5883   3.002   2.656   4.466 -0.7261  0.6927  0.4591
   30MOL    N26 5884   2.882   2.845   4.482  0.0635  0.2864 -0.4723
   30MOL    H27 5885   2.951   2.692   4.767 -0.2989 -0.3362 -1.3712
   30MOL    H28 5886   3.097   2.614   4.717 -0.6910  0.0286  0.6025
   30MOL    H29 5887   3.048   2.918   4.651 -0.1354  0.3586 -1.9023
   30MOL    H30 5888   2.869   2.925   4.542 -0.3882  0.9690 -1.4743
   30MOL    H31 5889   2.802   2.810   4.432 -1.1408  2.0077  0.1942
   30MOL    C32 5890   3.220   2.818   4.581 -0.3665  0.3779  0.0958
   30MOL    C33 5891   3.268   2.939   4.507  0.0856 -0.2035 -0.7220
   30MOL    C34 5892   3.224   2.945   4.354  0.6962 -0.2270 -0.3238
   30MOL    O35 5893   3.201   2.839   4.286 -0.0342 -0.2377 -0.3109
   30MOL    N36 5894   3.207   3.071   4.306  0.7395  0.9878 -0.1515
   30MOL    H37 5895   3.248   2.728   4.526  3.2726  1.0120  0.7610
   30MOL    H38 5896   3.281   2.818   4.672 -1.7210 -0.9205  1.0284
   30MOL    H39 5897   3.232   3.028   4.558  2.2683  0.5205 -0.3848
   30MOL    H40 5898   3.204   3.138   4.380 -1.3464  0.2435  0.4806
   30MOL    H41 5899   3.157   3.086   4.219  1.4184  2.6921 -0.2656
   30MOL    C42 5900   3.422   2.956   4.509  0.0963 -0.2999 -0.1548
   30MOL    C43 5901   3.486   3.047   4.622 -0.1199  0.1182  0.5541
   30MOL    C44 5902   3.508   2.975   4.761  0.6713  0.1510 -0.0683
   30MOL    O45 5903   3.451   3.009   4.860 -0.6664 -0.1845  0.0295
   30MOL    N46 5904   3.571   2.861   4.761  0.8366  0.0001 -0.3252
   30MOL    H47 5905   3.449   3.005   4.416 -2.2994  2.1804  0.4209
   30MOL    H48 5906   3.472   2.858   4.510  0.5551 -0.0776 -0.9392
   30MOL    H49 5907   3.584   3.057   4.575 -1.2989  0.3034 -1.9941
   30MOL    H50 5908   3.626   2.831   4.682 -0.6879 -2.3361 -0.5505
   30MOL    H51 5909   3.571   2.808   4.847  2.7737  0.2518 -0.1406
   30MOL    C52 5910   3.436   3.200   4.641 -0.0694 -0.1723  0.0444
   30MOL    C53 5911   3.550   3.298   4.620 -0.1832  0.5212 -0.4506
   30MOL    C54 5912   3.665   3.273   4.719  0.9269 -0.0397 -0.2820
   30MOL    O55 5913   3.657   3.289   4.838  0.4727  0.6105  0.3006
   30MOL    N56 5914   3.778   3.222   4.667  0.8965 -0.7053 -0.5087
   30MOL    H57 5915   3.397   3.209   4.742 -0.0922 -1.4378  0.1561
   30MOL    H58 5916   3.361   3.229   4.568  1.2608  0.0147 -1.2900
   30MOL    H59 5917   3.586   3.300   4.517  0.9347 -3.3984 -0.2090
   30MOL    H60 5918   3.839   3.184   4.738 -1.9514 -1.0661  1.7945
   30MOL    H61 5919   3.796   3.220   4.568  0.7282  1.7251 -0.6057
   30MOL    C62 5920   3.494   3.436   4.648  0.5367 -0.0408  0.5200
   30MOL    C63 5921   3.359   3.475   4.579  0.3111  0.0042 -0.0709
   30MOL    C64 5922   3.381   3.604   4.501  0.3990  0.3943  0.1220
   30MOL    O65 5923   3.404   3.704   4.569 -0.2791 -0.4954 -0.5641
   30MOL    N66 5924   3.393   3.608   4.366  0.3454  0.2749  0.0346
   30MOL    H67 5925   3.570   3.510   4.623 -0.2069  0.5390 -0.0886
   30MOL    H68 5926   3.479   3.460   4.753  1.7684  2.5943  0.1404
   30MOL    H69 5927   3.332   3.407   4.497  0.4602  0.0491 -0.1565
   30MOL    H70 5928   3.441   3.692   4.337  0.0880  0.3719 -0.1136
   30MOL    H71 5929   3.401   3.528   4.305  0.1213  0.5124 -0.3038
   30MOL    C72 5930   3.236   3.484   4.674 -0.3592  0.3595 -0.3038
   30MOL    C73 5931   3.093   3.480   4.618 -0.5614 -0.1168  0.7073
   30MOL    C74 5932   3.059   3.347   4.554  1.0740 -0.4841  1.4653
   30MOL    O75 5933   3.105   3.315   4.447  0.4946  0.6032  0.4620
   30MOL    N76 5934   2.973   3.269   4.614  0.2367  0.1451 -0.2166
   30MOL    H77 5935   3.234   3.573   4.737  1.3874  1.4612 -1.7496
   30MOL    H78 5936   3.245   3.396   4.738  0.6576 -0.5454 -1.6529
   30MOL    H79 5937   3.037   3.486   4.711  0.1742 -1.2560  1.2308
   30MOL    H80 5938   2.936   3.178   4.589  1.5732 -0.8628  1.3359
   30MOL    H81 5939   2.921   3.308   4.691 -1.2947 -0.0056 -1.1672
   30MOL    C82 5940   3.054   3.594   4.524 -1.1009 -0.2957  0.4180
   30MOL    C83 5941   2.905   3.608   4.488 -1.0873 -0.3290 -0.5820
   30MOL    C84 5942   2.903   3.616   4.337 -0.8900  0.5939 -0.4180
   30MOL    O85 5943   2.970   3.696   4.267 -0.6529  0.4338 -0.0691
   30MOL    N86 5944   2.822   3.529   4.272 -0.0512 -0.5216  0.1616
   30MOL    H87 5945   3.117   3.584   4.436 -0.2325 -0.7239  1.0667
   30MOL    H88 5946   3.093   3.690   4.560  0.7278 -0.2424 -1.6118
   30MOL    H89 5947   2.855   3.513   4.507 -0.8273 -0.4283 -0.3881
   30MOL    H90 5948   2.808   3.540   4.172  1.3629  0.7647  0.0696
   30MOL    H91 5949   2.766   3.461   4.321 -1.1709  0.0572 -0.3017
   30MOL    C92 5950   2.827   3.727   4.552 -0.5926 -0.2201 -0.3136
   30MOL    C93 5951   2.846   3.745   4.705 -0.0250 -0.2984  0.4884
   30MOL    C94 5952   2.823   3.614   4.788  0.3802  0.4314  0.2239
   30MOL    O95 5953   2.752   3.525   4.746 -0.2750  0.9768 -0.0718
   30MOL    N96 5954   2.900   3.601   4.891 -0.3240 -0.3381 -0.4475
   30MOL    H97 5955   2.720   3.721   4.534 -0.5348 -0.1628 -0.6817
   30MOL    H98 5956   2.855   3.820   4.503 -0.0306  0.8487  1.9430
   30MOL    H99 5957   2.949   3.777   4.718  0.5850 -1.5159 -1.1785
   30MOL   H100 5958   2.978   3.664   4.906 -0.6171 -0.4826  1.8785
   30MOL   H101 5959   2.897   3.517   4.947  3.0358  1.5716  2.8134
   30MOL   C102 5960   2.762   3.857   4.759  0.2595 -0.1044 -0.6009
   30MOL   C103 5961   2.823   3.950   4.875  0.0349  0.2325  0.9057
   30MOL   C104 5962   2.712   4.033   4.938  0.4863  0.4785  1.0184
   30MOL   O105 5963   2.635   4.097   4.869 -0.0950 -0.0741  0.3882
   30MOL   N106 5964   2.696   4.033   5.070  0.4613 -0.2201 -0.1435
   30MOL   H107 5965   2.662   3.824   4.787  0.1248  1.6608  1.1201
   30MOL   H108 5966   2.752   3.928   4.677 -1.5851 -1.9961 -2.0666
   30MOL   H109 5967   2.868   3.894   4.957  2.6756  0.5479 -0.2935
   30MOL   H110 5968   2.767   3.995   5.131  0.6884 -2.3363 -1.6952
   30MOL   H111 5969   2.606   4.071   5.099 -0.0741 -2.1885  0.8157
   30MOL   C112 5970   2.942   4.037   4.834 -0.5012 -0.0374  0.0296
   30MOL   C113 5971   3.082   4.012   4.882  0.2812 -0.5392 -0.2389
   30MOL   C114 5972   3.159   3.898   4.819 -0.2681  0.4033 -0.1489
   30MOL   O115 5973   3.137   3.784   4.863 -0.5003 -0.5001  0.3618
   30MOL   N116 5974   3.248   3.926   4.725  0.3264 -0.4828 -0.1880
   30MOL   H117 5975   2.914   4.142   4.848 -1.5624 -0.2852 -0.1757
   30MOL   H118 5976   2.948   4.024   4.726 -1.7353  1.0054 -0.1846
   30MOL   H119 5977   3.142   4.096   4.846 -0.0436 -0.7418 -1.2704
   30MOL   H120 5978   3.261   4.021   4.694 -0.7239 -0.4372 -0.5209
   30MOL   H121 5979   3.290   3.850   4.674 -0.1255  0.0720 -1.4112
   30MOL   C122 5980   3.094   4.018   5.037 -0.9882 -0.1506  0.2236
   30MOL   C123 5981   3.220   4.094   5.094  0.4226  0.4476 -0.3362
   30MOL   C124 5982   3.343   4.014   5.072  0.0447  1.0394 -0.8326
   30MOL   O125 5983   3.381   3.927   5.151  0.1370  0.4046  0.3223
   30MOL   N126 5984   3.418   4.049   4.970  0.3789  0.2111  0.3383
   30MOL   H127 5985   3.094   3.915   5.073 -0.0597 -0.8536 -1.6688
   30MOL   H128 5986   3.004   4.068   5.070 -0.2368  0.5786  1.1820
   30MOL   H129 5987   3.230   4.185   5.034 -0.4932  0.2559 -0.7849
   30MOL   H130 5988   3.502   3.997   4.949 -0.8825 -1.6992 -0.1305
   30MOL   H131 5989   3.386   4.117   4.903 -1.9271 -2.5270 -1.4320
   30MOL   C132 5990   3.196   4.130   5.239  0.7092  0.7898  0.0654
   30MOL   C133 5991   3.139   4.269   5.279  0.2433 -0.9389 -0.1929
   30MOL   C134 5992   2.987   4.266   5.278 -0.3498  0.1371 -0.0329
   30MOL   O135 5993   2.923   4.314   5.182 -0.0343 -0.0075 -0.2570
   30MOL   N136 5994   2.927   4.246   5.393 -0.3341  0.0969  0.4581
   30MOL   H137 5995   3.290   4.110   5.290 -0.1884 -2.6084  0.5663
   30MOL   H138 5996   3.140   4.051   5.289  2.4699 -0.1543  0.5985
   30MOL   H139 5997   3.173   4.281   5.382 -0.0180 -0.8452 -0.1169
   30MOL   H140 5998   2.975   4.204   5.472  3.1226  1.6719 -0.7123
   30MOL   H141 5999   2.831   4.276   5.400 -0.4540  0.0297 -0.7709
   30MOL   C142 6000   3.196   4.389   5.202 -0.3673  0.0575  0.0776
   30MOL   C143 6001   3.344   4.407   5.194 -0.5156 -0.5922  0.4822
   30MOL   C144 6002   3.413   4.358   5.320  0.1045 -0.6105 -0.4627
   30MOL   O145 6003   3.394   4.410   5.431  0.0037  0.1735 -0.2133
   30MOL   N146 6004   3.498   4.262   5.304  0.5566  0.3276  0.1186
   30MOL   H147 6005   3.155   4.485   5.233  1.6828  1.0449 -0.1470
   30MOL   H148 6006   3.171   4.394   5.096  0.0717 -1.5646 -0.1164
   30MOL   H149 6007   3.385   4.351   5.110 -2.1233 -1.4692  0.2527
   30MOL   H150 6008   3.545   4.238   5.390 -0.6413  0.4583  0.8242
   30MOL   H151 6009   3.520   4.230   5.210  1.8907  1.2169  0.1133
   30MOL   C152 6010   3.385   4.558   5.153  0.1708 -0.0574  0.1228
   30MOL   C153 6011   3.530   4.595   5.122 -0.2741 -0.1202 -0.1488
   30MOL   C154 6012   3.571   4.531   4.985  0.3529 -0.1722  0.6911
   30MOL   O155 6013   3.556   4.415   4.976 -0.5632 -0.2677  0.4048
   30MOL   N156 6014   3.639   4.605   4.894 -0.0306 -0.5990 -0.5294
   30MOL   H157 6015   3.345   4.621   5.232 -0.0960  1.0760 -0.8955
   30MOL   H158 6016   3.320   4.585   5.069 -1.5192  0.9257  1.7139
   30MOL   H159 6017   3.517   4.701   5.099 -0.2505 -0.0421  0.1948
   30MOL   H160 6018   3.686   4.564   4.815  1.6670 -2.3980  1.3688
   30MOL   H161 6019   3.643   4.705   4.910 -1.0023 -0.4311 -1.2616
   30MOL   C162 6020   3.631   4.578   5.236 -0.8824  0.9017 -0.1225
   30MOL   C163 6021   3.602   4.635   5.377  0.0681  0.0085 -0.2651
   30MOL   C164 6022   3.619   4.789   5.373 -0.0395  0.4445 -0.0125
   30MOL   O165 6023   3.729   4.839   5.343  0.7807  0.4160 -0.1203
   30MOL   N166 6024   3.508   4.854   5.394  0.3699 -0.2282  0.2898
   30MOL   H167 6025   3.726   4.606   5.190 -1.0341 -1.8444 -2.1986
   30MOL   H168 6026   3.640   4.470   5.247  2.4722  1.1154 -0.1436
   30MOL   H169 6027   3.496   4.617   5.392  0.4408 -0.7905  1.6563
   30MOL   H170 6028   3.430   4.793   5.416  1.5768 -1.2383  1.8956
   30MOL   H171 6029   3.494   4.950   5.369 -3.5869 -0.8313 -0.1102
   30MOL   C172 6030   3.679   4.558   5.490  0.3853  0.2950 -0.4069
   30MOL   C173 6031   3.821   4.589   5.541 -0.8228  0.2006  0.3006
   30MOL   C174 6032   3.923   4.562   5.438 -0.1766 -0.0333  0.8923
   30MOL   O175 6033   3.968   4.451   5.421  0.3643  0.1912  0.1162
   30MOL   N176 6034   3.971   4.665   5.362  0.3563 -0.2863 -0.1455
   30MOL   H177 6035   3.662   4.451   5.478  1.9195 -0.1320  1.0421
   30MOL   H178 6036   3.621   4.574   5.581 -0.1515  0.0916 -0.7121
   30MOL   H179 6037   3.821   4.695   5.567  0.2741  0.1433  0.5863
   30MOL   H180 6038   4.045   4.642   5.297 -1.8839 -1.5798 -2.3198
   30MOL   H181 6039   3.927   4.756   5.368 -0.7396 -0.5975 -2.5939
   30MOL   C182 6040   3.851   4.508   5.671 -0.4988 -0.2690  0.1051
   30MOL   C183 6041   3.961   4.573   5.760 -0.9206 -0.1854 -0.1568
   30MOL   C184 6042   4.100   4.514   5.741 -0.0405  0.1525 -0.1716
   30MOL   O185 6043   4.182   4.572   5.672 -0.5977 -0.6726  0.3367
   30MOL   N186 6044   4.138   4.405   5.815  0.5886  0.3672  0.3874
   30MOL   H187 6045   3.877   4.402   5.666  2.7813  0.4257  1.2874
   30MOL   H188 6046   3.756   4.498   5.723 -1.7836 -0.9636 -2.2578
   30MOL   H189 6047   3.968   4.678   5.731  0.1306  0.1094  1.1250
   30MOL   H190 6048   4.063   4.357   5.863 -0.2797  1.1489 -0.1600
   30MOL   H191 6049   4.234   4.374   5.815  0.0730 -1.3722  2.5258
   30MOL   C192 6050   3.917   4.576   5.912 -0.4251 -0.1679 -0.3800
   30MOL   C193 6051   4.014   4.650   6.003 -0.6586  0.0553 -0.5607
   30MOL   C194 6052   4.034   4.795   5.965 -0.6490  0.3130 -0.3638
   30MOL   O195 6053   4.132   4.838   5.900 -0.4614  0.0223 -0.0787
   30MOL   N196 6054   3.945   4.885   5.999  0.6149 -0.1826  0.0865
   30MOL   H197 6055   3.902   4.475   5.952 -0.0416 -0.3009 -0.5791
   30MOL   H198 6056   3.822   4.628   5.928 -0.0780  0.7565 -1.2906
   30MOL   H199 6057   3.974   4.643   6.104  0.2166 -1.7418 -0.3210
   30MOL   H200 6058   3.947   4.976   5.954  0.6513 -0.1506  0.1542
   30MOL   H201 6059   3.863   4.860   6.053  0.7018 -3.0893 -1.0235
   30MOL   H202 6060   4.115   4.609   5.996 -0.2799  1.2727 -2.5308
   31MOL     C1 6061   7.624   1.715   4.425 -0.5507 -0.1340 -0.0716
   31MOL     C2 6062   0.076   1.825   4.412  0.2677 -0.8399  0.7672
   31MOL     C3 6063   0.080   1.910   4.280  0.2654  0.0557 -0.4154
   31MOL     O4 6064   0.072   2.029   4.274 -0.1408 -0.3976  0.5605
   31MOL     N5 6065   0.095   1.833   4.178 -0.6453 -0.1704 -0.4232
   31MOL     H6 6066   7.580   1.696   4.522 -2.3401 -0.7471 -0.9764
   31MOL     H7 6067   7.536   1.725   4.361 -0.2374  2.5539 -0.1466
   31MOL     H8 6068   0.039   1.893   4.489  2.9350  1.5605  0.0302
   31MOL     H9 6069   0.069   1.877   4.091 -0.6951 -0.4630 -0.5553
   31MOL    H10 6070   0.104   1.734   4.194  0.6088  0.2755  1.8682
   31MOL    H11 6071   0.024   1.624   4.407  0.7872  0.8645 -0.9772
   31MOL    C12 6072   0.219   1.788   4.464  0.3222 -0.8210 -0.6402
   31MOL    C13 6073   0.245   1.828   4.607 -0.6962 -0.3958  0.0124
   31MOL    C14 6074   0.256   1.980   4.619  1.0088  0.6505 -0.4736
   31MOL    O15 6075   0.339   2.048   4.565 -0.3232 -0.3756 -0.0753
   31MOL    N16 6076   0.164   2.039   4.695  0.0787 -0.0502 -0.1766
   31MOL    H17 6077   0.297   1.831   4.401 -0.6414 -0.8919 -1.9101
   31MOL    H18 6078   0.233   1.680   4.451  1.1558 -0.8572  0.5010
   31MOL    H19 6079   0.156   1.801   4.664  0.3760  0.6347  2.2565
   31MOL    H20 6080   0.176   2.136   4.722 -3.2748  0.4107 -0.1252
   31MOL    H21 6081   0.091   1.991   4.746  0.3732  1.2008  1.4657
   31MOL    C22 6082   0.356   1.739   4.677 -0.3657 -0.3512  0.4701
   31MOL    C23 6083   0.360   1.781   4.832  0.1964  0.1307 -0.0181
   31MOL    C24 6084   0.482   1.705   4.881  0.9616  0.0031 -0.7653
   31MOL    O25 6085   0.476   1.580   4.914 -0.4068 -0.0870 -0.1868
   31MOL    N26 6086   0.596   1.772   4.887  0.7268  0.1027 -0.4707
   31MOL    H27 6087   0.453   1.745   4.627 -0.8556  0.7801 -0.3490
   31MOL    H28 6088   0.328   1.634   4.668 -1.3929 -0.2591  2.2946
   31MOL    H29 6089   0.382   1.887   4.844  1.9330 -0.3876  1.4870
   31MOL    H30 6090   0.595   1.860   4.837 -0.6300  0.9279  0.9644
   31MOL    H31 6091   0.682   1.721   4.900  0.9460  0.9410  1.5251
   31MOL    C32 6092   0.239   1.757   4.923 -0.6266  0.1902  0.0908
   31MOL    C33 6093   0.212   1.865   5.022  0.0021  0.0734  0.8366
   31MOL    C34 6094   0.334   1.871   5.123 -0.5946 -0.0065 -0.4149
   31MOL    O35 6095   0.392   1.977   5.143 -0.0911  0.4616  0.5727
   31MOL    N36 6096   0.379   1.764   5.183  0.3047 -0.0604  0.5557
   31MOL    H37 6097   0.255   1.657   4.963  1.2940 -0.0030 -1.0715
   31MOL    H38 6098   0.149   1.728   4.867 -1.6161 -0.9729  2.2338
   31MOL    H39 6099   0.207   1.959   4.967  1.1274  0.0662  0.7096
   31MOL    H40 6100   0.474   1.764   5.216  0.7625  0.8235 -0.7189
   31MOL    H41 6101   0.316   1.685   5.178 -0.1345  0.1661  2.2746
   31MOL    C42 6102   0.081   1.850   5.109  0.1676 -0.6904 -0.5667
   31MOL    C43 6103   7.598   1.914   5.050 -0.3988  0.6387 -0.8956
   31MOL    C44 6104   7.552   1.839   4.916  0.3828  0.2378 -0.0761
   31MOL    O45 6105   7.584   1.874   4.806 -0.1761 -0.0613 -0.1875
   31MOL    N46 6106   7.459   1.737   4.926 -0.5696  0.0993  0.0700
   31MOL    H47 6107   0.095   1.898   5.206 -0.3068  0.2250 -0.9403
   31MOL    H48 6108   0.061   1.744   5.126 -1.2990 -0.5217 -1.0904
   31MOL    H49 6109   7.524   1.895   5.128  1.1573 -0.5962  0.3103
   31MOL    H50 6110   7.426   1.692   4.843 -0.1107 -0.8318  0.3868
   31MOL    H51 6111   7.439   1.707   5.021 -0.3749 -0.7295 -0.1548
   31MOL    C52 6112   7.593   2.069   5.030 -0.7121  0.4697 -0.5150
   31MOL    C53 6113   7.629   2.178   5.134 -0.7344 -1.1809 -0.6252
   31MOL    C54 6114   7.558   2.165   5.266  0.2236  0.1202  0.3405
   31MOL    O55 6115   7.434   2.166   5.272 -0.6422  0.0722 -0.3766
   31MOL    N56 6116   7.630   2.140   5.376  0.1812 -0.3857  0.4595
   31MOL    H57 6117   7.490   2.092   5.005 -0.0011  2.3452 -1.8077
   31MOL    H58 6118   7.648   2.091   4.938 -1.4394  2.3873 -0.5094
   31MOL    H59 6119   0.079   2.175   5.151 -0.6352  2.4380 -0.3368
   31MOL    H60 6120   0.075   2.137   5.375  0.3686  3.2854  1.8927
   31MOL    H61 6121   7.577   2.147   5.461 -0.2478 -1.8319  0.3369
   31MOL    C62 6122   7.634   2.321   5.070 -0.3304 -0.7235 -0.3966
   31MOL    C63 6123   0.111   2.393   5.044 -0.0355 -0.3657  0.1204
   31MOL    C64 6124   0.165   2.368   4.902  1.4434  0.1005  0.5029
   31MOL    O65 6125   0.166   2.256   4.854  0.4013 -0.3588  0.2797
   31MOL    N66 6126   0.195   2.476   4.830  0.0330  0.3387 -0.2492
   31MOL    H67 6127   7.568   2.383   5.131 -0.9484 -0.3951 -1.3889
   31MOL    H68 6128   7.582   2.325   4.974 -1.8251 -0.0655  0.4290
   31MOL    H69 6129   0.089   2.499   5.055  1.0564 -0.1494  0.2987
   31MOL    H70 6130   0.201   2.467   4.729  1.1825 -0.9279 -0.0729
   31MOL    H71 6131   0.210   2.567   4.870 -1.2555  0.1445  0.7375
   31MOL    C72 6132   0.223   2.365   5.149  0.0602 -0.5670 -0.3407
   31MOL    C73 6133   0.327   2.483   5.185  0.5664 -0.3331 -0.3398
   31MOL    C74 6134   0.436   2.505   5.071  0.0658 -0.1299  1.0752
   31MOL    O75 6135   0.469   2.421   4.991  0.5706 -0.4856 -0.7373
   31MOL    N76 6136   0.498   2.624   5.066 -0.1760  0.5521 -0.0081
   31MOL    H77 6137   0.280   2.274   5.133  1.7684  0.5644 -0.9130
   31MOL    H78 6138   0.174   2.345   5.244  0.2102  1.0374  0.1025
   31MOL    H79 6139   0.266   2.571   5.206  1.2799  0.0419  0.1795
   31MOL    H80 6140   0.480   2.691   5.139 -2.2302 -0.1970  0.2266
   31MOL    H81 6141   0.565   2.638   4.992  1.6625  0.6346  1.6298
   31MOL    C82 6142   0.393   2.450   5.325 -0.5375  0.3439  0.7136
   31MOL    C83 6143   0.489   2.332   5.323 -0.3611  0.1085 -0.1974
   31MOL    C84 6144   0.457   2.224   5.431  0.4809  0.3858  0.5561
   31MOL    O85 6145   0.445   2.248   5.554 -0.1530 -0.0972  0.4566
   31MOL    N86 6146   0.410   2.111   5.383  0.0444  0.3041 -0.2631
   31MOL    H87 6147   0.311   2.430   5.396  0.0596  1.6675  1.7898
   31MOL    H88 6148   0.433   2.539   5.373  0.6950  0.3156 -0.2636
   31MOL    H89 6149   0.482   2.293   5.221 -1.0713  0.1432 -0.1627
   31MOL    H90 6150   0.420   2.104   5.283 -0.4665 -0.3341 -0.2734
   31MOL    H91 6151   0.341   2.059   5.435  0.4873 -0.3474 -0.3342
   31MOL    C92 6152   0.628   2.390   5.355 -0.5229  0.3113 -0.8830
   31MOL    C93 6153   0.752   2.294   5.323  0.1555  0.6599 -0.2067
   31MOL    C94 6154   0.866   2.327   5.416  0.4391 -0.1784 -0.0891
   31MOL    O95 6155   0.884   2.445   5.457  0.5508 -0.0432  0.4600
   31MOL    N96 6156   0.948   2.225   5.451  0.6996  0.1288  0.5281
   31MOL    H97 6157   0.618   2.433   5.455 -0.2880 -0.6691 -0.4236
   31MOL    H98 6158   0.649   2.485   5.306  0.5006  0.8711  0.5957
   31MOL    H99 6159   0.726   2.191   5.347  0.7784 -0.2502 -3.1784
   31MOL   H100 6160   1.027   2.249   5.508  1.9231  0.1464 -1.1348
   31MOL   H101 6161   0.937   2.132   5.413 -0.6334  0.9103 -1.0678
   31MOL   C102 6162   0.783   2.294   5.173 -0.6317 -0.9212 -0.5980
   31MOL   C103 6163   0.750   2.167   5.092  0.2063  0.0521 -0.2055
   31MOL   C104 6164   0.792   2.035   5.155  0.6697 -0.0351  0.3112
   31MOL   O105 6165   0.907   2.020   5.203  0.2030  0.0617  0.4215
   31MOL   N106 6166   0.700   1.934   5.149 -0.9161  0.0435 -0.1950
   31MOL   H107 6167   0.892   2.304   5.170 -0.6121 -1.3543 -1.4904
   31MOL   H108 6168   0.739   2.379   5.120  0.9638  0.4647  0.2406
   31MOL   H109 6169   0.641   2.173   5.094  0.2159  0.3436 -0.6428
   31MOL   H110 6170   0.606   1.944   5.113 -1.2907 -0.8106  0.5520
   31MOL   H111 6171   0.731   1.843   5.178  0.5878 -0.1483 -2.2182
   31MOL   C112 6172   0.804   2.184   4.952 -0.3813 -0.3349 -0.3121
   31MOL   C113 6173   0.697   2.242   4.853  0.3486 -0.6096 -0.1356
   31MOL   C114 6174   0.578   2.140   4.837  0.2507 -0.2561  0.0946
   31MOL   O115 6175   0.591   2.031   4.779 -0.0645 -0.5699  0.3785
   31MOL   N116 6176   0.466   2.186   4.886 -0.2770  0.8908 -0.1549
   31MOL   H117 6177   0.834   2.089   4.907 -2.8228 -0.6295 -1.3509
   31MOL   H118 6178   0.887   2.255   4.952 -0.2937 -0.4280 -1.0834
   31MOL   H119 6179   0.656   2.334   4.896  2.5732  0.5795 -0.4995
   31MOL   H120 6180   0.383   2.132   4.867  0.4991 -0.4014 -0.0031
   31MOL   H121 6181   0.459   2.266   4.946 -2.8636  0.2715  0.4146
   31MOL   C122 6182   0.767   2.292   4.721 -0.1673  0.2962 -0.7386
   31MOL   C123 6183   0.692   2.385   4.620  0.5516  0.0748 -0.3804
   31MOL   C124 6184   0.583   2.306   4.544  0.4178 -0.3194 -0.4008
   31MOL   O125 6185   0.601   2.246   4.440 -0.4182  0.3438 -0.2381
   31MOL   N126 6186   0.463   2.305   4.596  0.3831  0.3921 -0.0528
   31MOL   H127 6187   0.813   2.205   4.674 -1.6824  0.2080 -2.1005
   31MOL   H128 6188   0.857   2.344   4.755 -0.0399 -1.9483  2.7030
   31MOL   H129 6189   0.642   2.464   4.676  1.8492 -0.2485  1.3034
   31MOL   H130 6190   0.411   2.220   4.582 -0.3400  0.6044  1.2811
   31MOL   H131 6191   0.452   2.360   4.680 -0.3428 -0.0233  0.1315
   31MOL   C132 6192   0.792   2.468   4.530 -0.3178  0.8428  0.2062
   31MOL   C133 6193   0.734   2.576   4.435 -0.1027 -0.1611  0.3417
   31MOL   C134 6194   0.842   2.634   4.340 -0.0132  0.6041 -0.0727
   31MOL   O135 6195   0.821   2.740   4.283  0.6681  0.2569  0.4013
   31MOL   N136 6196   0.951   2.569   4.317  0.2828 -0.1506  0.1873
   31MOL   H137 6197   0.848   2.390   4.477  0.6414  1.0512  0.9118
   31MOL   H138 6198   0.867   2.520   4.590  0.7152  1.1890 -1.3449
   31MOL   H139 6199   0.664   2.532   4.364  0.6145 -1.9706  0.7249
   31MOL   H140 6200   1.011   2.603   4.244  0.4478 -1.2051 -0.1755
   31MOL   H141 6201   0.974   2.481   4.362  2.3457 -1.4702 -3.3047
   31MOL   C142 6202   0.653   2.691   4.502 -0.0758  1.2663  0.2884
   31MOL   C143 6203   0.714   2.788   4.608 -0.1715  0.6199  0.8595
   31MOL   C144 6204   0.706   2.722   4.744  0.0368 -0.1981 -0.5976
   31MOL   O145 6205   0.609   2.700   4.806  0.4630 -0.7892  0.2508
   31MOL   N146 6206   0.822   2.692   4.807 -0.0319 -0.0906  0.7275
   31MOL   H147 6207   0.559   2.654   4.543 -0.6700  0.5241 -1.6943
   31MOL   H148 6208   0.619   2.760   4.425 -2.0963 -1.4099 -1.2833
   31MOL   H149 6209   0.813   2.815   4.572  0.3174 -2.4469 -0.2738
   31MOL   H150 6210   0.823   2.651   4.900  1.7615 -0.8170  0.4048
   31MOL   H151 6211   0.909   2.691   4.756  0.0446 -1.2524  0.8479
   31MOL   C152 6212   0.637   2.927   4.616 -0.6248  0.1064  0.7503
   31MOL   C153 6213   0.649   3.010   4.483  0.0287  0.4299 -0.4596
   31MOL   C154 6214   0.791   3.069   4.458  0.4375  0.0686  0.0693
   31MOL   O155 6215   0.832   3.175   4.500  0.2013 -0.3759 -0.3483
   31MOL   N156 6216   0.865   2.998   4.377  0.0008  0.2396  0.3500
   31MOL   H157 6217   0.679   2.979   4.703  0.4512  2.8048 -1.3183
   31MOL   H158 6218   0.533   2.903   4.634 -1.2018  1.5932 -0.5360
   31MOL   H159 6219   0.625   2.947   4.397  2.7198 -0.5593 -0.5444
   31MOL   H160 6220   0.838   2.905   4.348 -1.1478 -0.1836  2.6184
   31MOL   H161 6221   0.960   3.025   4.357  1.0730 -0.7106  3.8389
   31MOL   C162 6222   0.542   3.125   4.492 -0.5312  0.7012 -0.4912
   31MOL   C163 6223   0.463   3.141   4.363  0.8452  0.5807  0.1612
   31MOL   C164 6224   0.545   3.184   4.238 -0.3003 -0.1170  0.0959
   31MOL   O165 6225   0.594   3.299   4.238 -0.4878 -0.3652 -0.2170
   31MOL   N166 6226   0.558   3.104   4.136 -0.6670 -0.2720 -0.3272
   31MOL   H167 6227   0.600   3.213   4.522  1.7202 -1.2830  1.2418
   31MOL   H168 6228   0.470   3.110   4.573 -0.4093  2.4039 -0.0401
   31MOL   H169 6229   0.417   3.045   4.342 -1.8461  1.8658  0.0331
   31MOL   H170 6230   0.619   3.135   4.062 -0.4009 -3.0957 -1.3754
   31MOL   H171 6231   0.513   3.014   4.128  0.5502 -0.9048 -0.2119
   31MOL   C172 6232   0.342   3.234   4.385 -0.3128 -0.3285 -0.2493
   31MOL   C173 6233   0.212   3.212   4.306 -0.1703 -0.2981 -0.4284
   31MOL   C174 6234   0.162   3.346   4.246  0.0484  0.2823  0.3091
   31MOL   O175 6235   0.061   3.407   4.280  0.1123  0.0866 -0.7639
   31MOL   N176 6236   0.239   3.401   4.156 -0.3741 -0.4365  0.4804
   31MOL   H177 6237   0.369   3.339   4.375 -0.5698 -0.3406 -1.1070
   31MOL   H178 6238   0.306   3.219   4.487 -0.9304  2.1568 -0.0868
   31MOL   H179 6239   0.243   3.147   4.225 -1.4713  0.2409 -1.3838
   31MOL   H180 6240   0.210   3.486   4.110  0.4422 -1.4609 -2.0667
   31MOL   H181 6241   0.332   3.366   4.135 -0.1226 -0.3457  1.4138
   31MOL   C182 6242   0.094   3.144   4.375 -0.0996  0.4469 -0.3659
   31MOL   C183 6243   0.130   2.998   4.417 -0.2655  0.6575  0.1520
   31MOL   C184 6244   0.136   2.903   4.295  0.4594 -0.2257 -0.5949
   31MOL   O185 6245   0.181   2.787   4.297  0.1293  0.2204 -0.0220
   31MOL   N186 6246   0.073   2.944   4.187 -0.1269 -0.2624  0.2111
   31MOL   H187 6247   0.004   3.156   4.315 -1.7100 -4.0043  0.9524
   31MOL   H188 6248   0.088   3.197   4.470  3.0091 -0.2905  0.2850
   31MOL   H189 6249   0.230   3.013   4.458 -0.9555  2.6468  1.1514
   31MOL   H190 6250   0.075   2.888   4.103 -1.2531 -0.9947  0.6664
   31MOL   H191 6251   0.019   3.029   4.189  3.0239  1.8432  0.8941
   31MOL   C192 6252   0.046   2.951   4.541 -0.8390  0.3880  1.1293
   31MOL   C193 6253   0.097   2.827   4.617 -0.0788  0.0408  0.2510
   31MOL   C194 6254   0.246   2.835   4.669  0.3081 -0.7702 -0.2561
   31MOL   O195 6255   0.296   2.937   4.713  0.1711  0.4495  0.0567
   31MOL   N196 6256   0.318   2.727   4.651 -0.3661 -0.0841 -0.5013
   31MOL   H197 6257   7.599   2.932   4.514 -0.2564  0.5507 -1.3107
   31MOL   H198 6258   0.039   3.029   4.618 -0.4744  0.6567  0.8919
   31MOL   H199 6259   0.040   2.793   4.703 -1.8715  2.1975 -0.0410
   31MOL   H200 6260   0.414   2.736   4.681  0.1631 -2.0696 -1.4979
   31MOL   H201 6261   0.289   2.655   4.586  0.2363 -1.2057  0.4535
   31MOL   H202 6262   0.093   2.735   4.559 -0.5043 -0.1020  0.5037
   32MOL     C1 6263   5.801   5.754   7.574 -0.1785 -0.3733 -0.2893
   32MOL     C2 6264   5.809   5.818   7.434  0.7120  0.3576  0.1929
   32MOL     C3 6265   5.713   5.756   7.328  0.1550 -0.4715  0.1744
   32MOL     O4 6266   5.664   5.641   7.334  0.1046  0.2051  0.5467
   32MOL     N5 6267   5.668   5.827   7.222 -0.1241  0.5452  0.4689
   32MOL     H6 6268   5.836   5.829   7.645  1.6566 -0.0246 -1.5367
   32MOL     H7 6269   5.696   5.729   7.593 -0.4737  0.3432 -0.9363
   32MOL     H8 6270   5.773   5.921   7.438 -0.8746 -0.2049  0.7475
   32MOL     H9 6271   5.684   5.926   7.207 -2.2269  0.4017 -3.4568
   32MOL    H10 6272   5.596   5.784   7.165 -0.7431 -0.6573  2.1203
   32MOL    H11 6273   5.849   5.657   7.589 -1.5026 -1.2695 -1.6474
   32MOL    C12 6274   5.956   5.800   7.387 -0.0060 -0.1407  0.0083
   32MOL    C13 6275   5.998   5.838   7.243 -1.0061 -0.3734 -0.1115
   32MOL    C14 6276   6.140   5.773   7.217  0.1594 -0.1114 -0.5021
   32MOL    O15 6277   6.244   5.825   7.248  0.1564  0.1796  0.2712
   32MOL    N16 6278   6.133   5.660   7.155  0.2890 -0.3951  0.0624
   32MOL    H17 6279   5.967   5.692   7.396 -0.2369 -0.1550  0.0989
   32MOL    H18 6280   6.020   5.846   7.462 -0.0288 -0.0062 -0.0552
   32MOL    H19 6281   5.937   5.792   7.165  1.5006 -1.5199 -1.4746
   32MOL    H20 6282   6.045   5.612   7.151 -0.0373  0.1946  0.0551
   32MOL    H21 6283   6.211   5.596   7.146  1.7659  1.3661 -0.0509
   32MOL    C22 6284   6.019   5.989   7.222 -0.2946  0.4637 -0.1362
   32MOL    C23 6285   6.018   6.033   7.072 -0.0429  0.4859  0.1931
   32MOL    C24 6286   6.156   6.090   7.028  0.3894 -1.2074 -0.9271
   32MOL    O25 6287   6.205   6.190   7.085  0.1275  0.7399 -0.4366
   32MOL    N26 6288   6.224   6.039   6.930 -0.1690  0.8916  0.2325
   32MOL    H27 6289   6.113   6.020   7.269  0.3453 -0.8026 -0.5598
   32MOL    H28 6290   5.949   6.046   7.283  0.3270  1.4460 -0.3339
   32MOL    H29 6291   6.000   5.944   7.011  0.2424 -1.4901  2.8980
   32MOL    H30 6292   6.306   6.095   6.909  0.0329  0.0861 -1.1583
   32MOL    H31 6293   6.194   5.960   6.875  0.3556  1.4041 -0.8058
   32MOL    C32 6294   5.904   6.123   7.031  0.0173 -0.1474 -0.4533
   32MOL    C33 6295   5.867   6.243   7.120 -0.2765 -1.1687  0.6575
   32MOL    C34 6296   5.736   6.222   7.192  0.0702  0.2888  0.6016
   32MOL    O35 6297   5.646   6.162   7.134 -0.5717  0.0025  0.1257
   32MOL    N36 6298   5.729   6.260   7.316 -0.0773 -0.0391 -0.5510
   32MOL    H37 6299   5.817   6.062   7.010 -0.4482  0.4947 -0.3892
   32MOL    H38 6300   5.942   6.156   6.935  0.2764  0.5383 -0.1176
   32MOL    H39 6301   5.949   6.255   7.191  0.3814 -0.6542 -0.1807
   32MOL    H40 6302   5.803   6.314   7.358 -0.1804 -0.7770  0.6001
   32MOL    H41 6303   5.642   6.259   7.368  1.4589 -0.9005  2.1062
   32MOL    C42 6304   5.856   6.383   7.045 -0.2934  0.2422  0.0378
   32MOL    C43 6305   5.989   6.449   7.025 -0.4021 -0.0028  0.9975
   32MOL    C44 6306   6.052   6.508   7.153  0.5056 -0.8303 -0.4937
   32MOL    O45 6307   5.985   6.598   7.218  0.3457 -0.2111  0.1714
   32MOL    N46 6308   6.173   6.465   7.190  0.2530 -0.4986  0.0627
   32MOL    H47 6309   5.792   6.445   7.107 -1.2497 -1.6400  0.9948
   32MOL    H48 6310   5.798   6.372   6.953  2.0852 -0.0944 -1.4667
   32MOL    H49 6311   6.046   6.365   6.984 -1.8058 -0.4871 -0.0241
   32MOL    H50 6312   6.220   6.510   7.267 -0.2358 -0.4486  0.3313
   32MOL    H51 6313   6.219   6.401   7.127 -0.8137 -0.1142 -1.1275
   32MOL    C52 6314   5.976   6.555   6.915  0.5381 -0.0577  0.7060
   32MOL    C53 6315   6.101   6.635   6.884  0.0425 -0.9563 -0.1502
   32MOL    C54 6316   6.063   6.754   6.790  0.0828 -0.3710  0.1963
   32MOL    O55 6317   6.036   6.733   6.675  0.7629  0.7602 -0.6608
   32MOL    N56 6318   6.079   6.879   6.836 -0.6830  0.2935  0.1361
   32MOL    H57 6319   5.900   6.623   6.953  0.0781 -0.0717 -0.1785
   32MOL    H58 6320   5.926   6.514   6.827  0.9462 -0.4138  0.6391
   32MOL    H59 6321   6.133   6.682   6.977 -1.8498  2.0575 -0.9646
   32MOL    H60 6322   6.057   6.958   6.776 -1.6975 -1.1562 -1.4498
   32MOL    H61 6323   6.124   6.903   6.923 -1.0658 -1.4282  0.8160
   32MOL    C62 6324   6.207   6.542   6.819  0.3709  0.3499  0.2839
   32MOL    C63 6325   6.341   6.617   6.789  0.7004  0.4793  0.0170
   32MOL    C64 6326   6.388   6.575   6.651  0.2911  0.1437 -0.3637
   32MOL    O65 6327   6.431   6.458   6.637  0.3593 -0.1950  0.2976
   32MOL    N66 6328   6.382   6.659   6.544 -0.2031 -0.1415 -0.2200
   32MOL    H67 6329   6.165   6.506   6.725 -1.5019  0.9121  0.8775
   32MOL    H68 6330   6.229   6.456   6.883  0.0908  0.6992  0.8517
   32MOL    H69 6331   6.323   6.724   6.779  0.7829  0.5070  0.1714
   32MOL    H70 6332   6.383   6.758   6.565  1.5546 -0.1585 -0.1390
   32MOL    H71 6333   6.412   6.633   6.451  2.7704  3.7539 -0.5028
   32MOL    C72 6334   6.448   6.576   6.894 -0.4220  0.1012 -0.5149
   32MOL    C73 6335   6.426   6.640   7.035  0.7966  0.1388 -0.2002
   32MOL    C74 6336   6.417   6.792   7.028 -0.5123  0.4644  0.5104
   32MOL    O75 6337   6.479   6.859   6.945 -0.2464  0.0110 -0.0187
   32MOL    N76 6338   6.347   6.857   7.119  0.0469  0.5324 -0.4517
   32MOL    H77 6339   6.543   6.599   6.846  0.6801 -0.2735  1.4411
   32MOL    H78 6340   6.459   6.468   6.904 -2.2578 -0.0817 -0.2736
   32MOL    H79 6341   6.329   6.608   7.072  0.4432  0.5013 -0.7980
   32MOL    H80 6342   6.338   6.957   7.121 -0.0775  0.5323 -1.0094
   32MOL    H81 6343   6.286   6.808   7.183 -0.8492  3.0631  0.6894
   32MOL    C82 6344   6.535   6.599   7.140  0.1694 -0.0030  0.5738
   32MOL    C83 6345   6.524   6.449   7.200  0.2270 -0.5324  0.5560
   32MOL    C84 6346   6.544   6.454   7.350  0.3030  0.7464 -0.5652
   32MOL    O85 6347   6.452   6.408   7.424 -0.6646 -0.2062  0.4460
   32MOL    N86 6348   6.663   6.500   7.400 -0.0189 -0.1320 -0.0049
   32MOL    H87 6349   6.539   6.679   7.213 -0.8506 -0.9711  1.7229
   32MOL    H88 6350   6.623   6.622   7.081  0.4446 -0.2273  0.8976
   32MOL    H89 6351   6.423   6.409   7.196 -1.0640  2.7546 -1.9848
   32MOL    H90 6352   6.726   6.533   7.328 -1.2108  0.1781 -0.9296
   32MOL    H91 6353   6.691   6.484   7.495 -0.6525  0.1783  0.2326
   32MOL    C92 6354   6.618   6.356   7.120  0.5918  0.2546  0.2417
   32MOL    C93 6355   6.571   6.213   7.100  0.7043  0.2132  0.4529
   32MOL    C94 6356   6.549   6.133   7.231 -0.5452 -0.0363  0.1663
   32MOL    O95 6357   6.643   6.076   7.286 -0.1001 -0.2892 -0.2668
   32MOL    N96 6358   6.425   6.127   7.288  0.5066 -0.2182 -0.4048
   32MOL    H97 6359   6.716   6.349   7.166  0.0099  0.7153  1.5675
   32MOL    H98 6360   6.642   6.401   7.023 -0.6530  0.3717 -0.0323
   32MOL    H99 6361   6.479   6.194   7.046  0.5470 -3.3516  1.8707
   32MOL   H100 6362   6.413   6.083   7.378  1.0585 -1.2906 -0.8397
   32MOL   H101 6363   6.342   6.167   7.245  0.0466 -0.6847  0.0343
   32MOL   C102 6364   6.688   6.144   7.020  0.6872 -0.3487  0.2297
   32MOL   C103 6365   6.695   6.177   6.866 -0.9633  0.0845  0.2269
   32MOL   C104 6366   6.572   6.111   6.798 -0.0647  0.2126 -0.7921
   32MOL   O105 6367   6.540   5.991   6.823  0.3667 -0.4189 -0.3917
   32MOL   N106 6368   6.490   6.193   6.728  0.0201  0.2031  0.1936
   32MOL   H107 6369   6.662   6.039   7.026 -1.8481  0.2889  0.9572
   32MOL   H108 6370   6.787   6.157   7.063  0.2224 -0.2171  1.2831
   32MOL   H109 6371   6.690   6.286   6.855 -3.1110  0.0316  0.5094
   32MOL   H110 6372   6.510   6.289   6.704  1.0713  0.3885  1.7224
   32MOL   H111 6373   6.406   6.147   6.697  0.5787  0.5604 -1.9749
   32MOL   C112 6374   6.826   6.113   6.810 -0.4066 -0.3095 -0.7041
   32MOL   C113 6375   6.860   6.139   6.663 -0.2839  0.4451  0.1425
   32MOL   C114 6376   6.966   6.045   6.617  0.7990  0.7409 -0.1354
   32MOL   O115 6377   7.073   6.042   6.680  0.2339  0.2016 -0.2938
   32MOL   N116 6378   6.945   5.961   6.521 -0.2847 -0.1387 -0.1352
   32MOL   H117 6379   6.817   6.009   6.840  0.4671 -0.9174 -2.4838
   32MOL   H118 6380   6.906   6.149   6.875 -0.1167 -2.0119 -0.1011
   32MOL   H119 6381   6.774   6.123   6.599  0.1906  0.3453 -0.4796
   32MOL   H120 6382   7.029   5.913   6.491 -0.3919  0.8454 -2.1192
   32MOL   H121 6383   6.872   5.958   6.451 -2.5011  0.8375  2.0850
   32MOL   C122 6384   6.908   6.283   6.645  0.6683  0.4103  0.5939
   32MOL   C123 6385   6.870   6.352   6.508  0.1741  0.2181 -0.1257
   32MOL   C124 6386   6.718   6.363   6.486  0.1648 -0.2068  0.3038
   32MOL   O125 6387   6.643   6.280   6.434 -0.4017  0.5466 -0.3115
   32MOL   N126 6388   6.676   6.486   6.504  0.0209  0.0362 -0.5317
   32MOL   H127 6389   7.014   6.298   6.664  0.5405  1.3794  0.5448
   32MOL   H128 6390   6.852   6.342   6.717 -0.0307  1.2943 -0.6386
   32MOL   H129 6391   6.893   6.455   6.534  2.2720 -0.0543 -0.7641
   32MOL   H130 6392   6.745   6.558   6.520 -0.8877  0.8817 -0.4025
   32MOL   H131 6393   6.578   6.508   6.494  0.0194 -0.4996 -1.7159
   32MOL   C132 6394   6.941   6.293   6.382  0.1044  0.9304 -0.0330
   32MOL   C133 6395   6.999   6.399   6.285  0.2343 -0.5901 -0.1679
   32MOL   C134 6396   7.100   6.500   6.350  0.1726 -0.5026  0.2954
   32MOL   O135 6397   7.106   6.622   6.321  0.6795 -0.3962  0.7013
   32MOL   N136 6398   7.192   6.448   6.433 -0.5675  0.5431  0.3006
   32MOL   H137 6399   6.872   6.234   6.322  1.5864 -0.7064 -0.1681
   32MOL   H138 6400   7.021   6.222   6.403 -3.0445 -3.0748 -0.8768
   32MOL   H139 6401   7.063   6.335   6.224  1.5865 -0.8638  1.5015
   32MOL   H140 6402   7.264   6.508   6.472 -0.4311  0.3225  0.3901
   32MOL   H141 6403   7.198   6.349   6.447  1.8733  0.4794 -1.0064
   32MOL   C142 6404   6.885   6.466   6.198 -0.1510 -0.4556  0.3589
   32MOL   C143 6405   6.948   6.522   6.065 -0.4005 -0.6321 -0.7942
   32MOL   C144 6406   6.875   6.655   6.025  0.7658  0.4756  0.3913
   32MOL   O145 6407   6.754   6.661   6.012  0.4222  0.0333  0.6480
   32MOL   N146 6408   6.940   6.764   5.989  0.0844  0.0723  0.3648
   32MOL   H147 6409   6.847   6.551   6.255 -0.8727 -1.0357  0.7483
   32MOL   H148 6410   6.798   6.401   6.186  0.8737 -1.3679 -2.5821
   32MOL   H149 6411   7.054   6.541   6.081 -0.4628 -0.7561 -0.2450
   32MOL   H150 6412   7.040   6.763   5.979  0.1814  0.4875  1.2418
   32MOL   H151 6413   6.888   6.835   5.939 -1.6495 -0.8464  0.7913
   32MOL   C152 6414   6.937   6.421   5.946 -0.1796  0.2209  0.2545
   32MOL   C153 6415   7.017   6.296   5.954  0.0619  0.7382  0.4639
   32MOL   C154 6416   7.168   6.317   5.958  0.2389  0.4693  0.1075
   32MOL   O155 6417   7.213   6.370   5.859  0.2894  0.1454 -0.4169
   32MOL   N156 6418   7.243   6.294   6.064 -0.0399 -0.3106 -0.5136
   32MOL   H157 6419   6.961   6.470   5.852  1.3518  0.0738  0.5598
   32MOL   H158 6420   6.831   6.396   5.952 -0.4723  0.8747 -1.8591
   32MOL   H159 6421   6.973   6.238   6.034  1.3733 -1.6486 -0.5136
   32MOL   H160 6422   7.207   6.257   6.151  1.0543 -2.8050 -1.0790
   32MOL   H161 6423   7.341   6.317   6.060  0.3681 -2.1229 -1.2550
   32MOL   C162 6424   6.977   6.210   5.833  0.3661  0.4703 -0.1861
   32MOL   C163 6425   7.011   6.065   5.846 -1.0047 -0.0891  0.0961
   32MOL   C164 6426   7.091   6.006   5.728 -0.1950  0.3229  0.0622
   32MOL   O165 6427   7.166   5.905   5.752 -0.1901  0.5438 -0.7759
   32MOL   N166 6428   7.078   6.049   5.604  0.4862 -0.5550 -0.1240
   32MOL   H167 6429   7.016   6.261   5.745  2.7928  1.2673  1.2938
   32MOL   H168 6430   6.870   6.215   5.815  0.2062 -0.3196  0.5131
   32MOL   H169 6431   7.083   6.055   5.928 -0.8479  1.3936  0.1511
   32MOL   H170 6432   7.118   5.995   5.529  0.8823 -0.4762  0.0291
   32MOL   H171 6433   6.994   6.098   5.575 -0.1734 -1.0191  0.9513
   32MOL   C172 6434   6.898   5.965   5.896 -0.4716  0.1481  0.5004
   32MOL   C173 6435   6.786   5.920   5.797 -0.4376 -0.3785 -0.1969
   32MOL   C174 6436   6.674   6.019   5.781 -0.9202  0.5875  0.4259
   32MOL   O175 6437   6.607   6.064   5.871 -0.6713 -0.3569 -0.6112
   32MOL   N176 6438   6.648   6.052   5.655  0.3195  0.3555 -0.3165
   32MOL   H177 6439   6.845   6.010   5.979 -1.0404  2.3444 -1.0009
   32MOL   H178 6440   6.941   5.875   5.939 -1.3598 -1.3330 -1.5986
   32MOL   H179 6441   6.829   5.897   5.699  1.4222 -2.6249  1.0802
   32MOL   H180 6442   6.567   6.112   5.648  0.6249  0.8431  0.2708
   32MOL   H181 6443   6.700   6.021   5.574  0.6522  1.2076 -0.4336
   32MOL   C182 6444   6.744   5.781   5.839 -0.0591  0.7192  0.3294
   32MOL   C183 6445   6.844   5.663   5.844 -0.5271 -0.3735  0.3812
   32MOL   C184 6446   6.886   5.612   5.707  0.4963  0.6461 -0.0788
   32MOL   O185 6447   6.833   5.523   5.644 -0.1186 -0.2202 -0.1046
   32MOL   N186 6448   7.001   5.657   5.653  0.0872  0.2364 -0.5399
   32MOL   H187 6449   6.660   5.757   5.774  0.5389  0.3583 -0.3248
   32MOL   H188 6450   6.688   5.786   5.931  0.0446  0.6338  0.3976
   32MOL   H189 6451   6.939   5.678   5.895 -0.0401 -1.5598 -0.1449
   32MOL   H190 6452   7.055   5.727   5.703  0.0858  0.7630 -1.2654
   32MOL   H191 6453   7.033   5.635   5.560  1.9475 -1.5588  0.4968
   32MOL   C192 6454   6.783   5.553   5.933 -0.0142  0.5653 -0.8165
   32MOL   C193 6455   6.825   5.411   5.927 -0.2034  0.5679 -0.1957
   32MOL   C194 6456   6.975   5.386   5.944  0.2230  0.1482  0.3775
   32MOL   O195 6457   7.042   5.476   5.993 -0.0447 -0.4177 -0.3050
   32MOL   N196 6458   7.020   5.274   5.891  0.0396 -0.1406 -0.2181
   32MOL   H197 6459   6.675   5.558   5.925 -0.2003 -0.1918  0.9378
   32MOL   H198 6460   6.799   5.600   6.031  0.0402 -0.0870 -0.5062
   32MOL   H199 6461   6.777   5.366   6.014 -0.6614  0.2902 -0.5877
   32MOL   H200 6462   7.120   5.269   5.880 -0.0514 -0.1179 -1.0395
   32MOL   H201 6463   6.957   5.206   5.851  1.2987 -0.6964 -1.3113
   32MOL   H202 6464   6.802   5.366   5.831  0.2913 -0.5863  0.2271
   33MOL     C1 6465   3.068   7.198   0.751  0.4266 -0.6502  0.6785
   33MOL     C2 6466   3.192   7.128   0.693  0.2776 -0.3861 -0.3334
   33MOL     C3 6467   3.171   6.976   0.704  0.0637 -0.3018  0.3196
   33MOL     O4 6468   3.138   6.925   0.809  1.1265  0.7159 -0.2473
   33MOL     N5 6469   3.183   6.903   0.592  0.4909 -0.9569 -0.6674
   33MOL     H6 6470   2.980   7.153   0.706  1.9352 -1.2551 -1.7189
   33MOL     H7 6471   3.080   7.182   0.858 -1.8092 -1.8806  0.7710
   33MOL     H8 6472   3.205   7.156   0.589 -0.7657  0.7202 -0.1682
   33MOL     H9 6473   3.164   6.803   0.592 -0.1903 -0.8342  0.1343
   33MOL    H10 6474   3.223   6.952   0.513  0.2530  2.3206  1.1664
   33MOL    H11 6475   3.056   7.303   0.724 -2.2496 -0.7209  1.4118
   33MOL    C12 6476   3.317   7.165   0.775  0.0752 -0.2730 -0.1260
   33MOL    C13 6477   3.449   7.147   0.711 -0.2469  0.2513 -1.0216
   33MOL    C14 6478   3.564   7.135   0.812 -0.0599  0.0407 -0.8400
   33MOL    O15 6479   3.622   7.230   0.857  0.6172  0.0911  0.5167
   33MOL    N16 6480   3.600   7.016   0.843  0.1953  0.1966 -0.1777
   33MOL    H17 6481   3.316   7.098   0.861 -0.4790  0.9694  0.8562
   33MOL    H18 6482   3.316   7.267   0.814 -1.9545 -0.7761  1.2199
   33MOL    H19 6483   3.439   7.054   0.655 -0.1496 -0.5544  0.2585
   33MOL    H20 6484   3.550   6.938   0.802  0.3006  0.5963 -1.0871
   33MOL    H21 6485   3.692   7.002   0.884 -0.1995 -0.7649  0.3831
   33MOL    C22 6486   3.476   7.248   0.599 -0.0758  0.1737  0.2573
   33MOL    C23 6487   3.531   7.187   0.465 -0.4066 -0.6738  0.4499
   33MOL    C24 6488   3.429   7.118   0.377 -0.1850  0.2290 -0.2579
   33MOL    O25 6489   3.389   7.007   0.407  0.4503  0.7195 -0.1356
   33MOL    N26 6490   3.402   7.172   0.262  0.5303  0.0481 -0.4911
   33MOL    H27 6491   3.545   7.322   0.637 -1.2569  0.6034  1.6023
   33MOL    H28 6492   3.383   7.303   0.581 -0.7654 -0.8487  0.6282
   33MOL    H29 6493   3.548   7.276   0.405 -0.5291 -1.1828 -0.3584
   33MOL    H30 6494   3.442   7.261   0.240 -0.0321  0.2841 -0.5764
   33MOL    H31 6495   3.341   7.111   0.208  1.1020  0.0881 -1.1798
   33MOL    C32 6496   3.668   7.114   0.473  0.4226  0.3017 -0.6428
   33MOL    C33 6497   3.792   7.205   0.426 -0.1561  0.6636  0.3979
   33MOL    C34 6498   3.808   7.194   0.271  0.2050 -0.7840 -0.5513
   33MOL    O35 6499   3.891   7.113   0.228  0.1183 -0.4112 -0.1893
   33MOL    N36 6500   3.737   7.273   0.199  0.1929 -0.6234 -0.1867
   33MOL    H37 6501   3.681   7.015   0.429 -0.4109 -0.8474  1.6136
   33MOL    H38 6502   3.705   7.097   0.574  2.3255 -0.0895 -1.3899
   33MOL    H39 6503   3.770   7.307   0.456  1.3593  1.1042  0.0432
   33MOL    H40 6504   3.683   7.350   0.237  0.4662 -1.3309  1.7310
   33MOL    H41 6505   3.739   7.259   0.099 -0.5472  0.2182 -0.3297
   33MOL    C42 6506   3.929   7.168   0.502  0.2529 -0.5620 -0.6460
   33MOL    C43 6507   3.943   7.200   0.653 -0.6639 -0.1760  0.2858
   33MOL    C44 6508   3.941   7.354   0.680 -0.4020  0.0325  0.3109
   33MOL    O45 6509   4.038   7.424   0.645 -0.0950 -0.2430 -0.4454
   33MOL    N46 6510   3.838   7.416   0.732  0.3329 -0.1155  0.3125
   33MOL    H47 6511   4.018   7.218   0.464 -0.9779  2.2036  0.0191
   33MOL    H48 6512   3.941   7.060   0.488 -0.8713 -0.8092  0.2289
   33MOL    H49 6513   3.852   7.171   0.706 -0.4115  1.3163  1.5744
   33MOL    H50 6514   3.846   7.514   0.754 -1.4139  0.2743 -0.6178
   33MOL    H51 6515   3.769   7.364   0.785 -0.1057  2.2104  2.1150
   33MOL    C52 6516   4.065   7.134   0.718 -0.6511 -0.0073 -0.5492
   33MOL    C53 6517   4.058   6.977   0.740  0.5143  0.4267 -0.1309
   33MOL    C54 6518   3.929   6.944   0.820 -0.8253  0.5159  0.0259
   33MOL    O55 6519   3.898   7.001   0.925  0.5913 -0.5608  0.1456
   33MOL    N56 6520   3.845   6.858   0.768  0.5322 -0.3490  0.2815
   33MOL    H57 6521   4.078   7.163   0.823  1.2256 -1.4105 -0.3721
   33MOL    H58 6522   4.157   7.159   0.666  0.6511 -0.4640  1.4621
   33MOL    H59 6523   4.043   6.921   0.648 -0.6541 -0.9754  0.8712
   33MOL    H60 6524   3.750   6.849   0.801  0.2308 -2.5572 -1.1463
   33MOL    H61 6525   3.864   6.804   0.685 -0.7555 -1.7573  0.8992
   33MOL    C62 6526   4.188   6.927   0.814  0.0043 -0.3091 -0.6025
   33MOL    C63 6527   4.228   6.774   0.799 -0.3571  1.1496 -0.9916
   33MOL    C64 6528   4.161   6.697   0.913  0.0687  0.7296 -0.0684
   33MOL    O65 6529   4.206   6.708   1.029 -0.5373 -0.4200  0.3623
   33MOL    N66 6530   4.066   6.607   0.893 -0.0532 -0.5879 -0.4445
   33MOL    H67 6531   4.199   6.958   0.918 -1.2030 -0.0588 -0.5327
   33MOL    H68 6532   4.262   6.994   0.772  0.2643  0.6740  1.3460
   33MOL    H69 6533   4.184   6.742   0.704 -1.2845 -0.2695 -0.1132
   33MOL    H70 6534   4.042   6.546   0.969  0.0548 -0.4428 -0.2916
   33MOL    H71 6535   4.000   6.616   0.818  1.7638 -0.8245 -2.1196
   33MOL    C72 6536   4.384   6.755   0.800 -0.4722  0.4334  0.5603
   33MOL    C73 6537   4.429   6.623   0.738  0.4283  0.4781 -0.3024
   33MOL    C74 6538   4.443   6.515   0.843  0.0379 -0.0728 -0.3894
   33MOL    O75 6539   4.483   6.405   0.803 -0.1386  0.1596 -0.1054
   33MOL    N76 6540   4.410   6.529   0.964 -0.4885 -0.1918 -0.2039
   33MOL    H77 6541   4.437   6.783   0.891 -3.1720 -0.2018  2.3854
   33MOL    H78 6542   4.426   6.827   0.729  0.0943 -1.1814 -0.7876
   33MOL    H79 6543   4.345   6.581   0.682  0.8693 -0.6902 -0.0964
   33MOL    H80 6544   4.435   6.454   1.027  0.4867  0.0819 -0.2611
   33MOL    H81 6545   4.369   6.615   0.998  0.3090  1.1456 -2.5466
   33MOL    C82 6546   4.556   6.631   0.641  0.0159  0.6533 -0.4599
   33MOL    C83 6547   4.682   6.708   0.695  0.1490  0.1745  0.4945
   33MOL    C84 6548   4.678   6.859   0.660 -1.1423  0.7483 -0.4813
   33MOL    O85 6549   4.663   6.894   0.542 -0.1961 -0.4914  0.2188
   33MOL    N86 6550   4.674   6.948   0.760 -0.1753  0.8338  0.6117
   33MOL    H87 6551   4.525   6.667   0.543 -1.8263  1.1067  0.2486
   33MOL    H88 6552   4.592   6.531   0.620 -0.9608  0.0242  0.8191
   33MOL    H89 6553   4.683   6.706   0.803 -2.5845 -1.6675  0.5067
   33MOL    H90 6554   4.681   6.922   0.857 -0.1648  0.8918  0.6266
   33MOL    H91 6555   4.634   7.038   0.739 -1.6040  0.0130 -0.3052
   33MOL    C92 6556   4.817   6.636   0.659  0.1583 -0.4898  0.6960
   33MOL    C93 6557   4.948   6.706   0.695 -0.0219  0.1490  0.0536
   33MOL    C94 6558   5.060   6.647   0.607  0.1613 -0.7105 -0.0116
   33MOL    O95 6559   5.082   6.527   0.609  0.0027 -0.0974  0.0186
   33MOL    N96 6560   5.128   6.728   0.536  0.1259 -0.4408 -0.1924
   33MOL    H97 6561   4.817   6.639   0.550 -1.4789  1.5771  0.7269
   33MOL    H98 6562   4.819   6.532   0.692  1.5375 -1.4293 -2.1585
   33MOL    H99 6563   4.936   6.813   0.679 -0.2687  0.3647  1.5747
   33MOL   H100 6564   5.089   6.819   0.520 -1.4029 -0.9476  0.5839
   33MOL   H101 6565   5.208   6.693   0.484  0.1858 -1.3721  0.5104
   33MOL   C102 6566   4.988   6.686   0.845  0.4997  0.2122 -0.4248
   33MOL   C103 6567   5.093   6.795   0.887  0.4035 -0.2872  0.2915
   33MOL   C104 6568   5.197   6.749   0.995 -0.0124  0.0439  0.9664
   33MOL   O105 6569   5.315   6.740   0.960  0.2015  0.1060  0.9777
   33MOL   N106 6570   5.156   6.727   1.120 -0.1644  0.2174  0.7634
   33MOL   H107 6571   5.021   6.586   0.875  0.0990  0.0082 -0.6595
   33MOL   H108 6572   4.900   6.702   0.907  1.5639 -0.5957  1.3513
   33MOL   H109 6573   5.158   6.814   0.801  2.3071 -0.7382  1.6024
   33MOL   H110 6574   5.226   6.696   1.186  0.9439  0.5373 -0.2507
   33MOL   H111 6575   5.058   6.731   1.147 -0.8485  0.7772 -1.7091
   33MOL   C112 6576   5.027   6.930   0.922 -0.0140  0.0743 -0.3319
   33MOL   C113 6577   5.082   7.039   0.833  0.1937  0.3769  0.7710
   33MOL   C114 6578   5.202   7.116   0.889 -0.4087  0.2227  0.0296
   33MOL   O115 6579   5.225   7.119   1.015 -0.1755 -0.2914  0.1418
   33MOL   N116 6580   5.289   7.169   0.806 -0.8287  0.0447 -0.1506
   33MOL   H117 6581   5.045   6.952   1.028 -2.4496 -0.0368  0.1297
   33MOL   H118 6582   4.919   6.927   0.912 -0.1088 -0.1825  0.7269
   33MOL   H119 6583   5.124   6.990   0.745 -1.0563  1.8929 -0.7095
   33MOL   H120 6584   5.256   7.177   0.711 -2.1407 -2.2320  0.0847
   33MOL   H121 6585   5.386   7.190   0.827 -0.0995 -1.9950 -1.3034
   33MOL   C122 6586   4.969   7.142   0.794 -0.4700  0.4518 -0.1782
   33MOL   C123 6587   4.926   7.146   0.644 -0.8067 -0.1699  0.5689
   33MOL   C124 6588   5.058   7.139   0.557  0.0907 -0.2679 -0.7095
   33MOL   O125 6589   5.156   7.216   0.569  0.0954 -0.1354  0.3103
   33MOL   N126 6590   5.070   7.047   0.466  0.6141 -0.2139  0.4473
   33MOL   H127 6591   4.993   7.249   0.795 -2.1099  0.8328 -0.2825
   33MOL   H128 6592   4.884   7.145   0.861 -1.9260  2.2754 -2.0334
   33MOL   H129 6593   4.872   7.055   0.616  1.2092 -0.5904 -2.2164
   33MOL   H130 6594   5.158   7.043   0.416  0.4492  1.8985 -0.0816
   33MOL   H131 6595   4.985   6.999   0.440  0.2071  1.4183 -1.4423
   33MOL   C132 6596   4.837   7.271   0.617  0.6108  0.0564 -0.0012
   33MOL   C133 6597   4.722   7.260   0.508 -0.2872  0.6815  0.0389
   33MOL   C134 6598   4.754   7.230   0.363  0.1887 -0.9988 -0.0407
   33MOL   O135 6599   4.772   7.324   0.284 -0.2464 -0.8303 -0.1396
   33MOL   N136 6600   4.762   7.102   0.332  0.1684 -0.2643  0.2167
   33MOL   H137 6601   4.906   7.346   0.578  0.7741  0.3894  0.9043
   33MOL   H138 6602   4.803   7.307   0.714 -0.3211 -0.6628 -0.0578
   33MOL   H139 6603   4.670   7.168   0.534 -0.5953  0.9917  0.5376
   33MOL   H140 6604   4.788   7.069   0.240  0.7810 -5.1474  1.9707
   33MOL   H141 6605   4.732   7.033   0.399  1.0257 -1.2694 -0.4062
   33MOL   C142 6606   4.616   7.377   0.528  0.5224 -0.0567  0.6116
   33MOL   C143 6607   4.530   7.391   0.657 -0.2447  0.1451 -0.1254
   33MOL   C144 6608   4.467   7.262   0.718 -0.2039  0.0912  0.7282
   33MOL   O145 6609   4.433   7.165   0.649 -0.3574  0.5113  0.1272
   33MOL   N146 6610   4.455   7.258   0.849  0.0110 -1.1123  0.2719
   33MOL   H147 6611   4.557   7.374   0.436 -0.0973  0.8688  0.9719
   33MOL   H148 6612   4.681   7.463   0.511  1.4256 -0.8562 -0.0596
   33MOL   H149 6613   4.587   7.446   0.732 -2.3879 -1.0514  2.4294
   33MOL   H150 6614   4.389   7.185   0.873 -2.4995  1.3903  1.1868
   33MOL   H151 6615   4.479   7.333   0.912  0.3123 -1.9835  1.2038
   33MOL   C152 6616   4.411   7.485   0.617 -0.3730 -0.4419 -0.5906
   33MOL   C153 6617   4.452   7.636   0.627 -0.2052  0.0770  0.4928
   33MOL   C154 6618   4.449   0.041   0.767  0.2033  0.1422 -0.7866
   33MOL   O155 6619   4.402   7.640   0.865  0.7378  0.3074 -0.5903
   33MOL   N156 6620   4.518   0.149   0.783  0.4697  0.2177 -0.0137
   33MOL   H157 6621   4.314   7.459   0.660  0.2813 -2.4794 -0.2964
   33MOL   H158 6622   4.388   7.461   0.513 -1.0919  2.5438 -1.1725
   33MOL   H159 6623   4.557   7.638   0.599 -1.2114 -0.5408 -3.6735
   33MOL   H160 6624   4.521   0.199   0.871  2.1889 -1.0789  0.7083
   33MOL   H161 6625   4.575   0.182   0.707  1.1160  2.2750  1.3190
   33MOL   C162 6626   4.383   0.074   0.526 -0.4833  0.0480  0.6778
   33MOL   C163 6627   4.230   0.094   0.533  0.2300 -0.4194  0.5645
   33MOL   C164 6628   4.159   0.042   0.403 -0.2236 -0.0203 -0.1939
   33MOL   O165 6629   4.170   0.103   0.297  0.4629 -0.2781  0.2255
   33MOL   N166 6630   4.075   7.597   0.413 -0.0145 -0.0071  0.0615
   33MOL   H167 6631   4.397   0.021   0.432 -1.9644  1.2451 -0.2416
   33MOL   H168 6632   4.443   0.165   0.526 -0.7339  0.2173  0.8596
   33MOL   H169 6633   4.192   0.025   0.608 -1.0438 -2.1569 -1.6349
   33MOL   H170 6634   4.026   7.565   0.331  2.2287  0.2960 -1.4408
   33MOL   H171 6635   4.078   7.545   0.500  2.1969 -0.1837 -0.0895
   33MOL   C172 6636   4.190   0.239   0.557 -0.7313 -0.1941  0.6605
   33MOL   C173 6637   4.162   0.272   0.701 -0.2435 -0.0149 -0.4690
   33MOL   C174 6638   4.041   0.198   0.751 -0.4882  0.3312  0.0810
   33MOL   O175 6639   4.051   0.082   0.793  0.2887 -0.1739 -0.0998
   33MOL   N176 6640   3.923   0.254   0.758 -0.1236  0.2013  0.1423
   33MOL   H177 6641   4.096   0.257   0.505  0.5938  0.3234 -1.6387
   33MOL   H178 6642   4.266   0.302   0.511 -1.0620 -0.8823 -0.8671
   33MOL   H179 6643   4.252   0.242   0.753  0.7904  1.4297 -1.3776
   33MOL   H180 6644   3.858   0.196   0.809  0.1345  0.6279  0.9739
   33MOL   H181 6645   3.909   0.346   0.719  4.3282  0.9817  0.1174
   33MOL   C182 6646   4.149   0.431   0.718  0.3389 -0.1901  0.1722
   33MOL   C183 6647   4.277   0.521   0.696 -0.1074  0.0215 -0.1588
   33MOL   C184 6648   4.380   0.494   0.802  0.8734 -0.4138  0.3783
   33MOL   O185 6649   4.341   0.508   0.917 -0.8701 -0.5074 -0.0480
   33MOL   N186 6650   4.505   0.459   0.767 -0.0265  0.5011  0.0084
   33MOL   H187 6651   4.098   0.450   0.813  0.5357 -0.0869  0.2570
   33MOL   H188 6652   4.083   0.467   0.639  1.1833  0.7347 -0.1330
   33MOL   H189 6653   4.310   0.504   0.594  0.1939  0.3659 -0.1181
   33MOL   H190 6654   4.528   0.450   0.669 -0.7574 -0.4820 -0.0879
   33MOL   H191 6655   4.573   0.465   0.841  2.2503  3.3667 -2.2282
   33MOL   C192 6656   4.238   0.670   0.699 -0.3799  0.2761  0.2691
   33MOL   C193 6657   4.347   0.775   0.702  0.5058 -0.1427  0.2329
   33MOL   C194 6658   4.400   0.812   0.560 -0.2389 -0.8101  0.4969
   33MOL   O195 6659   4.363   0.749   0.457 -0.2343  0.4527  0.1754
   33MOL   N196 6660   4.494   0.908   0.543  0.1901 -0.6100 -0.1003
   33MOL   H197 6661   4.168   0.690   0.781 -0.3249  0.1724  0.3409
   33MOL   H198 6662   4.174   0.690   0.614  1.3847  1.6544 -0.7613
   33MOL   H199 6663   4.299   0.863   0.745 -3.9213 -1.3972 -1.8090
   33MOL   H200 6664   4.518   0.940   0.450  0.9426 -0.2546  0.2010
   33MOL   H201 6665   4.516   0.963   0.625 -0.7349 -0.7444  0.2393
   33MOL   H202 6666   4.438   0.753   0.757  1.4518 -2.1252 -2.0593
   34MOL     C1 6667   4.284   6.185   0.700 -0.4859 -0.1413 -0.1541
   34MOL     C2 6668   4.294   6.054   0.781 -0.3086  0.1328  0.6209
   34MOL     C3 6669   4.149   6.024   0.818 -0.8532  0.5644  0.1548
   34MOL     O4 6670   4.104   6.059   0.926  0.0004 -0.0219  0.1358
   34MOL     N5 6671   4.085   5.949   0.738 -0.5467 -0.5981  0.0591
   34MOL     H6 6672   4.230   6.163   0.608 -0.6202 -1.2625  0.1814
   34MOL     H7 6673   4.223   6.261   0.748  0.8331  0.6234  0.3374
   34MOL     H8 6674   4.336   5.969   0.729  0.4434  0.6053  0.4505
   34MOL     H9 6675   4.133   5.931   0.651 -0.5412  0.5003 -0.1785
   34MOL    H10 6676   3.985   5.944   0.743 -0.5670  0.8500  1.6696
   34MOL    H11 6677   4.375   6.236   0.669  0.8937 -2.8744 -0.8574
   34MOL    C12 6678   4.383   6.067   0.905 -0.4481 -0.5351  0.7126
   34MOL    C13 6679   4.403   5.929   0.976  0.2513  1.0676 -0.3439
   34MOL    C14 6680   4.440   5.956   1.125  0.1683 -0.4430  0.1745
   34MOL    O15 6681   4.547   6.005   1.158  0.3866 -0.1454  0.1437
   34MOL    N16 6682   4.361   5.914   1.226 -0.4039 -0.2180  0.4566
   34MOL    H17 6683   4.337   6.141   0.971 -0.3757 -0.5608  0.7904
   34MOL    H18 6684   4.480   6.106   0.874 -0.4770 -1.3809 -0.4622
   34MOL    H19 6685   4.309   5.873   0.976  0.2529  1.0449 -1.5112
   34MOL    H20 6686   4.271   5.876   1.201 -0.8547  2.3747 -1.9760
   34MOL    H21 6687   4.379   5.949   1.320  1.0369 -0.9866  0.4723
   34MOL    C22 6688   4.504   5.830   0.909  0.5199 -0.5304  0.3961
   34MOL    C23 6689   4.457   5.706   0.822 -0.1981 -0.3960  0.3015
   34MOL    C24 6690   4.347   5.631   0.896  0.4456 -0.3836 -0.6974
   34MOL    O25 6691   4.363   5.584   1.008  0.3451 -0.0689  0.3384
   34MOL    N26 6692   4.232   5.625   0.836 -0.0026  0.3286  0.5063
   34MOL    H27 6693   4.584   5.798   0.975  1.7217 -1.0541 -1.2811
   34MOL    H28 6694   4.553   5.890   0.832  1.1988 -1.2322  0.2843
   34MOL    H29 6695   4.425   5.747   0.726 -2.1781 -1.9770  0.2435
   34MOL    H30 6696   4.215   5.687   0.758 -1.6219 -0.5692  0.1233
   34MOL    H31 6697   4.151   5.572   0.866  0.3343 -0.9964 -0.8672
   34MOL    C32 6698   4.576   5.616   0.791 -0.4036  0.0183 -0.0152
   34MOL    C33 6699   4.540   5.497   0.704 -0.1975 -0.8224 -0.2632
   34MOL    C34 6700   4.650   5.386   0.707 -0.1899  0.7593  0.2275
   34MOL    O35 6701   4.755   5.390   0.644  0.4897 -0.2885 -0.4439
   34MOL    N36 6702   4.616   5.275   0.773 -0.2719 -0.5053  0.3532
   34MOL    H37 6703   4.618   5.574   0.882 -1.8496  1.3084  1.2693
   34MOL    H38 6704   4.653   5.671   0.737  0.5873 -0.4862  0.8666
   34MOL    H39 6705   4.453   5.454   0.753 -0.0994  0.0636  0.7096
   34MOL    H40 6706   4.527   5.252   0.816  0.2770 -1.7970  0.8380
   34MOL    H41 6707   4.674   5.193   0.765 -0.7325 -0.6478 -2.0771
   34MOL    C42 6708   4.515   5.532   0.555 -0.1476  0.0847 -0.6698
   34MOL    C43 6709   4.439   5.443   0.453 -0.9861 -0.2256  0.1004
   34MOL    C44 6710   4.291   5.457   0.484 -0.0806  0.3225 -0.3273
   34MOL    O45 6711   4.252   5.443   0.596 -0.2617 -0.3253 -0.0164
   34MOL    N46 6712   4.215   5.490   0.385 -0.2315  0.1590  0.4672
   34MOL    H47 6713   4.614   5.564   0.521  0.9764 -1.7934  0.7251
   34MOL    H48 6714   4.461   5.626   0.560  1.0351  0.6422  4.0692
   34MOL    H49 6715   4.464   5.474   0.351  2.5103 -0.1231  0.9325
   34MOL    H50 6716   4.247   5.499   0.290 -0.7689 -0.3259  0.2349
   34MOL    H51 6717   4.115   5.497   0.396 -0.0917 -0.1822  2.0543
   34MOL    C52 6718   4.486   5.299   0.450  0.2331 -0.0602  0.5668
   34MOL    C53 6719   4.429   5.209   0.340 -0.3478 -0.4459  0.3340
   34MOL    C54 6720   4.296   5.150   0.385  0.5076  0.2414  0.2257
   34MOL    O55 6721   4.182   5.188   0.359 -0.1934  0.6741 -0.6624
   34MOL    N56 6722   4.310   5.053   0.479 -0.0950  0.6331 -0.0234
   34MOL    H57 6723   4.463   5.255   0.547 -0.1204  0.0156  0.5192
   34MOL    H58 6724   4.594   5.299   0.436  0.0715 -1.4435 -0.8907
   34MOL    H59 6725   4.398   5.280   0.264 -0.9134 -0.9764  0.0593
   34MOL    H60 6726   4.400   5.023   0.515 -0.0054 -1.9684 -2.3027
   34MOL    H61 6727   4.228   5.005   0.514 -0.6487  1.5565 -0.0503
   34MOL    C62 6728   4.530   5.115   0.274  0.2156  0.5908  0.7422
   34MOL    C63 6729   4.645   5.174   0.183 -0.0247  0.3570  0.1146
   34MOL    C64 6730   4.594   5.227   0.053  0.5981  0.3971  0.5481
   34MOL    O65 6731   4.515   5.166   7.639 -0.5530 -0.3281 -0.2863
   34MOL    N66 6732   4.653   5.337   0.013  0.0699 -0.4105  0.0013
   34MOL    H67 6733   4.479   5.029   0.232 -0.5772  2.1340 -1.5282
   34MOL    H68 6734   4.581   5.068   0.358 -0.3706  1.5249  1.6358
   34MOL    H69 6735   4.694   5.252   0.242 -0.9244  0.7845  0.3047
   34MOL    H70 6736   4.619   5.380   7.585  0.9630  1.1636  0.4178
   34MOL    H71 6737   4.723   5.394   0.059 -1.4373  1.9203 -0.4547
   34MOL    C72 6738   4.763   5.070   0.163  0.5990  0.8995  0.2712
   34MOL    C73 6739   4.828   5.009   0.291 -0.3676 -0.1030 -0.0757
   34MOL    C74 6740   4.886   5.119   0.382 -0.4734  0.0826 -0.2070
   34MOL    O75 6741   4.999   5.157   0.361  0.1087  0.9648  0.0726
   34MOL    N76 6742   4.820   5.166   0.488  0.0348  0.6667 -0.2624
   34MOL    H77 6743   4.834   5.099   0.086 -0.8282  0.4827 -1.2267
   34MOL    H78 6744   4.727   4.988   0.100 -1.2370  0.6589  1.5668
   34MOL    H79 6745   4.753   4.953   0.346  0.3177 -1.0435 -0.0828
   34MOL    H80 6746   4.729   5.128   0.508  0.4568 -0.5611 -0.6605
   34MOL    H81 6747   4.857   5.242   0.543  0.2275 -0.0576  0.6034
   34MOL    C82 6748   4.938   4.908   0.245  0.5377 -0.1348 -0.5546
   34MOL    C83 6749   5.020   4.859   0.372 -0.2841  0.7533 -0.0425
   34MOL    C84 6750   5.149   4.792   0.317  0.3506  0.8980 -0.3640
   34MOL    O85 6751   5.158   4.674   0.283 -0.3639  0.1085  0.2510
   34MOL    N86 6752   5.256   4.868   0.310  0.3295  0.2090 -0.3159
   34MOL    H87 6753   5.001   4.944   0.164  1.2604 -0.3786 -0.1089
   34MOL    H88 6754   4.888   4.831   0.187  2.1827 -1.4992 -0.2065
   34MOL    H89 6755   5.059   4.935   0.439  1.4880 -0.5662  0.4712
   34MOL    H90 6756   5.241   4.966   0.329  1.5156  0.7371 -2.0011
   34MOL    H91 6757   5.348   4.829   0.294  0.8329  0.2900  2.0887
   34MOL    C92 6758   4.935   4.763   0.461  0.7764 -0.1406 -0.7864
   34MOL    C93 6759   4.893   4.816   0.603  0.5391  0.6859  1.0535
   34MOL    C94 6760   5.015   4.824   0.695  0.2218  1.0430  0.1212
   34MOL    O95 6761   5.097   4.735   0.696 -0.6691 -0.4618 -0.1981
   34MOL    N96 6762   5.015   4.932   0.776  0.0185 -0.1872 -0.3942
   34MOL    H97 6763   4.968   4.659   0.456  1.2405 -0.0204 -0.3415
   34MOL    H98 6764   4.845   4.752   0.401  2.0114  1.6935 -3.0622
   34MOL    H99 6765   4.856   4.917   0.588 -0.8259  0.1490  0.6786
   34MOL   H100 6766   5.095   4.962   0.830 -0.8016 -0.0943  0.7892
   34MOL   H101 6767   4.944   5.003   0.764  1.1534  1.0710  0.1784
   34MOL   C102 6768   4.776   4.728   0.664 -0.1352 -0.2637  0.1903
   34MOL   C103 6769   4.629   4.755   0.611 -0.3975  0.8520  0.0553
   34MOL   C104 6770   4.576   4.890   0.662  1.0955  0.3911 -0.5391
   34MOL   O105 6771   4.586   4.995   0.605  0.0792 -0.1768 -0.3248
   34MOL   N106 6772   4.509   4.895   0.781  0.3147 -0.0761  0.3166
   34MOL   H107 6773   4.777   4.725   0.773 -1.8309 -4.1423  0.1537
   34MOL   H108 6774   4.814   4.631   0.633  0.7009  0.1398 -0.0612
   34MOL   H109 6775   4.646   4.763   0.503  0.1062 -1.4439 -0.0472
   34MOL   H110 6776   4.470   4.983   0.812  2.4616  0.7867  0.6922
   34MOL   H111 6777   4.481   4.807   0.822 -0.6731  0.1234  0.0699
   34MOL   C112 6778   4.520   4.643   0.635 -0.2308  0.3171 -0.6171
   34MOL   C113 6779   4.551   4.500   0.571 -0.0723 -0.3230 -0.4738
   34MOL   C114 6780   4.420   4.433   0.517 -0.0966 -0.1790 -0.4930
   34MOL   O115 6781   4.329   4.393   0.587  0.1138 -0.1837 -0.5195
   34MOL   N116 6782   4.408   4.420   0.389 -0.0601 -0.1907  0.0285
   34MOL   H117 6783   4.430   4.677   0.585 -0.3644 -2.3483 -2.3009
   34MOL   H118 6784   4.490   4.634   0.740  1.8616  0.0214 -0.0127
   34MOL   H119 6785   4.611   4.515   0.482 -1.1904  0.1647 -1.1623
   34MOL   H120 6786   4.325   4.365   0.374 -0.8656  1.0069  0.0311
   34MOL   H121 6787   4.487   4.406   0.327 -0.9767 -0.9368 -0.9786
   34MOL   C122 6788   4.618   4.410   0.687 -0.2765  0.1262 -0.2564
   34MOL   C123 6789   4.664   4.270   0.655 -0.4651  0.0529  0.5147
   34MOL   C124 6790   4.707   4.192   0.787 -0.9959  0.0972  0.1300
   34MOL   O125 6791   4.777   4.245   0.869 -0.1923  0.1631 -0.4252
   34MOL   N126 6792   4.654   4.073   0.820 -0.7532 -0.9369  0.1591
   34MOL   H127 6793   4.547   4.418   0.770 -1.7980  2.3912 -1.7186
   34MOL   H128 6794   4.699   4.471   0.727 -1.0357 -0.2428  1.9154
   34MOL   H129 6795   4.579   4.211   0.619  0.3355 -0.0918 -1.1702
   34MOL   H130 6796   4.695   4.035   0.904 -0.4391 -1.3197 -0.1636
   34MOL   H131 6797   4.571   4.031   0.780 -0.4816 -1.3541  0.0235
   34MOL   C132 6798   4.789   4.269   0.564 -0.4648 -0.1601  0.0242
   34MOL   C133 6799   4.787   4.166   0.449 -0.5777 -0.1734 -0.0389
   34MOL   C134 6800   4.816   4.021   0.510 -0.2328  0.9877  0.1429
   34MOL   O135 6801   4.922   3.996   0.574 -0.0082  0.0872 -0.3995
   34MOL   N136 6802   4.718   3.930   0.488 -0.1069 -0.3220 -0.3593
   34MOL   H137 6803   4.880   4.263   0.624 -1.0218 -2.8169  0.6947
   34MOL   H138 6804   4.794   4.372   0.531 -1.0471 -0.0094  0.3990
   34MOL   H139 6805   4.692   4.146   0.400  1.7539 -1.3838 -4.3719
   34MOL   H140 6806   4.723   3.833   0.516  2.5163  0.0311  0.5106
   34MOL   H141 6807   4.631   3.958   0.446 -0.0878  1.5968  0.8151
   34MOL   C142 6808   4.890   4.205   0.334 -0.1798  0.5156  0.3797
   34MOL   C143 6809   4.834   4.245   0.196  0.8704 -0.8154 -0.2076
   34MOL   C144 6810   4.738   4.364   0.211 -0.3314  0.4960  0.6216
   34MOL   O145 6811   4.619   4.348   0.242 -0.4477  0.3276 -0.8319
   34MOL   N146 6812   4.785   4.488   0.198 -1.0902  0.2311  0.0290
   34MOL   H147 6813   4.958   4.121   0.317 -0.1720  0.2381  1.7449
   34MOL   H148 6814   4.961   4.281   0.368  0.8081 -0.1317 -0.1890
   34MOL   H149 6815   4.917   4.271   0.130  0.6570  0.4679  0.0193
   34MOL   H150 6816   4.728   4.571   0.197 -1.6895 -0.1947 -1.8127
   34MOL   H151 6817   4.881   4.493   0.169 -1.7984  5.0612 -1.8715
   34MOL   C152 6818   4.757   4.128   0.130 -0.2955  0.8996 -0.0672
   34MOL   C153 6819   4.828   4.038   0.032 -0.2205 -0.3765 -0.5585
   34MOL   C154 6820   4.866   4.116   7.562 -0.4698  0.4650 -0.4884
   34MOL   O155 6821   4.808   4.222   7.534  0.4695 -0.0702 -0.5399
   34MOL   N156 6822   4.963   4.067   7.486  0.6685  0.0331 -0.5410
   34MOL   H157 6823   4.662   4.160   0.087 -0.3402 -2.0829 -2.3252
   34MOL   H158 6824   4.717   4.062   0.206 -3.5332 -0.2745 -2.6704
   34MOL   H159 6825   4.922   4.005   0.077 -1.0521 -2.2276 -0.1321
   34MOL   H160 6826   4.996   3.973   7.503 -0.0922  0.1579  1.7669
   34MOL   H161 6827   4.986   4.103   7.395  1.9019 -0.7078 -0.5369
   34MOL   C162 6828   4.739   3.918   7.653  0.7650 -0.0060 -0.0515
   34MOL   C163 6829   4.811   3.781   0.038  0.2943 -0.9212 -0.3162
   34MOL   C164 6830   4.939   3.755   7.615  0.5230 -0.7992 -0.2004
   34MOL   O165 6831   4.945   3.758   7.493  0.0345  0.0685 -0.1821
   34MOL   N166 6832   5.052   3.745   0.018 -0.0370 -0.7377  0.0302
   34MOL   H167 6833   4.722   3.920   7.546 -1.3023  1.4460  0.2759
   34MOL   H168 6834   4.646   3.926   0.053  0.9708 -2.0808  0.6301
   34MOL   H169 6835   4.833   3.782   0.145  0.6840  1.3290 -0.3845
   34MOL   H170 6836   5.068   3.775   0.113 -4.4462  1.7793  0.0655
   34MOL   H171 6837   5.129   3.717   7.616  0.1365  1.0768 -0.6090
   34MOL   C172 6838   4.703   3.662   0.024  0.3857 -0.7700 -0.2980
   34MOL   C173 6839   4.737   3.530   0.103 -0.0138  0.1276  0.6223
   34MOL   C174 6840   4.831   3.436   0.029  0.1227 -0.1920  0.4739
   34MOL   O175 6841   4.794   3.368   7.591  0.1669 -0.4327  0.5709
   34MOL   N176 6842   4.957   3.439   0.061 -0.2953  0.3453  0.1418
   34MOL   H177 6843   4.683   3.638   7.576  3.4563 -1.6509 -0.7197
   34MOL   H178 6844   4.607   3.706   0.052 -0.1156 -1.8793 -0.2561
   34MOL   H179 6845   4.795   3.547   0.194  2.4109 -2.2840 -0.4093
   34MOL   H180 6846   4.992   3.492   0.140 -1.7741 -0.1123  1.1126
   34MOL   H181 6847   5.023   3.401   7.651 -1.2993 -0.5505 -0.3437
   34MOL   C182 6848   4.608   3.455   0.135 -0.0342  0.3226 -0.0424
   34MOL   C183 6849   4.498   3.527   0.217 -0.1762  0.2878  0.8274
   34MOL   C184 6850   4.559   3.614   0.338 -0.2597 -0.2248  0.4802
   34MOL   O185 6851   4.591   3.729   0.310  0.1025  0.7603 -0.0928
   34MOL   N186 6852   4.587   3.555   0.455  0.0826  0.2770  0.5161
   34MOL   H187 6853   4.627   3.362   0.188 -0.6898  0.5705  0.6390
   34MOL   H188 6854   4.573   3.430   0.034 -1.6507 -0.2509  0.6368
   34MOL   H189 6855   4.456   3.605   0.153 -0.3215 -1.7842 -1.6609
   34MOL   H190 6856   4.580   3.455   0.462 -1.5978  0.3746  0.2990
   34MOL   H191 6857   4.620   3.612   0.532  0.2684  0.7341  0.0992
   34MOL   C192 6858   4.387   3.431   0.269 -0.4171  0.1783  0.7778
   34MOL   C193 6859   4.312   3.355   0.155 -1.0382  0.6918 -0.7980
   34MOL   C194 6860   4.188   3.275   0.185  0.9593  0.1244 -0.0162
   34MOL   O195 6861   4.137   3.271   0.297 -0.6179  0.1521 -0.3803
   34MOL   N196 6862   4.141   3.202   0.090  0.3615  0.5608 -0.2939
   34MOL   H197 6863   4.319   3.472   0.344  1.3514  3.9703  0.4310
   34MOL   H198 6864   4.436   3.350   0.322  2.4031 -0.8259 -3.1122
   34MOL   H199 6865   4.273   3.428   0.083 -0.2388  0.0327 -1.9196
   34MOL   H200 6866   4.061   3.146   0.114  0.6328  1.2450  2.2697
   34MOL   H201 6867   4.189   3.193   0.001  0.6822  0.8440 -0.1528
   34MOL   H202 6868   4.382   3.298   0.093 -1.6063  0.1767 -0.9706
   35MOL     C1 6869   0.212   4.725   2.785  0.2707  0.0042 -0.2518
   35MOL     C2 6870   0.184   4.832   2.889  1.0210  0.3354  0.1458
   35MOL     C3 6871   0.232   4.789   3.022 -1.0498 -0.1561 -0.1033
   35MOL     O4 6872   0.188   4.687   3.076 -0.3336  0.4080  0.4671
   35MOL     N5 6873   0.319   4.861   3.091  0.4433  0.3012  0.8759
   35MOL     H6 6874   0.182   4.761   2.687 -0.0505 -0.3756 -0.2958
   35MOL     H7 6875   0.317   4.697   2.788  0.6228  1.4434  2.1461
   35MOL     H8 6876   0.227   4.928   2.862 -0.2942  0.0014 -3.3269
   35MOL     H9 6877   0.360   4.835   3.180 -0.4964  1.5121  1.6769
   35MOL    H10 6878   0.347   4.949   3.051  1.7839 -0.8295 -0.7555
   35MOL    H11 6879   0.161   4.631   2.807 -0.3878  0.9139  2.4002
   35MOL    C12 6880   0.032   4.869   2.899  0.0890 -0.4403 -0.3118
   35MOL    C13 6881   7.617   4.940   2.775 -0.1604 -0.2700  0.4421
   35MOL    C14 6882   7.528   5.060   2.813  0.0872 -0.3180 -0.6064
   35MOL    O15 6883   7.459   5.054   2.915  0.0932  0.2924  0.6132
   35MOL    N16 6884   7.526   5.159   2.730  0.3203 -0.6796  0.4402
   35MOL    H17 6885   0.029   4.946   2.976 -0.8667  1.7958 -2.5142
   35MOL    H18 6886   7.637   4.776   2.924 -1.2811 -0.0949 -1.7625
   35MOL    H19 6887   0.045   4.977   2.716 -0.5254 -0.1992 -0.0438
   35MOL    H20 6888   7.455   5.230   2.743 -0.2723 -1.4427  1.3979
   35MOL    H21 6889   7.567   5.166   2.637  0.5581  1.2133  0.6588
   35MOL    C22 6890   7.531   4.837   2.702  0.4968  0.0395  0.5287
   35MOL    C23 6891   7.463   4.882   2.564 -0.6460  0.3865  0.4620
   35MOL    C24 6892   7.315   4.913   2.581 -0.3722 -0.0573 -0.4425
   35MOL    O25 6893   7.231   4.834   2.630  0.3907  0.4363  0.4812
   35MOL    N26 6894   7.284   5.039   2.558  0.0557  0.0207  0.2477
   35MOL    H27 6895   7.462   4.797   2.776  0.9498  0.6002  1.2665
   35MOL    H28 6896   7.600   4.754   2.688 -2.1532 -2.2979  0.8200
   35MOL    H29 6897   7.519   4.968   2.526  0.1347 -0.4561 -0.3078
   35MOL    H30 6898   7.353   5.107   2.530  0.4274 -0.2768  0.4317
   35MOL    H31 6899   7.190   5.072   2.571  0.6668  1.6670  0.6911
   35MOL    C32 6900   7.473   4.772   2.453  0.0134 -0.4667  0.2783
   35MOL    C33 6901   7.428   4.814   2.314  0.2263 -0.1588  1.2627
   35MOL    C34 6902   7.351   4.700   2.245  0.3091 -0.1562  0.4350
   35MOL    O35 6903   7.408   4.590   2.220 -0.2494  0.0896  0.0625
   35MOL    N36 6904   7.218   4.715   2.229 -0.0418  0.1344  0.1540
   35MOL    H37 6905   7.403   4.691   2.475  1.1107 -1.5483 -0.1514
   35MOL    H38 6906   7.564   4.714   2.469 -0.0442 -0.8616 -0.7581
   35MOL    H39 6907   7.357   4.896   2.317 -1.2723 -1.4762  2.4558
   35MOL    H40 6908   7.161   4.797   2.246 -3.6051 -1.9111 -1.5506
   35MOL    H41 6909   7.171   4.634   2.191  0.5496  0.2192 -0.7664
   35MOL    C42 6910   7.541   4.880   2.232  0.0404  0.5466  0.0841
   35MOL    C43 6911   7.498   5.011   2.156  0.4805  0.5325  0.4890
   35MOL    C44 6912   7.389   4.997   2.053 -0.7164 -0.1035 -0.0084
   35MOL    O45 6913   7.428   4.972   1.934  0.1642  0.2377 -0.0433
   35MOL    N46 6914   7.265   5.020   2.095 -0.6858 -0.7810 -0.8615
   35MOL    H47 6915   7.580   4.816   2.153  1.6798 -0.1301  1.4329
   35MOL    H48 6916   7.621   4.901   2.303  1.5346  1.7848 -1.9036
   35MOL    H49 6917   7.455   5.071   2.236  0.5744 -0.4172  1.2532
   35MOL    H50 6918   7.195   5.024   2.023 -0.8604  0.8260 -0.6195
   35MOL    H51 6919   7.240   5.055   2.186  0.3518 -1.9616 -0.1071
   35MOL    C52 6920   7.621   5.086   2.099 -0.1180  0.4456  0.5093
   35MOL    C53 6921   7.604   5.232   2.050  0.4279 -0.2061 -0.4844
   35MOL    C54 6922   7.635   5.263   1.901  0.0025 -0.4059  1.1376
   35MOL    O55 6923   0.009   5.370   1.853  0.4294  0.0496 -0.3809
   35MOL    N56 6924   7.615   5.160   1.814  0.1602 -0.0118 -0.5123
   35MOL    H57 6925   0.013   5.017   2.029 -0.9522  0.3492  0.0184
   35MOL    H58 6926   0.046   5.091   2.171  0.9334  1.6001 -0.7577
   35MOL    H59 6927   7.497   5.249   2.059  0.7629  0.8961  1.8227
   35MOL    H60 6928   7.614   5.176   1.714 -1.4979  1.5912 -0.2805
   35MOL    H61 6929   7.566   5.080   1.852  0.5486  1.1093  2.5145
   35MOL    C62 6930   0.004   5.336   2.146  0.4328 -0.3536  0.6146
   35MOL    C63 6931   7.569   5.453   2.182  0.1623 -0.5050  0.5278
   35MOL    C64 6932   7.644   5.574   2.248 -0.3717 -0.7287 -0.1703
   35MOL    O65 6933   0.073   5.563   2.338 -0.3365 -0.0327 -0.1106
   35MOL    N66 6934   7.606   5.694   2.215  0.2548  0.6842 -0.4277
   35MOL    H67 6935   0.098   5.382   2.117  1.0384 -0.5966  2.1655
   35MOL    H68 6936   0.025   5.288   2.241  0.9507  1.1178  1.2579
   35MOL    H69 6937   7.533   5.485   2.084  0.2016 -1.2238  0.2690
   35MOL    H70 6938   7.644   5.783   2.243 -0.3189  0.6725  0.4030
   35MOL    H71 6939   7.535   5.704   2.143  1.1620  2.3307 -1.1217
   35MOL    C72 6940   7.438   5.434   2.260 -0.1214  0.1232  0.6499
   35MOL    C73 6941   7.430   5.433   2.415 -1.0751  0.2684 -0.0001
   35MOL    C74 6942   7.520   5.324   2.473 -0.3399 -0.8690 -0.9127
   35MOL    O75 6943   7.503   5.204   2.453 -0.1026 -0.1928 -0.0329
   35MOL    N76 6944   7.628   5.366   2.544 -0.0775 -0.3615 -0.9265
   35MOL    H77 6945   7.391   5.345   2.219  1.7697 -1.4823  1.8743
   35MOL    H78 6946   7.383   5.524   2.233  2.2600  1.0686 -1.2491
   35MOL    H79 6947   7.471   5.530   2.442 -2.3536  0.7879  0.1136
   35MOL    H80 6948   7.646   5.464   2.531 -2.6196  0.1413 -1.0152
   35MOL    H81 6949   0.051   5.308   2.567  0.7823  0.2830 -2.2081
   35MOL    C82 6950   7.282   5.440   2.469 -0.7737  0.2341 -0.0526
   35MOL    C83 6951   7.262   5.503   2.610  0.2884  0.2339  0.0908
   35MOL    C84 6952   7.293   5.405   2.725  1.0893 -0.3672  1.1361
   35MOL    O85 6953   7.267   5.288   2.703 -0.8088  0.7791  0.6676
   35MOL    N86 6954   7.338   5.445   2.841  0.4005 -0.0473 -0.4111
   35MOL    H87 6955   7.246   5.338   2.477 -0.4772  0.1720  0.5581
   35MOL    H88 6956   7.219   5.497   2.401  0.2651  1.8760  0.3231
   35MOL    H89 6957   7.348   5.569   2.622  1.1651 -0.6211 -1.3691
   35MOL    H90 6958   7.344   5.385   2.922  1.7196 -0.5820 -0.9017
   35MOL    H91 6959   7.343   5.543   2.863 -0.1890  0.3485 -1.9877
   35MOL    C92 6960   7.126   5.575   2.633  0.6426  0.0963 -0.2456
   35MOL    C93 6961   7.115   5.720   2.575 -0.0526  0.5723 -0.5165
   35MOL    C94 6962   7.238   5.784   2.508 -0.2253 -0.3002  0.1455
   35MOL    O95 6963   7.345   5.799   2.571  0.7063  0.6827 -0.4649
   35MOL    N96 6964   7.230   5.810   2.379 -0.0373  0.0458 -0.3905
   35MOL    H97 6965   7.097   5.576   2.738  2.2535 -0.8220  0.2282
   35MOL    H98 6966   7.046   5.514   2.592  2.6142 -2.1367 -0.8681
   35MOL    H99 6967   7.045   5.713   2.492 -0.0350  1.5401 -0.6144
   35MOL   H100 6968   7.309   5.857   2.336  0.7719  0.2158  1.2223
   35MOL   H101 6969   7.152   5.790   2.318  0.8245 -0.0566 -1.4790
   35MOL   C102 6970   7.046   5.807   2.678 -0.4423 -0.3440  0.3818
   35MOL   C103 6971   6.982   5.939   2.617 -0.5002  0.2201  0.2236
   35MOL   C104 6972   7.059   6.066   2.674 -0.3284  0.5289  0.4858
   35MOL   O105 6973   7.163   6.098   2.625 -0.0011  0.1340 -0.0825
   35MOL   N106 6974   7.009   6.134   2.771  0.4069 -0.1168  0.8810
   35MOL   H107 6975   7.110   5.827   2.764 -1.3554  1.1597  0.7360
   35MOL   H108 6976   6.968   5.742   2.717 -2.3042  1.3174 -0.4842
   35MOL   H109 6977   6.989   5.955   2.510  2.8454  2.3714  0.6726
   35MOL   H110 6978   7.051   6.215   2.814 -0.5811  1.6198 -1.3505
   35MOL   H111 6979   6.927   6.097   2.817 -0.4610  2.1209  1.2280
   35MOL   C112 6980   6.827   5.939   2.633 -0.0571  0.2717 -0.6532
   35MOL   C113 6981   6.751   6.046   2.551 -0.2628 -0.1201  0.0437
   35MOL   C114 6982   6.620   6.099   2.616  0.0570  0.1367 -0.2966
   35MOL   O115 6983   6.617   6.207   2.668 -0.2017  0.5878 -0.0482
   35MOL   N116 6984   6.521   6.018   2.613  0.1220  0.1375  0.6404
   35MOL   H117 6985   6.803   5.940   2.739 -0.2189 -1.8732 -0.6440
   35MOL   H118 6986   6.789   5.839   2.610 -0.4146  0.3927 -0.5743
   35MOL   H119 6987   6.812   6.136   2.565 -0.8289  0.5357 -1.5707
   35MOL   H120 6988   6.528   5.931   2.562 -2.8881 -0.5415  1.2912
   35MOL   H121 6989   6.430   6.052   2.640 -0.0981  0.5401 -0.5739
   35MOL   C122 6990   6.752   6.014   2.395 -0.3741  0.1025  0.4194
   35MOL   C123 6991   6.714   5.880   2.330  0.2233 -0.2909 -0.3942
   35MOL   C124 6992   6.580   5.834   2.371  0.0311 -0.2022 -0.3255
   35MOL   O125 6993   6.556   5.776   2.476  0.3990 -0.1113  0.1840
   35MOL   N126 6994   6.479   5.855   2.288  0.3836 -0.1034 -0.1497
   35MOL   H127 6995   6.847   6.046   2.352 -0.1749  0.0921  0.8545
   35MOL   H128 6996   6.677   6.082   2.354  0.8247  0.7706 -0.6870
   35MOL   H129 6997   6.695   5.896   2.224 -0.3632 -0.4923 -0.3167
   35MOL   H130 6998   6.491   5.913   2.207 -1.5394  0.3241 -0.1558
   35MOL   H131 6999   6.400   5.792   2.294  1.3029 -1.3349 -0.5740
   35MOL   C132 7000   6.823   5.773   2.329 -0.3246 -0.3463 -0.1263
   35MOL   C133 7001   6.820   5.666   2.214 -0.3745 -0.9413 -0.5113
   35MOL   C134 7002   6.687   5.588   2.191  0.0412 -0.1513 -0.7710
   35MOL   O135 7003   6.649   5.503   2.270  0.5197  0.4838 -0.0734
   35MOL   N136 7004   6.621   5.618   2.084  0.2335  0.4195  0.1968
   35MOL   H137 7005   6.828   5.725   2.426 -1.1774 -1.2752 -0.5247
   35MOL   H138 7006   6.924   5.812   2.323 -0.1154 -0.8449  0.1308
   35MOL   H139 7007   6.854   5.724   2.128  0.7750  1.4481  1.5269
   35MOL   H140 7008   6.652   5.688   2.019 -0.4296  0.7777  0.2697
   35MOL   H141 7009   6.540   5.561   2.063 -0.1790  0.1734  2.3370
   35MOL   C142 7010   6.934   5.564   2.252 -0.5132 -0.9780 -0.6307
   35MOL   C143 7011   6.982   5.446   2.153 -0.2484 -0.2615 -0.1898
   35MOL   C144 7012   6.953   5.305   2.213 -0.0448  0.0103  0.1234
   35MOL   O145 7013   6.999   5.285   2.323 -0.0392  0.3006 -0.2234
   35MOL   N146 7014   6.893   5.220   2.127  0.0281  0.6291 -0.4007
   35MOL   H147 7015   6.910   5.526   2.351  0.9177  0.9828  0.4968
   35MOL   H148 7016   7.023   5.620   2.281 -2.3581  1.3625  0.6325
   35MOL   H149 7017   6.908   5.465   2.076  0.5907  1.2965 -0.6482
   35MOL   H150 7018   6.884   5.125   2.160 -0.0653  0.3466 -1.2195
   35MOL   H151 7019   6.868   5.240   2.031  0.3572 -1.8173 -1.0228
   35MOL   C152 7020   7.129   5.452   2.100  0.4368 -0.4265 -0.1552
   35MOL   C153 7021   7.136   5.440   1.945  0.4731  0.1291 -0.4190
   35MOL   C154 7022   7.270   5.386   1.901  0.2802 -0.2696  0.5678
   35MOL   O155 7023   7.356   5.465   1.893 -0.0932 -0.0619  0.6852
   35MOL   N156 7024   7.294   5.254   1.874  0.6577 -0.0544  0.1050
   35MOL   H157 7025   7.191   5.377   2.149 -1.7589 -1.2852  1.4153
   35MOL   H158 7026   7.168   5.550   2.128 -1.3394  0.3974 -0.5242
   35MOL   H159 7027   7.067   5.366   1.905  0.3382 -0.3347  0.6513
   35MOL   H160 7028   7.389   5.240   1.841  0.2319 -1.6466 -0.5168
   35MOL   H161 7029   7.227   5.179   1.866  0.6411  0.1022 -1.4146
   35MOL   C162 7030   7.095   5.573   1.876 -0.3003 -0.1430 -0.6414
   35MOL   C163 7031   7.101   5.568   1.723 -0.3119  0.2186 -0.1467
   35MOL   C164 7032   7.043   5.700   1.671  0.3786 -0.2108 -0.0456
   35MOL   O165 7033   6.927   5.727   1.698 -0.0995  0.0839  0.6024
   35MOL   N166 7034   7.119   5.794   1.612 -0.4186 -0.1718  0.2398
   35MOL   H167 7035   7.162   5.655   1.903 -1.7293  1.5727 -2.0993
   35MOL   H168 7036   7.004   5.611   1.922  1.0243  1.6897  0.5672
   35MOL   H169 7037   7.208   5.555   1.710 -0.3782  0.3992 -0.8829
   35MOL   H170 7038   7.218   5.780   1.602 -0.3725  1.6122 -2.1559
   35MOL   H171 7039   7.077   5.875   1.569 -3.4335 -1.3329  0.8458
   35MOL   C172 7040   7.029   5.445   1.659  0.9945 -0.5972 -0.3208
   35MOL   C173 7041   7.021   5.447   1.509  0.2002  0.2037 -0.4171
   35MOL   C174 7042   6.932   5.333   1.457 -1.1767  0.0630 -0.2512
   35MOL   O175 7043   6.939   5.219   1.505 -0.3733  0.5076  0.4686
   35MOL   N176 7044   6.862   5.352   1.347  0.0713 -0.4657 -0.4620
   35MOL   H177 7045   6.929   5.448   1.702  1.0614 -2.7088 -0.0122
   35MOL   H178 7046   7.070   5.352   1.697 -0.1732 -0.9805 -0.0021
   35MOL   H179 7047   6.973   5.541   1.483  1.7492  1.0354 -0.2929
   35MOL   H180 7048   6.853   5.446   1.311 -2.9776 -0.0759  1.1300
   35MOL   H181 7049   6.818   5.280   1.292  0.3375 -1.1113  0.1512
   35MOL   C182 7050   7.153   5.456   1.425  0.4578 -0.5143  0.1759
   35MOL   C183 7051   7.229   5.331   1.372 -0.3951  0.2184 -0.5778
   35MOL   C184 7052   7.287   5.244   1.482  0.0729  0.0903  0.0325
   35MOL   O185 7053   7.403   5.250   1.513 -0.3982  0.3029 -0.3031
   35MOL   N186 7054   7.208   5.167   1.555 -0.4550  0.5903 -0.0629
   35MOL   H187 7055   7.223   5.527   1.470  1.1856 -1.0363 -0.1169
   35MOL   H188 7056   7.120   5.512   1.337  1.6281  0.7913  0.5478
   35MOL   H189 7057   7.158   5.270   1.316  0.9702  0.5160 -2.6982
   35MOL   H190 7058   7.111   5.166   1.526 -0.2971  1.9823 -0.6466
   35MOL   H191 7059   7.243   5.108   1.629 -3.5012 -0.4392  0.6359
   35MOL   C192 7060   7.342   5.377   1.272 -0.2050 -0.7768  0.0709
   35MOL   C193 7061   7.306   5.476   1.153 -0.2871 -0.7057  0.6294
   35MOL   C194 7062   7.198   5.423   1.063  0.4371 -0.2341  0.0281
   35MOL   O195 7063   7.223   5.325   0.998 -0.0315  0.1798 -0.1319
   35MOL   N196 7064   7.084   5.495   1.046 -0.4528 -0.3382  0.4374
   35MOL   H197 7065   7.379   5.287   1.223  2.0766  1.2044 -1.9459
   35MOL   H198 7066   7.425   5.426   1.324  0.1056 -0.3763 -0.7999
   35MOL   H199 7067   7.266   5.571   1.189  0.8294 -1.7157  4.7657
   35MOL   H200 7068   7.053   5.560   1.117 -0.8391  1.2260 -1.1434
   35MOL   H201 7069   7.021   5.466   0.972  1.1039 -1.7659 -0.3604
   35MOL   H202 7070   7.399   5.486   1.096 -1.1980  1.9879 -0.4806
   36MOL     C1 7071   5.883   5.365   7.407 -0.3711  0.1530  0.4975
   36MOL     C2 7072   5.840   5.343   7.262 -0.5534  0.2142 -0.4436
   36MOL     C3 7073   5.711   5.259   7.263  0.3971  0.1676  0.1175
   36MOL     O4 7074   5.713   5.139   7.286  0.6497  0.4584 -0.2606
   36MOL     N5 7075   5.600   5.332   7.241 -0.6187 -0.4056  0.3796
   36MOL     H6 7076   5.796   5.396   7.465  0.0924 -0.6619  1.6540
   36MOL     H7 7077   5.918   5.270   7.449 -1.3255 -0.5094 -0.1849
   36MOL     H8 7078   5.823   5.438   7.213  1.5220  1.4119  1.0826
   36MOL     H9 7079   5.509   5.289   7.249 -0.3050 -0.9934  0.8837
   36MOL    H10 7080   5.615   5.431   7.229  0.1813 -0.4479  0.9706
   36MOL    H11 7081   5.962   5.437   7.427 -0.2632  0.3192 -0.5278
   36MOL    C12 7082   5.947   5.261   7.181  0.1932 -0.3519  0.1346
   36MOL    C13 7083   5.945   5.240   7.030 -0.2161  0.9915  0.7462
   36MOL    C14 7084   5.927   5.379   6.967 -0.0547  0.0715 -0.1547
   36MOL    O15 7085   5.817   5.432   6.957  0.3118  0.4262 -0.3735
   36MOL    N16 7086   6.030   5.437   6.917  0.9113 -0.0000 -0.4594
   36MOL    H17 7087   5.967   5.168   7.234  3.0035  0.1344 -0.0146
   36MOL    H18 7088   6.042   5.315   7.180 -1.1956  2.2296 -1.5518
   36MOL    H19 7089   6.043   5.202   7.002  0.8532  1.4882  3.6074
   36MOL    H20 7090   6.017   5.529   6.876 -1.6405 -0.2408 -0.2653
   36MOL    H21 7091   6.124   5.400   6.915  1.9074  2.4402 -2.7605
   36MOL    C22 7092   5.841   5.137   6.973  0.5909 -0.1510 -0.2982
   36MOL    C23 7093   5.840   4.990   7.037 -0.2320 -0.0884  0.3240
   36MOL    C24 7094   5.981   4.921   7.007  0.0321  0.1002  0.3102
   36MOL    O25 7095   5.997   4.865   6.902 -0.3193  0.5069  0.3760
   36MOL    N26 7096   6.068   4.926   7.106 -0.3337 -0.3432  0.3277
   36MOL    H27 7097   5.864   5.137   6.866  0.7676  2.3538 -0.2841
   36MOL    H28 7098   5.743   5.185   6.973  1.3825  1.4998 -0.2356
   36MOL    H29 7099   5.830   4.999   7.145  1.1579  0.6387  0.4173
   36MOL    H30 7100   6.155   4.887   7.075 -0.8584 -1.6560  0.5034
   36MOL    H31 7101   6.048   4.960   7.199 -1.0662  2.4609 -0.7771
   36MOL    C32 7102   5.729   4.903   6.983  0.8851 -0.2893 -0.8807
   36MOL    C33 7103   5.594   4.928   7.051 -0.3698 -0.1336  0.5910
   36MOL    C34 7104   5.589   4.838   7.175  0.0880 -0.1798 -0.0240
   36MOL    O35 7105   5.530   4.731   7.173 -0.2280 -0.1171 -0.0746
   36MOL    N36 7106   5.640   4.884   7.289 -0.1272  0.6563  0.4456
   36MOL    H37 7107   5.763   4.803   6.958  1.0300 -0.6560  0.7041
   36MOL    H38 7108   5.716   4.935   6.880 -0.5237 -0.3096 -0.7120
   36MOL    H39 7109   5.606   5.031   7.086 -1.4746 -0.1447  1.0059
   36MOL    H40 7110   5.638   4.829   7.374  0.4467  0.8816  0.6143
   36MOL    H41 7111   5.684   4.975   7.277  0.8491 -0.2118 -3.3243
   36MOL    C42 7112   5.466   4.910   6.959  0.2536  0.0439 -0.2215
   36MOL    C43 7113   5.359   5.018   6.976 -0.1850  0.4737 -0.8124
   36MOL    C44 7114   5.408   5.146   6.898 -0.1925  0.6737  0.2535
   36MOL    O45 7115   5.508   5.219   6.918  0.1496  0.3390 -0.0284
   36MOL    N46 7116   5.348   5.172   6.784 -0.2172 -0.2501 -0.4934
   36MOL    H47 7117   5.416   4.813   6.965 -0.8523  0.5269 -1.4158
   36MOL    H48 7118   5.494   4.923   6.855 -1.6310  1.0501 -0.6046
   36MOL    H49 7119   5.272   4.984   6.920  0.8964 -2.1824 -0.9330
   36MOL    H50 7120   5.266   5.127   6.747  0.1701 -0.8351 -0.6582
   36MOL    H51 7121   5.361   5.268   6.757  2.0465 -0.4720 -0.3162
   36MOL    C52 7122   5.305   5.040   7.118 -0.1017 -0.7353  0.6203
   36MOL    C53 7123   5.187   5.133   7.144 -1.0205  0.1609 -0.7189
   36MOL    C54 7124   5.219   5.293   7.122 -0.0472 -0.2336 -0.8930
   36MOL    O55 7125   5.312   5.338   7.184 -0.0127  0.0541  0.0166
   36MOL    N56 7126   5.142   5.368   7.044  0.3929 -0.2597 -0.3228
   36MOL    H57 7127   5.392   5.070   7.176 -0.1746 -0.9159  0.8273
   36MOL    H58 7128   5.274   4.941   7.153 -2.6150  0.3036  1.4217
   36MOL    H59 7129   5.108   5.101   7.076  0.6282  0.8074 -2.9902
   36MOL    H60 7130   5.150   5.468   7.039  0.9993 -0.2798  0.1436
   36MOL    H61 7131   5.065   5.324   6.995 -2.2468  2.0030  1.6303
   36MOL    C62 7132   5.138   5.104   7.290 -0.1096  0.0897 -0.4606
   36MOL    C63 7133   5.010   5.179   7.328 -0.1891  0.4594 -0.2708
   36MOL    C64 7134   5.006   5.248   7.465  0.1270  0.3218 -0.1764
   36MOL    O65 7135   5.043   5.183   7.567  0.1051  0.1262 -0.3056
   36MOL    N66 7136   4.953   5.368   7.475  0.2601  0.4995 -0.5328
   36MOL    H67 7137   5.218   5.132   7.359 -1.3045 -2.8215  2.2242
   36MOL    H68 7138   5.131   4.997   7.309  0.1616  0.0786 -0.4294
   36MOL    H69 7139   5.007   5.269   7.266  0.0625 -0.2125 -1.2596
   36MOL    H70 7140   4.937   5.400   7.569 -0.1030 -0.0228 -0.4161
   36MOL    H71 7141   4.950   5.422   7.389  0.0721  0.3000 -0.6516
   36MOL    C72 7142   4.889   5.096   7.314  0.1575  0.4410  0.2255
   36MOL    C73 7143   4.748   5.155   7.301  0.6449  0.2393  0.0847
   36MOL    C74 7144   4.642   5.045   7.303 -0.3902 -0.4067  1.1948
   36MOL    O75 7145   4.669   4.926   7.291  1.0896  0.1664  0.4550
   36MOL    N76 7146   4.519   5.099   7.320  0.5487 -0.4206 -0.0860
   36MOL    H77 7147   4.887   5.032   7.402 -1.1408  0.7061  0.3955
   36MOL    H78 7148   4.895   5.029   7.228  0.1904  1.8676 -0.8811
   36MOL    H79 7149   4.720   5.210   7.390 -0.6350  2.1870 -1.4631
   36MOL    H80 7150   4.450   5.035   7.357  0.8767 -0.9078 -0.3204
   36MOL    H81 7151   4.505   5.197   7.343  1.3829 -0.3831  0.2781
   36MOL    C82 7152   4.733   5.242   7.171 -0.8354 -0.1482  0.6655
   36MOL    C83 7153   4.726   5.152   7.036  0.5278 -0.2765  0.3648
   36MOL    C84 7154   4.851   5.182   6.951 -0.2869 -0.2882  0.0529
   36MOL    O85 7155   4.895   5.297   6.928 -0.2648 -0.3103  0.5735
   36MOL    N86 7156   4.915   5.081   6.891 -0.2279 -0.7927 -0.6350
   36MOL    H87 7157   4.812   5.317   7.173 -2.0521  1.1776  0.6289
   36MOL    H88 7158   4.645   5.306   7.178 -1.0702 -0.3001 -0.7522
   36MOL    H89 7159   4.736   5.045   7.056 -2.2622 -0.5435  0.5525
   36MOL    H90 7160   4.873   4.989   6.881 -1.8685 -0.2344  0.8395
   36MOL    H91 7161   4.983   5.099   6.819  1.9478  0.9531  1.7702
   36MOL    C92 7162   4.596   5.190   6.951 -0.2535 -0.0498 -0.3006
   36MOL    C93 7163   4.585   5.111   6.822  0.2536  0.2539  0.1158
   36MOL    C94 7164   4.528   5.192   6.702 -0.4459 -0.9419 -0.4473
   36MOL    O95 7165   4.418   5.250   6.703 -0.1601  0.0922 -0.3038
   36MOL    N96 7166   4.600   5.188   6.587  0.2688 -0.7334  0.6299
   36MOL    H97 7167   4.595   5.297   6.930 -3.8464  0.1821  0.7378
   36MOL    H98 7168   4.509   5.182   7.016 -0.3329 -0.8967 -0.5162
   36MOL    H99 7169   4.677   5.079   6.773  0.0193 -0.0055 -0.1527
   36MOL   H100 7170   4.675   5.121   6.584  1.2482  0.1562  3.2186
   36MOL   H101 7171   4.551   5.217   6.504 -0.0337 -1.5031  0.5364
   36MOL   C102 7172   4.489   4.988   6.851 -0.4346 -0.2704  0.3116
   36MOL   C103 7173   4.560   4.857   6.902  1.0077  0.0381  0.0139
   36MOL   C104 7174   4.676   4.821   6.806  0.4345  0.1395  0.8391
   36MOL   O105 7175   4.661   4.805   6.684 -0.4366 -0.5717 -0.0510
   36MOL   N106 7176   4.793   4.804   6.859 -0.6574 -0.1178 -0.3275
   36MOL   H107 7177   4.444   4.973   6.753 -0.7341 -0.7056  0.5138
   36MOL   H108 7178   4.411   5.012   6.923  0.3158 -1.1035  1.4148
   36MOL   H109 7179   4.602   4.878   7.000  2.5231  0.4136 -0.7031
   36MOL   H110 7180   4.875   4.780   6.805 -1.7936 -1.1554 -1.6165
   36MOL   H111 7181   4.804   4.786   6.958  1.5159 -1.0242 -0.7050
   36MOL   C112 7182   4.469   4.729   6.913  0.3115 -0.2666 -0.1388
   36MOL   C113 7183   4.527   4.625   7.010  0.3608  0.6446 -0.7597
   36MOL   C114 7184   4.595   4.512   6.929 -0.4439 -0.1858 -0.2943
   36MOL   O115 7185   4.531   4.456   6.845  0.4036 -0.1585  0.2481
   36MOL   N116 7186   4.719   4.474   6.963 -0.5867 -0.0293  0.0477
   36MOL   H117 7187   4.440   4.695   6.814  3.6773 -0.1241 -1.2282
   36MOL   H118 7188   4.375   4.766   6.954  1.5952 -2.7796  5.5799
   36MOL   H119 7189   4.602   4.666   7.076 -0.4396 -1.0153  1.2430
   36MOL   H120 7190   4.762   4.396   6.915 -0.2565  1.5481 -2.2682
   36MOL   H121 7191   4.768   4.511   7.043  1.2384 -0.7540 -0.7072
   36MOL   C122 7192   4.419   4.562   7.096  0.4983  0.1875 -0.1650
   36MOL   C123 7193   4.489   4.511   7.228 -0.2640 -0.2782  0.3297
   36MOL   C124 7194   4.497   4.357   7.229 -0.4142  0.2569  0.5560
   36MOL   O125 7195   4.399   4.286   7.200  0.2546  0.2553 -0.1551
   36MOL   N126 7196   4.618   4.303   7.251  0.1406 -0.1104 -0.6116
   36MOL   H127 7197   4.365   4.486   7.039 -2.3005  1.3724  0.8083
   36MOL   H128 7198   4.334   4.626   7.121 -1.0970 -1.6486 -0.7644
   36MOL   H129 7199   4.590   4.546   7.250 -0.4858  0.4709  0.1609
   36MOL   H130 7200   4.696   4.361   7.277 -0.3278  0.2504  0.0388
   36MOL   H131 7201   4.624   4.203   7.248 -1.8694 -0.4014  2.5590
   36MOL   C132 7202   4.397   4.551   7.351  0.0572 -0.3839  0.0452
   36MOL   C133 7203   4.448   4.506   7.490 -0.2014 -0.2301 -0.2262
   36MOL   C134 7204   4.410   4.363   7.521  0.2577 -0.7149  0.0400
   36MOL   O135 7205   4.297   4.325   7.505 -0.3226 -0.1875 -0.4476
   36MOL   N136 7206   4.509   4.278   7.554 -0.2663 -0.3404  0.1980
   36MOL   H137 7207   4.301   4.502   7.330 -0.2922  0.7388 -1.0584
   36MOL   H138 7208   4.371   4.655   7.335 -0.7896 -0.5533  0.2902
   36MOL   H139 7209   4.557   4.506   7.489 -0.1924 -0.0274  0.4490
   36MOL   H140 7210   4.479   4.182   7.567 -0.0827 -0.4276 -0.0285
   36MOL   H141 7211   4.605   4.301   7.537 -0.5179  0.2065 -0.5153
   36MOL   C142 7212   4.400   4.604   7.600 -0.8965  0.2410  0.2988
   36MOL   C143 7213   4.459   4.752   7.596  0.4319 -0.5549  0.5317
   36MOL   C144 7214   4.604   4.743   7.637 -0.0518  0.1985  0.0205
   36MOL   O145 7215   4.630   4.715   0.099 -0.7434 -0.2891  0.4084
   36MOL   N146 7216   4.696   4.752   7.542 -0.2817  0.0157 -0.4680
   36MOL   H147 7217   4.424   4.566   0.042  0.2084 -0.4495 -0.2249
   36MOL   H148 7218   4.292   4.603   7.585 -0.7708 -1.6071 -0.6469
   36MOL   H149 7219   4.445   4.793   7.496  1.7234  1.1404  1.0218
   36MOL   H150 7220   4.792   4.765   7.570  0.1995  0.5844 -2.3543
   36MOL   H151 7221   4.664   4.782   7.451 -0.9247 -1.2306 -0.6632
   36MOL   C152 7222   4.371   4.848   0.018 -0.6948 -0.5534 -0.0430
   36MOL   C153 7223   4.225   4.884   7.634  0.4780  0.6007 -0.1971
   36MOL   C154 7224   4.203   4.879   7.480 -0.7078 -0.1199  0.0455
   36MOL   O155 7225   4.254   4.963   7.410  0.7059  0.0164 -0.6590
   36MOL   N156 7226   4.131   4.782   7.431 -0.1239  0.9515 -0.3078
   36MOL   H157 7227   4.433   4.936   0.030  1.0041 -1.9312  1.7138
   36MOL   H158 7228   4.381   4.820   0.123  2.3944 -0.3631 -0.2546
   36MOL   H159 7229   4.159   4.807   0.016  2.0274 -0.0099  1.2186
   36MOL   H160 7230   4.095   4.786   7.337  2.0650  0.0673 -1.2202
   36MOL   H161 7231   4.089   4.716   7.494 -1.5793  0.0252 -2.1970
   36MOL   C162 7232   4.168   5.019   0.039  0.0604 -0.0483  0.1465
   36MOL   C163 7233   4.056   5.102   7.614 -0.0174  0.8013 -0.7457
   36MOL   C164 7234   4.105   5.240   7.557 -0.3162  0.1043  0.2641
   36MOL   O165 7235   4.029   5.331   7.532  0.1533 -0.2397 -0.0020
   36MOL   N166 7236   4.235   5.253   7.531 -0.2152 -0.6355 -0.1037
   36MOL   H167 7237   4.255   5.085   0.051  0.0885 -0.1004  0.2245
   36MOL   H168 7238   4.137   5.014   0.143  0.6597  0.9708  0.3818
   36MOL   H169 7239   4.028   5.042   7.526  1.3263  0.1001 -0.7146
   36MOL   H170 7240   4.272   5.344   7.505  1.1947 -1.5740 -1.4788
   36MOL   H171 7241   4.297   5.175   7.547 -0.2419 -1.0563 -1.9048
   36MOL   C172 7242   3.927   5.113   0.043 -0.2036 -0.1534  0.6799
   36MOL   C173 7243   3.857   4.978   0.079  0.1417  0.7656  0.0138
   36MOL   C174 7244   3.813   4.910   7.607 -0.2446  0.6658 -0.3380
   36MOL   O175 7245   3.755   4.974   7.518  0.1202  0.5540  0.2859
   36MOL   N176 7246   3.855   4.786   7.573  0.2734  0.1466 -0.6077
   36MOL   H177 7247   3.866   5.189   7.651 -0.4102  0.1899  1.4655
   36MOL   H178 7248   3.960   5.164   0.133 -1.0930 -0.6239  1.2845
   36MOL   H179 7249   3.926   4.915   0.136  0.7737  1.6547  0.2453
   36MOL   H180 7250   3.848   4.753   7.478  1.8406  0.2277 -0.7760
   36MOL   H181 7251   3.911   4.739   7.643 -1.3000 -0.5067  0.2300
   36MOL   C182 7252   3.735   4.997   0.175  0.9477 -0.5263  0.2456
   36MOL   C183 7253   3.609   5.068   0.117 -0.3895 -0.1717 -0.3640
   36MOL   C184 7254   3.629   5.214   0.102  0.3032  0.2199  0.1845
   36MOL   O185 7255   3.691   5.275   0.185  0.3156  0.1330  0.0650
   36MOL   N186 7256   3.583   5.273   7.651 -0.3615  0.5408 -0.4306
   36MOL   H187 7257   3.770   5.040   0.269 -0.1790  0.9821  0.0097
   36MOL   H188 7258   3.696   4.897   0.196 -0.9663  0.0533 -0.4374
   36MOL   H189 7259   3.582   5.022   0.022  2.0238 -0.5078 -0.9193
   36MOL   H190 7260   3.596   5.373   7.647  0.1727  0.4976  0.1147
   36MOL   H191 7261   3.528   5.218   7.587 -0.7812 -1.4726  1.5606
   36MOL   C192 7262   3.477   5.032   0.188 -0.0563  0.4948 -0.2852
   36MOL   C193 7263   3.385   4.927   0.127 -0.2345 -0.1135 -0.0358
   36MOL   C194 7264   3.453   4.786   0.123  0.6524 -0.5495  0.5069
   36MOL   O195 7265   3.456   4.715   0.227 -0.0120  0.2824 -0.8148
   36MOL   N196 7266   3.506   4.746   0.008 -0.3821  0.0342 -0.0477
   36MOL   H197 7267   3.408   5.117   0.190 -1.0372 -0.3092  0.2539
   36MOL   H198 7268   3.511   5.009   0.289 -0.2370 -1.8402 -0.7316
   36MOL   H199 7269   3.287   4.930   0.173 -0.5003  1.2106 -0.6608
   36MOL   H200 7270   3.532   4.649   0.013  0.8784  0.4417  2.7174
   36MOL   H201 7271   3.500   4.792   7.575 -0.3476  0.2885  0.0784
   36MOL   H202 7272   3.363   4.958   0.024 -1.3612 -0.0683  0.2146
   37MOL     C1 7273   1.449   0.465   5.869 -0.3453 -0.2090 -0.2525
   37MOL     C2 7274   1.429   0.500   5.724 -0.3703 -0.5681 -0.4635
   37MOL     C3 7275   1.299   0.580   5.711 -0.3942  0.8164 -0.5773
   37MOL     O4 7276   1.197   0.550   5.767  0.1813 -0.1970  0.5502
   37MOL     N5 7277   1.308   0.679   5.625  0.0676 -0.2343  0.1107
   37MOL     H6 7278   1.461   0.557   5.927 -2.9538 -0.8221  1.3401
   37MOL     H7 7279   1.370   0.408   5.917  0.7462 -1.3396  0.2406
   37MOL     H8 7280   1.510   0.566   5.694  0.9597 -1.5102  1.0044
   37MOL     H9 7281   1.232   0.745   5.637 -0.1572 -0.2277 -1.2645
   37MOL    H10 7282   1.396   0.706   5.585 -0.6163 -0.4173 -1.5837
   37MOL    H11 7283   1.548   0.420   5.884 -0.5398 -0.7501 -0.6093
   37MOL    C12 7284   1.438   0.375   5.624 -0.8220 -0.7893  0.0740
   37MOL    C13 7285   1.406   0.400   5.477 -0.2709  0.6208  0.7741
   37MOL    C14 7286   1.284   0.310   5.437  0.4845 -0.6450  0.5783
   37MOL    O15 7287   1.281   0.190   5.436 -0.1550 -0.3882 -0.1736
   37MOL    N16 7288   1.178   0.382   5.408  0.3828  0.2706 -0.9058
   37MOL    H17 7289   1.378   0.290   5.657 -2.6093  1.5692  3.1448
   37MOL    H18 7290   1.539   0.337   5.633 -0.6993  0.0082  2.4101
   37MOL    H19 7291   1.370   0.501   5.459 -0.3908  0.4469  0.0050
   37MOL    H20 7292   1.204   0.479   5.399  0.6663  0.1661 -1.2064
   37MOL    H21 7293   1.087   0.340   5.394  0.8021 -1.6872  1.8351
   37MOL    C22 7294   1.529   0.385   5.385  0.1607 -0.1631 -0.1157
   37MOL    C23 7295   1.659   0.465   5.415  0.0288 -0.6186 -0.1331
   37MOL    C24 7296   1.639   0.605   5.465 -0.0137  0.2808 -0.0601
   37MOL    O25 7297   1.537   0.672   5.447 -0.2222  0.1777  0.5288
   37MOL    N26 7298   1.730   0.643   5.553 -0.0012 -0.4370 -0.3808
   37MOL    H27 7299   1.495   0.414   5.286  0.5784  0.5835 -0.0396
   37MOL    H28 7300   1.549   0.278   5.378 -0.9817 -0.3969 -0.0067
   37MOL    H29 7301   1.699   0.412   5.502 -0.0495  0.7892  0.7732
   37MOL    H30 7302   1.813   0.586   5.559  0.3819  0.1765  0.2275
   37MOL    H31 7303   1.742   0.727   5.608 -2.8866 -0.4118  0.2602
   37MOL    C32 7304   1.760   0.456   5.306  0.2819  0.0159  0.4899
   37MOL    C33 7305   1.915   0.463   5.333 -0.6117  0.2892  0.7541
   37MOL    C34 7306   1.961   0.610   5.338 -0.1681  0.1592 -0.2988
   37MOL    O35 7307   1.961   0.683   5.240  0.1062  0.4631 -0.3982
   37MOL    N36 7308   2.008   0.646   5.457  0.3800  0.2099  0.5510
   37MOL    H37 7309   1.739   0.538   5.236 -1.0695  0.1811  1.0734
   37MOL    H38 7310   1.734   0.374   5.240 -0.0468  1.7093 -1.5378
   37MOL    H39 7311   1.940   0.416   5.428  0.3827 -0.8018 -0.0308
   37MOL    H40 7312   2.032   0.580   5.529  1.1024  0.2851  0.3855
   37MOL    H41 7313   2.042   0.741   5.465  0.8993  0.1871 -1.0774
   37MOL    C42 7314   1.992   0.382   5.225  0.5784  0.3896 -0.1540
   37MOL    C43 7315   2.000   0.230   5.244  0.0737  0.4111 -0.3460
   37MOL    C44 7316   2.090   0.206   5.369 -0.2948 -0.1314 -0.2786
   37MOL    O45 7317   2.211   0.230   5.368  0.4870  0.9928 -0.3998
   37MOL    N46 7318   2.022   0.175   5.481  0.3126 -0.4253 -0.6168
   37MOL    H47 7319   2.098   0.407   5.224  0.4537  0.9866  0.6466
   37MOL    H48 7320   1.937   0.414   5.137 -2.0952  0.7031  1.5504
   37MOL    H49 7321   1.902   0.190   5.267  1.0178 -2.1707 -0.6343
   37MOL    H50 7322   2.080   0.187   5.563  1.2781  1.4790 -1.5432
   37MOL    H51 7323   1.925   0.146   5.478  0.1952 -0.0457 -0.5265
   37MOL    C52 7324   2.060   0.150   5.127 -0.7829  0.1991  0.1043
   37MOL    C53 7325   1.974   0.029   5.093 -0.4645 -0.7373  0.5613
   37MOL    C54 7326   1.975   7.588   5.206 -0.0875 -0.5058 -0.0366
   37MOL    O55 7327   2.080   7.560   5.258  0.0564  0.7711 -0.0049
   37MOL    N56 7328   1.856   7.538   5.238  0.5952  0.0022 -0.3573
   37MOL    H57 7329   2.165   0.130   5.145 -0.8597 -1.5332 -1.3370
   37MOL    H58 7330   2.052   0.214   5.039 -0.5818  3.5623  2.4094
   37MOL    H59 7331   1.871   0.062   5.084 -0.5259 -0.5239  1.8711
   37MOL    H60 7332   1.847   7.477   5.319  0.2575 -2.6430 -2.3159
   37MOL    H61 7333   1.768   7.559   5.194 -0.2123  2.0065  2.0885
   37MOL    C62 7334   1.998   7.626   4.950  0.2284  0.5449 -0.2738
   37MOL    C63 7335   2.108   7.514   4.931 -0.1774  0.0958  0.4004
   37MOL    C64 7336   2.242   7.574   4.964  0.5316  0.4667 -0.4480
   37MOL    O65 7337   2.288   7.656   4.887  0.3224  0.0537  0.1686
   37MOL    N66 7338   2.303   7.538   5.071 -0.2069 -0.5794 -0.5379
   37MOL    H67 7339   2.030   0.045   4.878  0.6743  0.7809  0.1702
   37MOL    H68 7340   1.902   7.598   4.907 -0.1844  0.9384  0.3869
   37MOL    H69 7341   2.091   7.442   5.011 -0.1324 -0.6560 -0.2602
   37MOL    H70 7342   2.394   7.577   5.086  0.1751 -1.3101 -0.9115
   37MOL    H71 7343   2.249   7.483   5.136 -0.8186  1.3103  0.5795
   37MOL    C72 7344   2.115   7.464   4.787  0.0687 -0.1053  0.3001
   37MOL    C73 7345   2.039   7.333   4.752  0.7426  0.9368 -0.7128
   37MOL    C74 7346   1.892   7.357   4.738  0.5700  0.1528 -0.6414
   37MOL    O75 7347   1.850   7.453   4.673  0.6675 -0.4946 -0.7607
   37MOL    N76 7348   1.807   7.275   4.802  0.6434 -0.4155  0.0314
   37MOL    H77 7349   2.216   7.439   4.754 -1.1326 -2.7486 -1.5297
   37MOL    H78 7350   2.103   7.549   4.719  1.0848  1.9154  2.5237
   37MOL    H79 7351   2.071   7.308   4.651 -0.3982 -0.1624 -0.8154
   37MOL    H80 7352   1.839   7.183   4.830 -0.0293 -0.9954 -1.0390
   37MOL    H81 7353   1.709   7.298   4.806  0.8709  0.6875 -0.6149
   37MOL    C82 7354   2.073   7.209   4.838  0.2790  0.5205  0.1902
   37MOL    C83 7355   2.214   7.135   4.821  0.6073 -0.4313 -0.7504
   37MOL    C84 7356   2.198   6.988   4.861  0.4621 -0.4139 -0.6969
   37MOL    O85 7357   2.122   6.918   4.797  0.3282 -0.2109  0.0039
   37MOL    N86 7358   2.271   6.931   4.955  0.2157  0.2923 -0.6922
   37MOL    H87 7359   2.004   7.127   4.817 -0.2287  0.5338  1.7517
   37MOL    H88 7360   2.054   7.238   4.941 -0.0122 -0.9114  0.5494
   37MOL    H89 7361   2.237   7.140   4.715  1.2796  0.2499 -0.5781
   37MOL    H90 7362   2.336   6.983   5.013 -0.7265  0.8814 -0.1457
   37MOL    H91 7363   2.260   6.831   4.958 -0.4070  0.3683 -0.2292
   37MOL    C92 7364   2.332   7.216   4.887  0.1672  0.3297  0.7569
   37MOL    C93 7365   2.461   7.195   4.796  0.1371 -0.4991 -0.0783
   37MOL    C94 7366   2.527   7.059   4.823  0.9952  0.0664 -0.2036
   37MOL    O95 7367   2.575   7.022   4.929 -0.6273  0.4883 -0.4004
   37MOL    N96 7368   2.541   6.980   4.722 -0.6870 -0.0028 -0.2231
   37MOL    H97 7369   2.350   7.171   4.986  2.4902  1.2031  0.7734
   37MOL    H98 7370   2.322   7.323   4.903  0.3538  0.4766 -0.0839
   37MOL    H99 7371   2.435   7.201   4.690 -0.6813 -1.2878  0.0737
   37MOL   H100 7372   2.494   7.002   4.635  0.5755  2.1601 -0.4083
   37MOL   H101 7373   2.619   6.916   4.728 -1.4404 -0.8156  0.9710
   37MOL   C102 7374   2.561   7.307   4.831  0.2878 -0.4114  0.8557
   37MOL   C103 7375   2.660   7.343   4.724 -0.2434 -0.4168 -0.2978
   37MOL   C104 7376   2.781   7.249   4.727 -0.1195 -0.1107  0.3483
   37MOL   O105 7377   2.840   7.239   4.833 -0.3176  0.6981  0.8181
   37MOL   N106 7378   2.809   7.184   4.615 -0.4942 -0.3521  0.2628
   37MOL   H107 7379   2.605   7.296   4.930 -0.6385 -1.7582  1.1226
   37MOL   H108 7380   2.500   7.397   4.843  0.8406  0.2495 -0.9955
   37MOL   H109 7381   2.612   7.351   4.626  2.0119 -0.0313 -1.4087
   37MOL   H110 7382   2.776   7.217   4.525  0.7594  1.2309  0.3688
   37MOL   H111 7383   2.870   7.105   4.625 -0.2803 -0.0422  1.3960
   37MOL   C112 7384   2.729   7.487   4.748  0.3388  0.1068  0.1691
   37MOL   C113 7385   2.635   7.608   4.761  0.3699 -0.2731  0.4544
   37MOL   C114 7386   2.544   7.632   4.642  0.5332  0.2677  0.4240
   37MOL   O115 7387   2.581   0.029   4.539  0.3320 -0.2717  0.0697
   37MOL   N116 7388   2.419   7.618   4.654  0.2668  0.0728  0.6497
   37MOL   H117 7389   2.798   7.497   4.664 -1.7084 -3.6141 -2.1026
   37MOL   H118 7390   2.790   7.486   4.839  0.1444 -1.9380  0.3154
   37MOL   H119 7391   2.579   7.579   4.850 -0.6276  1.1982  0.3382
   37MOL   H120 7392   2.370   7.605   4.741 -1.7930 -0.7925 -0.5793
   37MOL   H121 7393   2.368   0.016   4.585  2.7792 -0.6698 -1.8924
   37MOL   C122 7394   2.714   0.084   4.798  1.1631  0.0733 -0.2993
   37MOL   C123 7395   2.725   0.110   4.948  0.4275 -0.0553 -0.4282
   37MOL   C124 7396   2.584   0.122   5.004  0.6411 -0.6499 -0.3043
   37MOL   O125 7397   2.550   0.052   5.101  0.1816  0.0964 -0.2014
   37MOL   N126 7398   2.501   0.212   4.957  0.1552  0.0444  0.6370
   37MOL   H127 7399   2.659   0.168   4.754 -2.5504 -2.8161 -1.4752
   37MOL   H128 7400   2.812   0.072   4.752  2.1719 -1.3731  2.1508
   37MOL   H129 7401   2.767   0.016   4.984 -1.0695 -0.2317  0.8897
   37MOL   H130 7402   2.402   0.216   4.977  0.2900 -0.8534  1.5212
   37MOL   H131 7403   2.538   0.255   4.873 -0.9432 -1.5045 -0.6764
   37MOL   C132 7404   2.811   0.225   4.990 -0.2678 -0.3523 -0.5276
   37MOL   C133 7405   2.957   0.208   4.963 -0.2533  0.3066  0.4398
   37MOL   C134 7406   3.011   0.113   5.069 -0.1869 -0.0276 -0.4853
   37MOL   O135 7407   2.999   0.129   5.190 -0.1870 -0.0391  0.0015
   37MOL   N136 7408   3.070   0.002   5.017 -0.0102  0.3379  0.8512
   37MOL   H137 7409   2.794   0.251   5.094 -1.0869 -1.1061 -0.4696
   37MOL   H138 7410   2.775   0.315   4.940 -1.1049  0.0055  0.6829
   37MOL   H139 7411   2.979   0.167   4.864 -0.6121  0.9758  0.0873
   37MOL   H140 7412   3.077   7.656   4.916 -1.5648 -1.4685  0.7712
   37MOL   H141 7413   3.128   7.594   5.068  0.9845  0.8181  0.3424
   37MOL   C142 7414   3.011   0.352   4.974 -0.0259  0.2725  0.2643
   37MOL   C143 7415   3.164   0.379   4.959  0.6787 -0.0738  0.4878
   37MOL   C144 7416   3.220   0.300   4.839  0.4224  0.3829  0.2053
   37MOL   O145 7417   3.295   0.202   4.855 -0.3586  0.2393  0.1537
   37MOL   N146 7418   3.185   0.337   4.715 -0.0569 -0.4219 -0.7630
   37MOL   H147 7419   2.971   0.407   5.060 -1.9819 -0.9193  0.1269
   37MOL   H148 7420   2.972   0.395   4.882 -0.7683  0.0771  0.4839
   37MOL   H149 7421   3.170   0.486   4.937  1.3712 -0.7007 -2.6422
   37MOL   H150 7422   3.134   0.422   4.701  1.5037  0.5307 -0.7874
   37MOL   H151 7423   3.195   0.268   4.641  0.9688 -0.9967 -0.0922
   37MOL   C152 7424   3.246   0.364   5.091 -0.0538  0.5087  0.0247
   37MOL   C153 7425   3.224   0.483   5.192 -0.2193  0.4310 -0.2684
   37MOL   C154 7426   3.354   0.564   5.198  0.3715  0.4559  0.4627
   37MOL   O155 7427   3.455   0.512   5.244  0.2393 -0.1018  0.6346
   37MOL   N156 7428   3.339   0.693   5.166 -0.1447  0.1442 -0.1992
   37MOL   H157 7429   3.352   0.352   5.068 -0.4503 -0.4800 -1.3644
   37MOL   H158 7430   3.226   0.267   5.137 -0.3633 -1.0691 -3.2350
   37MOL   H159 7431   3.146   0.542   5.144 -0.7164  0.8151  0.9927
   37MOL   H160 7432   3.425   0.746   5.173  1.3978 -2.3692  1.1402
   37MOL   H161 7433   3.247   0.728   5.146 -0.2200 -0.4987 -0.9769
   37MOL   C162 7434   3.168   0.446   5.333  0.0168  0.3997  0.0374
   37MOL   C163 7435   3.012   0.460   5.360 -0.0299  0.2818 -0.1714
   37MOL   C164 7436   2.970   0.611   5.365 -0.4185 -0.1389 -0.4871
   37MOL   O165 7437   3.050   0.692   5.413  0.2613 -0.0794 -0.0651
   37MOL   N166 7438   2.854   0.647   5.324 -0.1376 -0.2190  0.1328
   37MOL   H167 7439   3.224   0.496   5.411 -0.1867 -1.1115  1.1837
   37MOL   H168 7440   3.189   0.340   5.348 -0.4946  0.5197  1.6238
   37MOL   H169 7441   2.966   0.415   5.272 -0.9129  0.2416  0.3091
   37MOL   H170 7442   2.783   0.576   5.312 -2.4833  1.9683  0.3604
   37MOL   H171 7443   2.827   0.745   5.327 -1.7314 -0.5932 -1.2191
   37MOL   C172 7444   2.993   0.374   5.490 -0.5998 -0.3159 -0.0242
   37MOL   C173 7445   2.848   0.361   5.557  0.3112  0.0849 -0.5349
   37MOL   C174 7446   2.822   0.475   5.653 -0.3090  0.1248  0.4538
   37MOL   O175 7447   2.897   0.568   5.671  0.2012  0.1100  0.5009
   37MOL   N176 7448   2.712   0.473   5.730 -0.3771 -0.7041  0.0168
   37MOL   H177 7449   3.057   0.414   5.568 -1.9503 -0.6143  1.2589
   37MOL   H178 7450   3.027   0.272   5.469  1.2993  0.1588  0.6994
   37MOL   H179 7451   2.776   0.359   5.476  0.2351  1.1014 -0.4959
   37MOL   H180 7452   2.636   0.407   5.721 -0.0763 -1.0618  0.1113
   37MOL   H181 7453   2.688   0.561   5.775  0.7921  1.2705 -3.0676
   37MOL   C182 7454   2.828   0.231   5.640  0.3290  0.6142 -0.2331
   37MOL   C183 7455   2.821   0.096   5.559  0.7079 -0.3518 -0.8627
   37MOL   C184 7456   2.716   0.088   5.448  0.1040  0.0764  0.4448
   37MOL   O185 7457   2.603   0.056   5.475  0.2403  0.0849  0.2004
   37MOL   N186 7458   2.749   0.105   5.319  0.2976  0.1465 -0.1647
   37MOL   H187 7459   2.734   0.234   5.694  1.3232  1.3572  1.4613
   37MOL   H188 7460   2.912   0.228   5.709  0.7638  0.6092 -0.7530
   37MOL   H189 7461   2.911   0.087   5.498 -0.6261  1.4329 -3.1994
   37MOL   H190 7462   2.676   0.074   5.257  1.1820 -1.4286 -0.4591
   37MOL   H191 7463   2.846   0.111   5.290 -0.0576  2.1486 -1.0296
   37MOL   C192 7464   2.807   7.636   5.669 -0.0878  0.0308  0.4815
   37MOL   C193 7465   2.933   7.590   5.745 -0.1534  0.9633  0.7501
   37MOL   C194 7466   3.006   7.483   5.657 -0.1799  0.0463  0.1310
   37MOL   O195 7467   2.952   7.368   5.641 -0.0377 -0.6323 -0.1539
   37MOL   N196 7468   3.125   7.515   5.611 -0.5702  0.2210  0.1512
   37MOL   H197 7469   2.760   7.548   5.626  1.9627 -0.4349 -0.8383
   37MOL   H198 7470   2.739   0.014   5.747 -0.9555 -1.8714  0.6204
   37MOL   H199 7471   3.000   0.015   5.768  0.6115 -0.2143  2.8433
   37MOL   H200 7472   3.170   7.605   5.622  0.1940 -0.0340 -0.8030
   37MOL   H201 7473   3.166   7.449   5.546 -3.1601 -1.6700  0.3582
   37MOL   H202 7474   2.913   7.544   5.842  2.1946 -0.1632  0.7315
   38MOL     C1 7475   7.564   2.410   5.921 -0.3877 -0.4875 -0.3466
   38MOL     C2 7476   7.646   2.406   5.788  0.5591  0.8708 -0.3828
   38MOL     C3 7477   7.569   2.466   5.672 -0.9770 -0.5828  0.3971
   38MOL     O4 7478   7.467   2.410   5.636  0.1838 -0.0031 -0.3749
   38MOL     N5 7479   7.619   2.566   5.591  0.3060  0.4359 -0.5286
   38MOL     H6 7480   7.510   2.505   5.918  0.5092  0.0905  1.2178
   38MOL     H7 7481   7.494   2.326   5.919 -1.0809  0.1009 -1.6980
   38MOL     H8 7482   0.088   2.452   5.791  0.0234  1.9895  0.1985
   38MOL     H9 7483   0.046   2.619   5.612  1.3657 -1.5916  0.4596
   38MOL    H10 7484   7.574   2.583   5.502 -1.0852  0.9810  0.2686
   38MOL    H11 7485   7.619   2.406   6.015 -0.8184 -0.3450 -0.0827
   38MOL    C12 7486   0.022   2.257   5.759 -0.4960 -0.1378  0.2034
   38MOL    C13 7487   0.100   2.178   5.866 -0.1154  0.3698 -0.4719
   38MOL    C14 7488   0.241   2.237   5.900  0.0731  0.4932  0.5684
   38MOL    O15 7489   0.250   2.313   5.998  0.1501  0.0155 -0.5386
   38MOL    N16 7490   0.347   2.212   5.828  0.0700 -0.0868  0.6145
   38MOL    H17 7491   0.082   2.247   5.668  1.6787 -2.1359  1.7636
   38MOL    H18 7492   7.589   2.197   5.747 -0.2779 -1.0310  2.6894
   38MOL    H19 7493   0.040   2.186   5.956 -0.1484  0.0537 -0.4672
   38MOL    H20 7494   0.325   2.169   5.740 -0.6002  2.9673 -0.7852
   38MOL    H21 7495   0.439   2.249   5.845  1.0803 -1.1833 -2.2241
   38MOL    C22 7496   0.118   2.030   5.814  0.1884  0.2909 -0.4214
   38MOL    C23 7497   7.655   1.930   5.829 -0.2826  0.0526 -0.2617
   38MOL    C24 7498   7.609   1.923   5.981 -0.3042 -0.5035 -0.5555
   38MOL    O25 7499   0.029   1.880   6.064  0.3281  0.2076  0.0714
   38MOL    N26 7500   7.502   1.984   6.018  0.5657  0.0441  0.0747
   38MOL    H27 7501   0.192   1.981   5.877 -0.1499  0.1210 -0.1545
   38MOL    H28 7502   0.153   2.019   5.711 -2.0146  2.8300 -1.5214
   38MOL    H29 7503   7.575   1.976   5.772 -1.3418 -0.6067  0.6631
   38MOL    H30 7504   7.466   1.969   6.111 -0.3114  1.7802  0.0455
   38MOL    H31 7505   7.440   2.013   5.944 -1.7951  1.6087  2.6005
   38MOL    C32 7506   0.031   1.793   5.762  0.0900 -0.6258 -0.5037
   38MOL    C33 7507   7.579   1.682   5.780  0.2332 -0.1805 -0.0550
   38MOL    C34 7508   7.633   1.548   5.728  0.8286 -0.6571 -0.0765
   38MOL    O35 7509   7.628   1.528   5.605 -0.5832 -0.0746  0.1113
   38MOL    N36 7510   0.023   1.468   5.819 -0.0758  0.5567 -0.0429
   38MOL    H37 7511   0.122   1.754   5.809  0.1155  0.4559  0.3657
   38MOL    H38 7512   0.046   1.804   5.654 -0.7366 -2.1064 -0.7848
   38MOL    H39 7513   7.554   1.668   5.885  1.2540 -3.5155 -0.1880
   38MOL    H40 7514   0.037   1.499   5.914  2.2628 -2.4064  0.6335
   38MOL    H41 7515   0.064   1.380   5.793  0.2589  0.0031  2.2545
   38MOL    C42 7516   7.437   1.716   5.720  0.0537  0.3561  0.1857
   38MOL    C43 7517   7.314   1.634   5.780  0.0995  0.4324  0.2719
   38MOL    C44 7518   7.178   1.627   5.693  0.4750 -0.6049  0.6314
   38MOL    O45 7519   7.166   1.703   5.592  0.0211  0.6271  0.2892
   38MOL    N46 7520   7.101   1.524   5.718  0.7206 -0.3187 -0.3486
   38MOL    H47 7521   7.434   1.723   5.611  0.1980 -1.6009  0.0459
   38MOL    H48 7522   7.409   1.819   5.745 -0.8250 -0.2851  1.9571
   38MOL    H49 7523   7.345   1.529   5.775  0.2481  0.5173 -0.6728
   38MOL    H50 7524   7.011   1.524   5.672  1.2021 -1.8812 -1.3275
   38MOL    H51 7525   7.129   1.449   5.779 -0.3251 -0.7048 -0.3313
   38MOL    C52 7526   7.278   1.675   5.926  0.1368 -0.2663  0.0194
   38MOL    C53 7527   7.318   1.561   6.032 -0.5636  0.7734  0.2898
   38MOL    C54 7528   7.276   1.417   6.011  0.1144  0.4748  0.1080
   38MOL    O55 7529   7.155   1.404   5.979 -0.3659 -0.2962  0.6413
   38MOL    N56 7530   7.361   1.318   6.016  0.5251 -0.6656  0.1007
   38MOL    H57 7531   7.173   1.698   5.940  0.4365  1.9688 -1.1855
   38MOL    H58 7532   7.345   1.758   5.949  1.8119 -2.0235  1.7602
   38MOL    H59 7533   7.426   1.546   6.031 -0.6077  0.5232 -1.4999
   38MOL    H60 7534   7.456   1.333   6.048  0.9221 -0.4513 -1.1488
   38MOL    H61 7535   7.327   1.225   5.992  0.2131 -0.2792 -0.9836
   38MOL    C62 7536   7.271   1.614   6.164  0.6446 -1.0461  1.1774
   38MOL    C63 7537   7.362   1.714   6.238 -0.0227  0.3419  0.2315
   38MOL    C64 7538   7.486   1.641   6.295 -0.9314  0.1410  0.9742
   38MOL    O65 7539   7.482   1.560   6.386 -0.7313  0.6043 -0.7773
   38MOL    N66 7540   7.607   1.671   6.242 -0.1942  0.6012  0.1432
   38MOL    H67 7541   7.273   1.535   6.239 -2.9150  0.6219  3.1167
   38MOL    H68 7542   7.168   1.648   6.151  1.5141  0.3330 -2.7988
   38MOL    H69 7543   7.414   1.779   6.169  0.7069  0.3226  0.7563
   38MOL    H70 7544   7.629   1.751   6.184  0.4066  0.1576 -0.2550
   38MOL    H71 7545   0.022   1.601   6.252  0.8805  1.6306 -0.2978
   38MOL    C72 7546   7.294   1.796   6.343 -0.1660 -0.5594  0.1684
   38MOL    C73 7547   7.165   1.879   6.303 -0.5648 -0.2546  0.7502
   38MOL    C74 7548   7.204   1.994   6.204 -0.1981 -0.8961 -0.1141
   38MOL    O75 7549   7.290   2.072   6.243  0.0223  0.1411  0.0842
   38MOL    N76 7550   7.171   1.991   6.079  0.0949 -0.1405  0.4031
   38MOL    H77 7551   7.362   1.866   6.392  0.9711 -2.1450  0.8813
   38MOL    H78 7552   7.266   1.738   6.430 -1.9019 -0.1087 -0.0811
   38MOL    H79 7553   7.105   1.810   6.244  1.5936  0.4897 -2.4142
   38MOL    H80 7554   7.204   2.062   6.015 -1.6757  1.2911  1.0596
   38MOL    H81 7555   7.111   1.917   6.046  2.4035 -1.2913 -1.3658
   38MOL    C82 7556   7.075   1.912   6.421  0.1831  0.3084  0.4628
   38MOL    C83 7557   6.951   1.814   6.442  0.4472 -0.6717 -0.4420
   38MOL    C84 7558   6.867   1.807   6.311 -0.3678 -0.7090 -0.3570
   38MOL    O85 7559   6.824   1.914   6.263  0.6978  0.3612 -0.2056
   38MOL    N86 7560   6.829   1.693   6.258 -0.2035 -0.6993 -0.3638
   38MOL    H87 7561   7.040   2.015   6.427 -0.6200  0.0863 -0.2508
   38MOL    H88 7562   7.142   1.911   6.507 -0.4005 -0.0701  0.9209
   38MOL    H89 7563   6.991   1.716   6.466  1.5086  0.0234  0.7119
   38MOL    H90 7564   6.856   1.610   6.308  0.4788 -0.8457 -0.9615
   38MOL    H91 7565   6.766   1.684   6.180 -0.5354 -1.0927 -0.0536
   38MOL    C92 7566   6.867   1.852   6.567  0.6165 -0.4958  0.0836
   38MOL    C93 7567   6.708   1.818   6.569  0.5897  0.7297 -0.1295
   38MOL    C94 7568   6.664   1.877   6.706  0.1523  0.3035 -0.4504
   38MOL    O95 7569   6.596   1.979   6.722 -0.3734  0.4047  0.2390
   38MOL    N96 7570   6.700   1.800   6.812 -0.1609  0.3894  0.0055
   38MOL    H97 7571   6.873   1.961   6.567  0.6494 -0.4969  0.7457
   38MOL    H98 7572   6.920   1.819   6.656 -1.0583 -1.4155  0.7564
   38MOL    H99 7573   6.651   1.873   6.495 -0.4684 -0.7826 -0.4645
   38MOL   H100 7574   6.685   1.832   6.907  0.8055  0.2652  0.1982
   38MOL   H101 7575   6.764   1.723   6.809 -0.5818  0.0426 -0.0501
   38MOL   C102 7576   6.672   1.662   6.559  0.0644 -0.5000  0.1448
   38MOL   C103 7577   6.524   1.617   6.582  0.5857  1.2703  0.8869
   38MOL   C104 7578   6.514   1.483   6.655 -0.1588 -0.0398  0.2598
   38MOL   O105 7579   6.593   1.392   6.631  0.1543  0.1594  0.2655
   38MOL   N106 7580   6.428   1.469   6.755  0.7884  0.3207  0.2485
   38MOL   H107 7581   6.726   1.611   6.638 -1.0256 -0.5438  0.8638
   38MOL   H108 7582   6.721   1.612   6.475  1.8439  0.8653  0.3280
   38MOL   H109 7583   6.472   1.683   6.651 -0.4861 -1.0998  2.3999
   38MOL   H110 7584   6.377   1.553   6.779 -1.0072 -0.8512  0.6427
   38MOL   H111 7585   6.414   1.378   6.797 -1.0300 -0.9400 -2.8951
   38MOL   C112 7586   6.449   1.599   6.442  0.1125  0.6705  0.4205
   38MOL   C113 7587   6.387   1.734   6.387  0.7474  0.2358  0.0109
   38MOL   C114 7588   6.245   1.771   6.438  0.1074 -0.1131  0.3129
   38MOL   O115 7589   6.159   1.686   6.460 -0.5174 -0.5105 -0.2402
   38MOL   N116 7590   6.218   1.900   6.461  0.0264  0.1159  0.9652
   38MOL   H117 7591   6.364   1.532   6.452  0.2727  0.3581 -0.2683
   38MOL   H118 7592   6.521   1.556   6.372  0.6790  2.2771 -0.0219
   38MOL   H119 7593   6.458   1.813   6.412 -0.9066  2.8530 -3.2269
   38MOL   H120 7594   6.293   1.967   6.459 -0.8537  1.1071  0.8669
   38MOL   H121 7595   6.130   1.927   6.502  0.7823  1.5329  1.6872
   38MOL   C122 7596   6.382   1.726   6.239  0.1719 -0.8877 -0.1092
   38MOL   C123 7597   6.360   1.857   6.154  0.0551 -0.3455 -0.0964
   38MOL   C124 7598   6.317   1.823   6.006 -0.8360  0.3442  0.4877
   38MOL   O125 7599   6.406   1.805   5.922  0.0213 -0.5675 -0.6760
   38MOL   N126 7600   6.187   1.809   5.977 -0.0032 -0.7430 -0.0261
   38MOL   H127 7601   6.317   1.644   6.208  0.6151 -2.0888  2.0546
   38MOL   H128 7602   6.477   1.690   6.199  1.2944  0.5077  1.2412
   38MOL   H129 7603   6.278   1.916   6.194  0.9991  0.9791 -0.1089
   38MOL   H130 7604   6.149   1.800   5.885 -1.6540  1.1326  0.4293
   38MOL   H131 7605   6.130   1.856   6.046  1.7285  0.4370  0.6648
   38MOL   C132 7606   6.482   1.948   6.171  0.4537 -0.2245  0.2399
   38MOL   C133 7607   6.464   2.100   6.145 -0.4445 -0.2044  0.2451
   38MOL   C134 7608   6.439   2.138   5.998 -0.5336  0.2036  0.2718
   38MOL   O135 7609   6.530   2.127   5.913  0.4484 -0.2539  0.7490
   38MOL   N136 7610   6.327   2.193   5.963  0.0137 -0.1297  0.3469
   38MOL   H137 7611   6.548   1.901   6.098  0.3673 -0.2089  0.1526
   38MOL   H138 7612   6.538   1.927   6.262  0.9814  3.0213  0.7334
   38MOL   H139 7613   6.366   2.131   6.182 -1.0463  1.3364 -2.4666
   38MOL   H140 7614   6.251   2.220   6.024 -1.7186  0.7607 -2.0854
   38MOL   H141 7615   6.323   2.214   5.864  1.0625 -2.1909 -0.1466
   38MOL   C142 7616   6.572   2.176   6.205  0.3665  0.2600 -0.0528
   38MOL   C143 7617   6.555   2.259   6.332 -0.1010 -0.6250  0.1859
   38MOL   C144 7618   6.529   2.172   6.459  0.0732  0.3643  0.1584
   38MOL   O145 7619   6.441   2.088   6.462  0.0237 -0.6137  0.3590
   38MOL   N146 7620   6.607   2.198   6.568  0.1635  0.3941  0.0845
   38MOL   H147 7621   6.609   2.249   6.133 -2.0292  2.5056  0.9186
   38MOL   H148 7622   6.659   2.111   6.212  0.5775  0.6397  0.9442
   38MOL   H149 7623   6.655   2.300   6.348 -0.5524  0.6124 -0.0842
   38MOL   H150 7624   6.607   2.126   6.640 -0.8723 -2.6374 -2.8409
   38MOL   H151 7625   6.662   2.283   6.570  0.6896  0.1058 -1.2934
   38MOL   C152 7626   6.474   2.388   6.319  0.2179 -0.2097  0.1535
   38MOL   C153 7627   6.335   2.397   6.388  0.5232  0.1568  0.1756
   38MOL   C154 7628   6.230   2.304   6.323  0.0534 -0.4351  0.5786
   38MOL   O155 7629   6.197   2.325   6.205 -0.0508  0.6871  0.0734
   38MOL   N156 7630   6.171   2.209   6.406  0.2526 -0.4403  0.7275
   38MOL   H157 7631   6.464   2.410   6.213 -0.2494 -2.6317 -0.3339
   38MOL   H158 7632   6.532   2.471   6.361  0.4890 -1.0926  1.5886
   38MOL   H159 7633   6.343   2.380   6.496  0.3684  2.2413  0.5416
   38MOL   H160 7634   6.082   2.165   6.387 -1.7270  3.8252 -0.4289
   38MOL   H161 7635   6.214   2.185   6.494  0.2126 -0.0257  0.8629
   38MOL   C162 7636   6.280   2.547   6.375  0.6500 -1.0064  0.0834
   38MOL   C163 7637   6.137   2.580   6.415  0.0030  0.6681  0.0183
   38MOL   C164 7638   6.122   2.725   6.382 -0.0255 -0.2105 -0.2494
   38MOL   O165 7639   6.154   2.816   6.456 -0.6243  0.0121  0.2402
   38MOL   N166 7640   6.077   2.760   6.258  0.6312  0.1698 -0.0508
   38MOL   H167 7641   6.281   2.568   6.268  1.6225 -1.1756  0.0472
   38MOL   H168 7642   6.356   2.616   6.411  0.2984 -0.7580  0.3458
   38MOL   H169 7643   6.072   2.519   6.353  0.1954  0.6360 -0.1531
   38MOL   H170 7644   6.090   2.699   6.179 -0.0046 -0.6502  0.4634
   38MOL   H171 7645   6.069   2.859   6.242 -1.1770 -0.0199 -0.4276
   38MOL   C172 7646   6.111   2.539   6.564  0.3915  0.2266 -0.6785
   38MOL   C173 7647   5.974   2.584   6.627 -0.4518  0.0270  0.2493
   38MOL   C174 7648   5.980   2.545   6.772 -0.1662  0.5621 -0.8376
   38MOL   O175 7649   6.014   2.440   6.816  0.4640  0.0569  0.5082
   38MOL   N176 7650   5.956   2.633   6.869 -0.3486 -0.2409  0.5199
   38MOL   H177 7651   6.179   2.595   6.627  0.2418 -1.2874  0.8737
   38MOL   H178 7652   6.123   2.434   6.589  1.1442  0.8920  1.8770
   38MOL   H179 7653   5.963   2.692   6.629  3.6471  0.4847  1.1645
   38MOL   H180 7654   5.961   2.591   6.961 -0.3675 -0.3048  0.4921
   38MOL   H181 7655   5.929   2.729   6.852  0.6980  0.1642  1.0752
   38MOL   C182 7656   5.845   2.535   6.562 -0.5625  0.4379 -0.4421
   38MOL   C183 7657   5.727   2.632   6.579 -0.1226 -0.0710 -0.0104
   38MOL   C184 7658   5.613   2.589   6.677  0.8678 -0.2903 -0.0590
   38MOL   O185 7659   5.617   2.486   6.745 -0.1665 -0.6155 -0.2557
   38MOL   N186 7660   5.521   2.683   6.702  0.0708 -0.1162 -1.0010
   38MOL   H187 7661   5.799   2.443   6.598  1.6903 -0.8607 -0.8132
   38MOL   H188 7662   5.880   2.519   6.460  1.5634 -1.7543  0.5764
   38MOL   H189 7663   5.766   2.726   6.617  2.5121 -0.9680 -0.3957
   38MOL   H190 7664   5.460   2.651   6.777  0.3927 -0.3434 -0.8334
   38MOL   H191 7665   5.542   2.779   6.682 -0.5525 -0.1582 -1.8532
   38MOL   C192 7666   5.661   2.667   6.435  0.6537  1.1253 -0.1278
   38MOL   C193 7667   5.677   2.808   6.375  0.0110 -0.4294  0.1290
   38MOL   C194 7668   5.597   2.925   6.445 -0.3685  0.0798 -0.2418
   38MOL   O195 7669   5.533   2.911   6.551 -0.0386  0.5855 -0.6946
   38MOL   N196 7670   5.618   3.045   6.399  0.0344 -0.0541 -0.3361
   38MOL   H197 7671   5.560   2.627   6.425  0.3417  1.7840  0.3557
   38MOL   H198 7672   5.713   2.612   6.357  1.0628  0.1650  0.8068
   38MOL   H199 7673   5.781   2.839   6.387  0.0951 -1.0353  1.0345
   38MOL   H200 7674   5.587   3.116   6.464  0.1247 -1.2396  1.0346
   38MOL   H201 7675   5.695   3.058   6.336  0.5711  1.1847  0.5650
   38MOL   H202 7676   5.647   2.807   6.271 -1.0623 -0.4495  0.4315
   39MOL     C1 7677   7.160   6.083   1.855 -0.9092  0.1258  0.4621
   39MOL     C2 7678   7.123   5.979   1.957  0.3648  0.5181  0.1207
   39MOL     C3 7679   6.978   5.989   1.996 -0.2032  0.4738 -0.4114
   39MOL     O4 7680   6.940   6.067   2.087  0.0523  0.5845  0.2459
   39MOL     N5 7681   6.887   5.913   1.935 -0.2721  0.5075  0.2648
   39MOL     H6 7682   7.268   6.088   1.847 -1.0372  1.2509 -0.7466
   39MOL     H7 7683   7.110   6.053   1.763  0.1518  0.0090 -0.0801
   39MOL     H8 7684   7.143   5.885   1.905  1.2315  1.7325 -1.7802
   39MOL     H9 7685   6.911   5.863   1.851 -1.8536 -2.1599  1.3389
   39MOL    H10 7686   6.793   5.905   1.972  0.0370  0.5638  1.0649
   39MOL    H11 7687   7.138   6.185   1.888 -0.5898  0.3120  0.1046
   39MOL    C12 7688   7.205   5.984   2.083  0.0241 -0.2772  0.2907
   39MOL    C13 7689   7.360   5.964   2.075  0.2547 -0.6793  0.0398
   39MOL    C14 7690   7.392   5.820   2.025  0.5937 -0.4370  0.0564
   39MOL    O15 7691   7.355   5.715   2.073  0.1522  0.1399  0.4483
   39MOL    N16 7692   7.459   5.810   1.916 -0.7993  0.9058  0.0853
   39MOL    H17 7693   7.166   5.903   2.146 -0.3611 -1.9133 -1.9850
   39MOL    H18 7694   7.184   6.077   2.135  1.3852 -0.4661  1.2116
   39MOL    H19 7695   7.405   6.031   2.002 -0.0901 -1.8999 -1.3235
   39MOL    H20 7696   7.487   5.890   1.861 -0.8044 -0.3879 -1.8894
   39MOL    H21 7697   7.469   5.716   1.878 -1.7176  0.6178  0.5536
   39MOL    C22 7698   7.415   5.981   2.220 -0.4328 -0.1532  0.0768
   39MOL    C23 7699   7.539   6.064   2.246  0.0124  0.1654 -0.1881
   39MOL    C24 7700   7.655   6.024   2.159  0.0351 -0.0906 -0.0979
   39MOL    O25 7701   0.072   5.930   2.196  0.3160  0.2292  0.3341
   39MOL    N26 7702   0.020   6.092   2.044  0.3340 -0.0164  0.0596
   39MOL    H27 7703   7.442   5.884   2.261 -1.1123 -0.2438  0.3311
   39MOL    H28 7704   7.339   6.021   2.288 -0.7511 -1.6533  0.6202
   39MOL    H29 7705   7.511   6.166   2.223 -0.2337 -0.1037 -1.1159
   39MOL    H30 7706   7.640   6.182   2.018 -0.9041 -0.7768 -0.8547
   39MOL    H31 7707   0.054   6.043   1.963  0.9187  2.6194 -1.3402
   39MOL    C32 7708   7.585   6.059   2.398  0.0240 -0.3386  0.4940
   39MOL    C33 7709   7.475   6.125   2.492  0.1416  0.4674  0.8165
   39MOL    C34 7710   7.415   6.261   2.454  0.0507  0.5041  0.0216
   39MOL    O35 7711   7.481   6.347   2.396 -0.2538  0.6596  0.3248
   39MOL    N36 7712   7.284   6.280   2.473  0.2680 -0.3250 -0.5360
   39MOL    H37 7713   0.018   6.121   2.407 -0.4591  0.4725 -0.1311
   39MOL    H38 7714   7.604   5.955   2.424  2.9589  0.3699  1.4212
   39MOL    H39 7715   7.386   6.062   2.487 -0.7479  1.5791  2.1146
   39MOL    H40 7716   7.226   6.209   2.516 -0.3073 -0.0028 -0.7713
   39MOL    H41 7717   7.253   6.375   2.486 -0.0143 -0.4241 -0.4683
   39MOL    C42 7718   7.504   6.115   2.641 -0.7391  0.0503 -0.4726
   39MOL    C43 7719   7.645   6.149   2.698 -0.4705  0.5699 -0.1964
   39MOL    C44 7720   7.637   6.131   2.850  0.3892 -0.1209 -0.0626
   39MOL    O45 7721   7.578   6.206   2.921  0.0702 -0.4206  0.1424
   39MOL    N46 7722   0.037   6.026   2.901  0.5899  0.3676 -0.0203
   39MOL    H47 7723   7.476   6.015   2.673  0.1620  0.5350  1.9153
   39MOL    H48 7724   7.438   6.180   2.698 -0.7108 -0.3642  0.0313
   39MOL    H49 7725   0.061   6.077   2.660 -0.4348  0.2132  0.5351
   39MOL    H50 7726   0.078   5.959   2.837  0.1501  0.1409 -0.0699
   39MOL    H51 7727   0.053   6.009   3.000 -1.2233 -1.2691  0.0307
   39MOL    C52 7728   0.035   6.297   2.656  0.8112  0.3437  0.2907
   39MOL    C53 7729   0.159   6.341   2.732 -0.6265  0.2630 -0.1776
   39MOL    C54 7730   0.147   6.489   2.782 -0.8728 -0.2557 -0.1070
   39MOL    O55 7731   0.177   6.584   2.723  0.0734  0.3095  0.5147
   39MOL    N56 7732   0.093   6.504   2.902 -0.0778 -0.2428  0.5950
   39MOL    H57 7733   7.611   6.366   2.679 -0.9161 -0.6686 -2.5641
   39MOL    H58 7734   0.042   6.298   2.548  1.1022  2.5133  0.3084
   39MOL    H59 7735   0.170   6.289   2.827  3.0278  0.1078 -0.6214
   39MOL    H60 7736   0.040   6.427   2.940 -0.7317 -0.3601 -0.5285
   39MOL    H61 7737   0.086   6.596   2.943  1.8021  2.1425 -4.0836
   39MOL    C62 7738   0.292   6.315   2.657 -0.0612  0.0832  0.6892
   39MOL    C63 7739   0.416   6.262   2.744  0.5517  0.2800  0.0618
   39MOL    C64 7740   0.403   6.122   2.785 -0.5765 -0.0624  0.1879
   39MOL    O65 7741   0.447   6.081   2.897 -0.4492  0.0208 -0.0392
   39MOL    N66 7742   0.343   6.038   2.707  0.1893 -0.1298 -0.1691
   39MOL    H67 7743   0.334   6.409   2.620 -1.0573  0.4695  0.5306
   39MOL    H68 7744   0.282   6.256   2.566 -1.2430  0.2430  0.7028
   39MOL    H69 7745   0.497   6.239   2.676 -0.1974 -1.9424 -0.1228
   39MOL    H70 7746   0.321   5.944   2.737  3.0479 -0.9862 -0.5875
   39MOL    H71 7747   0.324   6.058   2.610  0.4236  2.8236  0.3481
   39MOL    C72 7748   0.461   6.368   2.858 -0.1454  0.0328  0.4350
   39MOL    C73 7749   0.613   6.365   2.905 -1.4461  0.5511 -0.2369
   39MOL    C74 7750   0.656   6.280   3.029  0.4420  0.7882 -0.2686
   39MOL    O75 7751   0.589   6.282   3.132 -0.7924  0.5560 -0.5268
   39MOL    N76 7752   0.768   6.211   3.031  0.1476 -0.7170  0.1780
   39MOL    H77 7753   0.401   6.372   2.948  1.1986  0.6164  1.3244
   39MOL    H78 7754   0.438   6.468   2.822  1.9863  0.7923  1.0890
   39MOL    H79 7755   0.670   6.323   2.822  1.6940  0.1942  2.0171
   39MOL    H80 7756   0.824   6.219   2.948  0.8283 -1.7090  0.5279
   39MOL    H81 7757   0.783   6.143   3.104  2.2310 -1.7818 -1.1778
   39MOL    C82 7758   0.659   6.507   2.930 -0.1349 -0.3096  0.2387
   39MOL    C83 7759   0.718   6.577   2.803 -0.2379 -0.0865  0.1962
   39MOL    C84 7760   0.864   6.596   2.815  0.5226 -0.1083  0.0441
   39MOL    O85 7761   0.911   6.705   2.854  0.6919  0.1851  1.2745
   39MOL    N86 7762   0.942   6.494   2.776  0.3250  0.0248 -0.1383
   39MOL    H87 7763   0.732   6.514   3.010 -0.8096 -2.3213  1.0632
   39MOL    H88 7764   0.577   6.562   2.977  1.5403  3.1426 -0.7295
   39MOL    H89 7765   0.708   6.505   2.722  1.9949 -0.0940 -0.1113
   39MOL    H90 7766   1.041   6.495   2.796  0.6199 -0.4434 -1.5457
   39MOL    H91 7767   0.897   6.414   2.734  0.6141  0.5701 -1.5169
   39MOL    C92 7768   0.639   6.704   2.759 -0.1323 -0.2258 -0.1619
   39MOL    C93 7769   0.656   6.755   2.613  0.0737  0.0153  0.5500
   39MOL    C94 7770   0.588   6.896   2.592  0.4481  0.1386 -0.2513
   39MOL    O95 7771   0.640   6.982   2.525 -0.1858  0.1165 -0.4290
   39MOL    N96 7772   0.466   6.910   2.646 -0.2920 -0.0603  0.4724
   39MOL    H97 7773   0.657   6.778   2.837  0.0595  0.0339 -0.4473
   39MOL    H98 7774   0.534   6.684   2.779 -1.2567  3.4795 -1.7751
   39MOL    H99 7775   0.762   6.777   2.598  0.5574 -1.6566  1.3183
   39MOL   H100 7776   0.421   7.000   2.655  1.5720  0.8874  0.6453
   39MOL   H101 7777   0.421   6.833   2.693 -0.2024  0.0701  0.7745
   39MOL   C102 7778   0.603   6.657   2.502  0.1410 -0.2678  0.0855
   39MOL   C103 7779   0.721   6.631   2.396  0.4691 -0.4395 -0.1535
   39MOL   C104 7780   0.718   6.738   2.291 -0.4802 -0.4192 -0.7290
   39MOL   O105 7781   0.653   6.729   2.188 -0.0394 -0.0427  0.3849
   39MOL   N106 7782   0.807   6.837   2.308 -0.0710  0.1365 -0.4984
   39MOL   H107 7783   0.513   6.691   2.450 -0.6686 -0.7425  1.1543
   39MOL   H108 7784   0.572   6.568   2.557 -0.1467  1.2723  2.4728
   39MOL   H109 7785   0.810   6.640   2.459  2.0962 -0.4969 -2.4041
   39MOL   H110 7786   0.846   6.856   2.399  0.2803 -2.9556  0.0600
   39MOL   H111 7787   0.823   6.902   2.232 -1.5824 -0.8936 -1.7378
   39MOL   C112 7788   0.711   6.485   2.336  0.0856 -0.5349 -0.6526
   39MOL   C113 7789   0.846   6.412   2.335  0.3104 -0.3675  0.9425
   39MOL   C114 7790   0.954   6.469   2.246  0.0175 -0.2800 -0.6753
   39MOL   O115 7791   1.070   6.481   2.290  0.6136  0.4093 -0.7448
   39MOL   N116 7792   0.919   6.519   2.126  0.5412 -0.5519  0.0343
   39MOL   H117 7793   0.657   6.495   2.242 -2.5267 -0.7806  0.7884
   39MOL   H118 7794   0.641   6.429   2.397 -0.0488  0.7042  0.3518
   39MOL   H119 7795   0.870   6.443   2.437 -0.5802  1.7022  0.5325
   39MOL   H120 7796   0.822   6.545   2.114  0.7671  0.2779 -0.0328
   39MOL   H121 7797   0.992   6.582   2.097  0.9679 -1.2332 -0.3993
   39MOL   C122 7798   0.825   6.265   2.318 -0.4271  0.2044 -0.8154
   39MOL   C123 7799   0.777   6.186   2.437 -0.8509 -0.0502 -0.2050
   39MOL   C124 7800   0.878   6.208   2.546  0.9539 -0.3941 -0.7322
   39MOL   O125 7801   0.839   6.269   2.649  0.4171  0.0115 -0.0188
   39MOL   N126 7802   0.997   6.153   2.531 -0.0162 -0.1105 -0.7006
   39MOL   H127 7803   0.909   6.213   2.270 -0.2422 -1.3187  1.1000
   39MOL   H128 7804   0.752   6.264   2.237 -1.1353  0.0863 -0.1705
   39MOL   H129 7805   0.683   6.233   2.466 -0.9990 -0.9846  0.8538
   39MOL   H130 7806   1.018   6.095   2.450  1.2372  1.8660 -1.8226
   39MOL   H131 7807   1.066   6.163   2.603 -1.3307 -0.6187  0.6601
   39MOL   C132 7808   0.743   6.038   2.412 -0.3126  0.1659  0.5266
   39MOL   C133 7809   0.647   5.972   2.521  0.5319  0.3239  0.0304
   39MOL   C134 7810   0.729   5.916   2.638 -0.6364  0.0825 -0.5746
   39MOL   O135 7811   0.811   5.830   2.617 -0.7125 -0.6187  0.4670
   39MOL   N136 7812   0.694   5.957   2.763  0.0522  0.0380  0.1163
   39MOL   H137 7813   0.834   5.980   2.396 -0.3329  0.3896 -0.4103
   39MOL   H138 7814   0.699   6.041   2.313  3.1698 -1.2414 -1.1777
   39MOL   H139 7815   0.576   6.049   2.550 -2.7169 -2.1256 -1.1423
   39MOL   H140 7816   0.738   5.911   2.841  0.5646  0.2341 -0.0552
   39MOL   H141 7817   0.616   6.019   2.777  2.2555  2.4511  2.3143
   39MOL   C142 7818   0.561   5.858   2.460  0.7877 -0.0169  0.4873
   39MOL   C143 7819   0.474   5.895   2.331 -0.0582 -0.0938 -0.3000
   39MOL   C144 7820   0.391   6.018   2.356 -0.2783 -0.9566 -0.2252
   39MOL   O145 7821   0.306   6.023   2.439  0.7986  0.1180 -0.4061
   39MOL   N146 7822   0.414   6.119   2.275 -0.1231  0.4512  0.3807
   39MOL   H147 7823   0.492   5.810   2.530 -0.4133  0.9680 -0.0057
   39MOL   H148 7824   0.620   5.774   2.423  0.2974  0.1312 -0.6688
   39MOL   H149 7825   0.544   5.912   2.249 -0.4704  1.4253 -0.3688
   39MOL   H150 7826   0.487   6.118   2.206 -0.8596  1.0901 -0.4164
   39MOL   H151 7827   0.346   6.193   2.278  0.0442  0.8161 -2.8887
   39MOL   C152 7828   0.398   5.768   2.296 -0.0770 -0.1876  0.7182
   39MOL   C153 7829   0.429   5.705   2.160  0.4446 -0.1849 -0.3055
   39MOL   C154 7830   0.381   5.773   2.031 -0.2397 -0.2287 -0.4005
   39MOL   O155 7831   0.455   5.776   1.933 -0.3058  0.0178 -0.5770
   39MOL   N156 7832   0.267   5.837   2.027 -0.3942  0.1088  0.2661
   39MOL   H157 7833   0.290   5.780   2.285 -0.4213 -2.3150  1.6341
   39MOL   H158 7834   0.418   5.696   2.375  2.4548 -1.6746 -1.1862
   39MOL   H159 7835   0.537   5.700   2.146  0.8263  3.3934  0.9098
   39MOL   H160 7836   0.223   5.850   1.937 -0.6535 -3.3843 -0.1741
   39MOL   H161 7837   0.203   5.845   2.105 -3.4013  0.2090 -2.1215
   39MOL   C162 7838   0.374   5.561   2.155  0.0361  0.4462 -0.1459
   39MOL   C163 7839   0.433   5.471   2.047  0.2565  1.2230  0.1066
   39MOL   C164 7840   0.350   5.341   2.047 -0.0422 -0.1207 -0.1394
   39MOL   O165 7841   0.315   5.295   2.152 -0.1756 -0.0698 -0.6131
   39MOL   N166 7842   0.322   5.288   1.933  0.5044 -0.7280  0.3002
   39MOL   H167 7843   0.265   5.561   2.156  0.0438  1.1321  1.3911
   39MOL   H168 7844   0.404   5.526   2.254 -0.8507 -0.5821 -0.2291
   39MOL   H169 7845   0.430   5.523   1.951  0.8119 -0.1022 -0.6353
   39MOL   H170 7846   0.353   5.328   1.846 -1.3044 -0.0955 -0.0768
   39MOL   H171 7847   0.280   5.197   1.937  0.7343 -0.7545  3.0900
   39MOL   C172 7848   0.583   5.419   2.064 -0.1510  0.6428 -0.3344
   39MOL   C173 7849   0.650   5.372   1.935 -0.5715  0.1424 -0.4742
   39MOL   C174 7850   0.682   5.224   1.926 -0.1767  0.2455  0.2680
   39MOL   O175 7851   0.719   5.157   2.019 -0.1806  0.1897 -0.4974
   39MOL   N176 7852   0.665   5.174   1.806  0.7754  0.2959 -0.5134
   39MOL   H177 7853   0.594   5.339   2.137 -1.0816  1.0337  0.2357
   39MOL   H178 7854   0.652   5.491   2.108  0.2737 -0.0506  0.1493
   39MOL   H179 7855   0.576   5.387   1.857 -1.6031  1.4712  0.7180
   39MOL   H180 7856   0.644   5.231   1.726  2.9069  1.7740 -0.0411
   39MOL   H181 7857   0.679   5.074   1.800  0.5345  0.2313 -0.0425
   39MOL   C182 7858   0.765   5.464   1.893  0.5095 -0.6704  0.6413
   39MOL   C183 7859   0.740   5.620   1.876  0.0820 -0.4815 -0.2829
   39MOL   C184 7860   0.715   5.654   1.732  0.6814 -1.0206  0.3000
   39MOL   O185 7861   0.798   5.652   1.640 -0.5260  0.1894  0.0733
   39MOL   N186 7862   0.593   5.705   1.712  0.0573 -0.1527 -0.3248
   39MOL   H187 7863   0.791   5.425   1.795  2.1148  0.9149  0.4118
   39MOL   H188 7864   0.853   5.432   1.949  0.3984 -1.4154  0.3846
   39MOL   H189 7865   0.644   5.633   1.925 -0.0246  2.2410 -1.1755
   39MOL   H190 7866   0.544   5.726   1.798 -0.3233  0.2095 -0.6246
   39MOL   H191 7867   0.562   5.752   1.628  1.0068 -1.0828 -1.2056
   39MOL   C192 7868   0.852   5.707   1.932 -0.3836  1.0603  0.0721
   39MOL   C193 7869   0.816   5.852   1.950 -0.6664  0.2324  0.2550
   39MOL   C194 7870   0.921   5.925   2.034 -0.5491  0.2856  0.1760
   39MOL   O195 7871   1.042   5.888   2.042  0.3878 -0.3968 -0.0680
   39MOL   N196 7872   0.880   6.033   2.104 -0.0670  0.1045  0.3494
   39MOL   H197 7873   0.941   5.685   1.872 -1.2498 -1.6930 -0.2764
   39MOL   H198 7874   0.869   5.665   2.031 -1.3388  1.0294  0.2214
   39MOL   H199 7875   0.799   5.902   1.855  1.1170  0.0611 -0.1717
   39MOL   H200 7876   0.949   6.080   2.162  0.8510  0.0918 -0.6994
   39MOL   H201 7877   0.785   6.065   2.098  0.0337  0.4142  0.3702
   39MOL   H202 7878   0.720   5.853   2.002  0.0137 -1.0342  1.5621
   40MOL     C1 7879   4.648   6.528   4.852  0.1312  0.5900  0.4901
   40MOL     C2 7880   4.544   6.507   4.735  0.0958  0.0266 -0.1595
   40MOL     C3 7881   4.503   6.652   4.676  0.0774  0.4306 -0.6300
   40MOL     O4 7882   4.384   6.695   4.666  0.5164  0.5381  0.1099
   40MOL     N5 7883   4.604   6.734   4.648  0.2006  0.0766  0.4591
   40MOL     H6 7884   4.602   6.571   4.941 -1.4759  0.9854 -0.5117
   40MOL     H7 7885   4.699   6.436   4.880 -3.2033 -1.1639  0.9564
   40MOL     H8 7886   4.594   6.454   4.653 -0.9882  1.1496 -1.5870
   40MOL     H9 7887   4.583   6.830   4.623 -0.1572  0.6371  2.8363
   40MOL    H10 7888   4.699   6.700   4.652 -0.0048 -0.5009  0.4330
   40MOL    H11 7889   4.723   6.604   4.829 -0.0344  0.8740  0.8918
   40MOL    C12 7890   4.411   6.428   4.770 -0.1668  0.4283  0.1539
   40MOL    C13 7891   4.429   6.290   4.841  0.1849  0.3486 -0.5595
   40MOL    C14 7892   4.480   6.173   4.753  0.9350  0.1851  0.0487
   40MOL    O15 7893   4.418   6.140   4.650 -0.5902 -0.9340 -0.5665
   40MOL    N16 7894   4.584   6.109   4.794  0.4955 -0.0776 -0.1659
   40MOL    H17 7895   4.358   6.397   4.680 -0.6129 -1.0329  0.9065
   40MOL    H18 7896   4.344   6.494   4.825 -0.7866  0.8905 -1.1313
   40MOL    H19 7897   4.501   6.300   4.923  0.8841  0.9707 -1.2448
   40MOL    H20 7898   4.625   6.134   4.883  0.5382  1.1395 -0.5292
   40MOL    H21 7899   4.617   6.025   4.749 -0.6119 -1.5662  1.6597
   40MOL    C22 7900   4.290   6.259   4.909 -0.1849  0.1368 -0.7393
   40MOL    C23 7901   4.303   6.141   5.014  0.0748  0.0100  0.2005
   40MOL    C24 7902   4.159   6.084   5.035 -0.3542 -0.1246  0.4413
   40MOL    O25 7903   4.076   6.152   5.093  0.0358  0.0236  0.6716
   40MOL    N26 7904   4.133   5.964   4.988  0.4468  0.3158  0.0189
   40MOL    H27 7905   4.224   6.225   4.829  0.7891 -0.4663 -1.3004
   40MOL    H28 7906   4.245   6.351   4.948  0.7711  0.5107 -0.5133
   40MOL    H29 7907   4.363   6.063   4.965 -0.2128 -0.3334  0.3967
   40MOL    H30 7908   4.058   5.904   5.019  2.5105 -1.5694  1.5608
   40MOL    H31 7909   4.214   5.910   4.961 -0.1315 -1.5918  1.9146
   40MOL    C32 7910   4.379   6.173   5.145 -0.1841  0.6075  0.6363
   40MOL    C33 7911   4.379   6.074   5.262 -0.5499  0.4567 -0.1745
   40MOL    C34 7912   4.464   6.137   5.376  0.0381 -0.1966 -0.2686
   40MOL    O35 7913   4.582   6.140   5.371  0.1752 -0.1950  0.0905
   40MOL    N36 7914   4.387   6.186   5.467 -0.5835 -0.1890  0.2218
   40MOL    H37 7915   4.320   6.261   5.173 -0.5847  1.0366 -1.5064
   40MOL    H38 7916   4.482   6.198   5.119  0.8324 -1.6819  2.2980
   40MOL    H39 7917   4.276   6.061   5.293  0.7143 -1.0647  3.7456
   40MOL    H40 7918   4.287   6.176   5.460 -0.3503 -2.1454 -0.7625
   40MOL    H41 7919   4.431   6.243   5.538  1.1554 -0.0535 -0.9179
   40MOL    C42 7920   4.439   5.938   5.218 -0.1048  0.6273 -0.0261
   40MOL    C43 7921   4.407   5.814   5.309  0.7441 -0.2417 -0.4345
   40MOL    C44 7922   4.255   5.786   5.315 -0.1404 -0.2143  0.3817
   40MOL    O45 7923   4.196   5.846   5.403 -0.1782  0.3082  0.3702
   40MOL    N46 7924   4.188   5.716   5.220  0.0643  0.3322 -0.7352
   40MOL    H47 7925   4.546   5.937   5.196 -0.1329 -0.5396 -0.1057
   40MOL    H48 7926   4.393   5.915   5.122  0.2656  1.7393 -0.4806
   40MOL    H49 7927   4.454   5.740   5.243 -0.6492 -0.6024 -1.0358
   40MOL    H50 7928   4.240   5.660   5.154  0.0800  0.5027 -0.8672
   40MOL    H51 7929   4.087   5.710   5.217  0.1583 -2.5490  0.2391
   40MOL    C52 7930   4.483   5.803   5.436 -0.0283 -0.3668  0.4759
   40MOL    C53 7931   4.591   5.696   5.449 -0.1989  0.0099 -0.4728
   40MOL    C54 7932   4.649   5.709   5.593 -0.0634  0.3963  0.4705
   40MOL    O55 7933   4.710   5.815   5.627 -0.4243 -0.0116  0.1922
   40MOL    N56 7934   4.625   5.607   5.676 -0.5240  0.2395  0.1599
   40MOL    H57 7935   4.411   5.783   5.516 -0.0106 -1.4734  0.2208
   40MOL    H58 7936   4.528   5.901   5.454 -0.9628  0.1956 -0.2206
   40MOL    H59 7937   4.553   5.594   5.444 -0.0356  0.0058 -2.1698
   40MOL    H60 7938   4.571   5.524   5.653 -0.8899  0.7966 -1.0109
   40MOL    H61 7939   4.672   5.616   5.766  0.1545  1.0511 -0.2705
   40MOL    C62 7940   4.704   5.708   5.345 -0.1321  0.0497 -0.6018
   40MOL    C63 7941   4.835   5.627   5.347  0.9038  0.1637 -0.9220
   40MOL    C64 7942   4.906   5.643   5.210  0.1259 -0.0968  0.3106
   40MOL    O65 7943   4.870   5.600   5.100 -0.9205  0.1207 -0.4435
   40MOL    N66 7944   5.014   5.712   5.217 -0.2685 -0.3818  0.7426
   40MOL    H67 7945   4.741   5.809   5.331 -0.8046  0.3277 -0.3777
   40MOL    H68 7946   4.656   5.683   5.250  1.6905  0.1417 -1.5650
   40MOL    H69 7947   4.894   5.651   5.436 -0.1419  1.3573 -0.5379
   40MOL    H70 7948   5.069   5.726   5.133  0.0228 -1.2991  0.7759
   40MOL    H71 7949   5.057   5.738   5.304  1.7834 -2.5210  0.4330
   40MOL    C72 7950   4.786   5.477   5.363 -0.0956 -0.4012 -0.6989
   40MOL    C73 7951   4.894   5.369   5.324 -0.0646 -0.0130  0.0994
   40MOL    C74 7952   4.833   5.236   5.299 -0.0346 -0.3197  0.5153
   40MOL    O75 7953   4.784   5.171   5.384  0.1456  0.0657 -0.2141
   40MOL    N76 7954   4.831   5.205   5.174 -0.2295  0.1555 -0.1011
   40MOL    H77 7955   4.699   5.465   5.299 -0.2769  0.2622 -0.5786
   40MOL    H78 7956   4.747   5.453   5.462 -1.9913 -0.5844 -1.4545
   40MOL    H79 7957   4.935   5.404   5.229  0.4059  0.1408  0.3571
   40MOL    H80 7958   4.767   5.131   5.150 -0.3901  0.6074 -1.0968
   40MOL    H81 7959   4.870   5.265   5.102  2.0006 -0.4966  0.5455
   40MOL    C82 7960   5.018   5.359   5.417  0.4426 -0.3984  0.3722
   40MOL    C83 7961   4.994   5.314   5.564 -0.1703 -0.0787  0.2513
   40MOL    C84 7962   5.023   5.438   5.653 -0.4337 -0.5921  0.1778
   40MOL    O85 7963   5.133   5.465   5.711  0.3668  0.3528  1.0143
   40MOL    N86 7964   4.922   5.511   5.679  1.2812  0.2030  0.0453
   40MOL    H87 7965   5.076   5.450   5.406 -1.5626  0.9153  0.4761
   40MOL    H88 7966   5.094   5.291   5.379 -0.2736 -0.4914 -0.9217
   40MOL    H89 7967   4.889   5.289   5.576 -0.1953 -0.0368  0.1266
   40MOL    H90 7968   4.827   5.485   5.655  0.9683  1.1490  0.2537
   40MOL    H91 7969   4.928   5.597   5.732  1.3071 -0.4085  1.0333
   40MOL    C92 7970   5.087   5.191   5.605 -0.2156  0.9548 -0.9157
   40MOL    C93 7971   5.016   5.061   5.647  0.1703  0.1292  0.2102
   40MOL    C94 7972   4.943   5.077   5.774 -0.1718  1.1381 -0.1056
   40MOL    O95 7973   4.984   5.139   5.871  0.0292 -0.3049 -0.3804
   40MOL    N96 7974   4.825   5.020   5.780 -0.2029 -0.0575 -0.2915
   40MOL    H97 7975   5.158   5.218   5.683 -1.2211 -0.2932  0.4679
   40MOL    H98 7976   5.157   5.162   5.527  0.5010  0.8223 -0.2176
   40MOL    H99 7977   4.938   5.044   5.574  1.6811  1.9149 -1.8945
   40MOL   H100 7978   4.763   5.037   5.858  1.1351 -0.5946  0.9171
   40MOL   H101 7979   4.804   4.944   5.717 -0.8824  0.2607 -0.4539
   40MOL   C102 7980   5.107   4.930   5.641  0.6018  0.1262 -0.2772
   40MOL   C103 7981   5.208   4.912   5.755  0.3762  0.1819  0.7029
   40MOL   C104 7982   5.331   5.001   5.740 -0.3579 -0.0657  0.0571
   40MOL   O105 7983   5.405   4.995   5.638 -0.1514  0.0447 -0.2389
   40MOL   N106 7984   5.352   5.079   5.843  0.0870  0.2562 -0.1143
   40MOL   H107 7985   5.164   4.900   5.554 -0.3610 -1.2049 -0.4702
   40MOL   H108 7986   5.043   4.843   5.655 -0.1289  0.5285 -1.0609
   40MOL   H109 7987   5.161   4.936   5.850  0.9895 -1.9833  1.5841
   40MOL   H110 7988   5.282   5.083   5.915 -0.9341  1.1852 -1.1370
   40MOL   H111 7989   5.420   5.153   5.833  0.9276 -0.1053  2.6589
   40MOL   C112 7990   5.243   4.759   5.770 -0.1407  0.1279 -0.0572
   40MOL   C113 7991   5.236   4.688   5.910 -0.0919 -0.1749  0.2980
   40MOL   C114 7992   5.087   4.684   5.967  0.2291  0.6111  0.3085
   40MOL   O115 7993   5.024   4.789   5.982  0.2996 -0.0548 -0.0483
   40MOL   N116 7994   5.038   4.566   5.989 -0.1462 -0.0221 -1.2350
   40MOL   H117 7995   5.340   4.741   5.723  0.1355 -0.5935  0.7615
   40MOL   H118 7996   5.189   4.689   5.706 -2.3176  1.6751  0.0650
   40MOL   H119 7997   5.261   4.582   5.900  1.7593 -0.0291  2.6914
   40MOL   H120 7998   5.094   4.486   5.963  1.6687  0.8823 -0.2348
   40MOL   H121 7999   4.942   4.548   6.015  0.5245  1.9304  2.9998
   40MOL   C122 8000   5.333   4.739   6.018 -0.0175  0.5641 -0.5390
   40MOL   C123 8001   5.399   4.632   6.105 -0.1339 -0.2169  0.2738
   40MOL   C124 8002   5.513   4.567   6.031  1.2373 -0.1446  0.5641
   40MOL   O125 8003   5.504   4.449   6.010 -0.1215 -0.2462  0.4092
   40MOL   N126 8004   5.617   4.634   5.987  0.4692 -0.3563 -0.7887
   40MOL   H127 8005   5.281   4.813   6.079 -1.7601 -2.8783  2.3094
   40MOL   H128 8006   5.410   4.799   5.969  0.4436  0.3105 -0.1229
   40MOL   H129 8007   5.453   4.690   6.179 -1.2632  2.2592 -0.7913
   40MOL   H130 8008   5.682   4.579   5.932  1.1502 -0.5568  0.2159
   40MOL   H131 8009   5.619   4.734   5.974  2.0626 -0.2265  0.3160
   40MOL   C132 8010   5.308   4.546   6.192 -0.3967 -0.2006  0.0192
   40MOL   C133 8011   5.342   4.527   6.344 -0.0112 -1.1911 -0.7668
   40MOL   C134 8012   5.486   4.471   6.373  1.2834  0.5772 -0.3571
   40MOL   O135 8013   5.511   4.353   6.356  0.0017 -0.1193 -0.0638
   40MOL   N136 8014   5.566   4.556   6.439 -0.5443  0.5445  0.4540
   40MOL   H137 8015   5.297   4.443   6.156  1.3769 -0.4241  0.0285
   40MOL   H138 8016   5.213   4.598   6.187 -0.4156 -0.0719  1.5991
   40MOL   H139 8017   5.348   4.630   6.382 -1.2810 -1.7040  0.8823
   40MOL   H140 8018   5.534   4.651   6.453  2.1161  1.7315 -1.2818
   40MOL   H141 8019   5.657   4.533   6.475  0.2583  1.1462 -1.1116
   40MOL   C142 8020   5.227   4.454   6.425 -0.0533  0.0722 -0.3230
   40MOL   C143 8021   5.259   4.416   6.571  0.1135 -0.1178 -0.6412
   40MOL   C144 8022   5.179   4.295   6.623 -0.3522  0.4632 -0.8331
   40MOL   O145 8023   5.072   4.260   6.578 -0.7165 -0.4877  0.6329
   40MOL   N146 8024   5.237   4.226   6.716  0.0787  0.0703 -0.2410
   40MOL   H147 8025   5.195   4.371   6.362  0.4330 -1.3447  1.2464
   40MOL   H148 8026   5.132   4.507   6.432  0.7689  1.2825  2.3099
   40MOL   H149 8027   5.357   4.367   6.574  0.3143  0.2246 -1.6449
   40MOL   H150 8028   5.194   4.141   6.750  0.9581  0.8145  2.9116
   40MOL   H151 8029   5.317   4.268   6.763  0.7852  0.4459 -1.7503
   40MOL   C152 8030   5.256   4.538   6.674 -0.4528  0.4177 -0.7308
   40MOL   C153 8031   5.152   4.546   6.786  1.0575  0.5252 -0.6885
   40MOL   C154 8032   5.025   4.618   6.735 -0.2125  0.2602  0.8120
   40MOL   O155 8033   5.022   4.740   6.730  0.8048 -0.4764  0.4762
   40MOL   N156 8034   4.913   4.546   6.708  0.3359 -0.1844 -0.5089
   40MOL   H157 8035   5.276   4.630   6.618 -1.4409 -0.4068 -2.4869
   40MOL   H158 8036   5.351   4.528   6.727  0.0787  0.0948 -1.7192
   40MOL   H159 8037   5.119   4.448   6.820  0.0578  0.2484 -2.3865
   40MOL   H160 8038   4.907   4.448   6.732  0.6163 -0.7244 -2.5875
   40MOL   H161 8039   4.835   4.601   6.674  2.1155  1.6446 -1.7076
   40MOL   C162 8040   5.210   4.630   6.910  0.1896 -0.1025 -0.7741
   40MOL   C163 8041   5.241   4.561   7.047 -0.1684  0.2192  0.1821
   40MOL   C164 8042   5.350   4.446   7.033 -0.2920 -0.1596 -0.3623
   40MOL   O165 8043   5.329   4.328   6.993  0.0806 -0.2102 -0.6198
   40MOL   N166 8044   5.464   4.473   7.088 -0.5953  0.4897  0.5276
   40MOL   H167 8045   5.145   4.713   6.939 -1.7436 -1.7594 -0.2186
   40MOL   H168 8046   5.297   4.676   6.864  0.2764  0.2321 -0.2742
   40MOL   H169 8047   5.296   4.633   7.107 -0.2035  1.0879 -0.8231
   40MOL   H170 8048   5.483   4.564   7.128 -1.5985  0.5907  0.7917
   40MOL   H171 8049   5.528   4.395   7.092  1.0297  1.6980 -1.1896
   40MOL   C172 8050   5.110   4.521   7.127  0.3204 -0.1825 -0.8988
   40MOL   C173 8051   5.113   4.531   7.283 -0.3697  0.1145  0.4733
   40MOL   C174 8052   4.988   4.464   7.337 -0.7394 -0.5023  0.3101
   40MOL   O175 8053   4.881   4.489   7.289  0.2089 -0.0272 -0.3700
   40MOL   N176 8054   5.005   4.387   7.437 -0.2615  0.4502  0.5120
   40MOL   H177 8055   5.075   4.422   7.098  0.0075 -0.2212 -0.3956
   40MOL   H178 8056   5.030   4.581   7.084 -1.8272 -2.1016  0.3571
   40MOL   H179 8057   5.201   4.478   7.320 -0.1721 -0.4551 -0.8013
   40MOL   H180 8058   4.922   4.338   7.470 -1.0183  1.4093  0.0555
   40MOL   H181 8059   5.100   4.361   7.461  1.0385  2.0539 -2.6945
   40MOL   C182 8060   5.114   4.681   7.332  0.1033 -0.1446 -0.4546
   40MOL   C183 8061   5.163   4.699   7.482 -0.1160  0.1041 -0.2463
   40MOL   C184 8062   5.078   4.811   7.541 -0.0535 -0.2936  0.4588
   40MOL   O185 8063   4.961   4.800   7.548  0.0161  0.3815  0.7380
   40MOL   N186 8064   5.132   4.921   7.584 -0.3362 -0.0337  0.3203
   40MOL   H187 8065   5.021   4.729   7.302 -0.8681 -0.8989  1.2894
   40MOL   H188 8066   5.180   4.746   7.275 -1.2466  1.8265  0.1698
   40MOL   H189 8067   5.134   4.611   7.538 -1.7966  1.2126  0.6678
   40MOL   H190 8068   5.081   4.992   7.634  1.0519  1.0431  0.2606
   40MOL   H191 8069   5.227   4.951   7.567  0.0726 -0.9525  0.9737
   40MOL   C192 8070   5.312   4.720   7.482 -0.2221  0.5420  0.4267
   40MOL   C193 8071   5.379   4.681   7.618 -0.5444  0.4261  0.6326
   40MOL   C194 8072   5.528   4.680   7.605 -0.7378  0.8280 -0.6724
   40MOL   O195 8073   5.599   4.757   7.537  0.1157 -0.6171  0.1316
   40MOL   N196 8074   5.600   4.590   0.017  0.3819 -0.1366  0.6650
   40MOL   H197 8075   5.332   4.822   7.450 -1.2131  1.5515  2.9204
   40MOL   H198 8076   5.355   4.660   7.401  1.2012  0.5493  1.1819
   40MOL   H199 8077   5.354   4.748   0.043  0.4967 -1.2208  2.3531
   40MOL   H200 8078   5.695   4.562   7.656  0.1207 -0.8857  0.4144
   40MOL   H201 8079   5.548   4.512   0.054  0.2790 -0.5380 -0.3027
   40MOL   H202 8080   5.342   4.581   7.641  1.6000  0.2803  3.8876
   41MOL     C1 8081   5.393   3.380   1.028  0.0471 -0.3709  0.0372
   41MOL     C2 8082   5.366   3.447   0.889  0.4060  0.6399 -0.8705
   41MOL     C3 8083   5.329   3.343   0.783  0.4291  0.1698  0.1338
   41MOL     O4 8084   5.339   3.364   0.662 -0.5298 -0.3633 -0.2084
   41MOL     N5 8085   5.274   3.231   0.827  0.1036  0.0375  0.2642
   41MOL     H6 8086   5.454   3.292   1.012 -1.2016 -1.1306 -0.6295
   41MOL     H7 8087   5.450   3.451   1.089 -1.8641  0.3554  1.0160
   41MOL     H8 8088   5.268   3.496   0.887 -1.5836 -3.1011 -0.4959
   41MOL     H9 8089   5.250   3.251   0.924 -1.2237  0.2196 -0.0903
   41MOL    H10 8090   5.234   3.156   0.772 -0.8170 -0.0518  1.0248
   41MOL    H11 8091   5.302   3.359   1.084 -0.3286  0.4439 -0.2472
   41MOL    C12 8092   5.483   3.545   0.850  0.5300 -0.0028 -0.5495
   41MOL    C13 8093   5.448   3.696   0.871 -0.4898 -0.3142  0.4583
   41MOL    C14 8094   5.354   3.750   0.766 -0.4837  0.1419  0.5388
   41MOL    O15 8095   5.370   3.728   0.648  0.2402  0.2926  0.0804
   41MOL    N16 8096   5.253   3.821   0.805  0.5171  0.3338 -0.1583
   41MOL    H17 8097   5.512   3.532   0.746  1.4533  1.0141 -0.4238
   41MOL    H18 8098   5.571   3.527   0.912 -0.8617 -0.8007  1.2493
   41MOL    H19 8099   5.398   3.699   0.967 -0.7376  2.4902  0.2979
   41MOL    H20 8100   5.235   3.858   0.897  0.4921  2.1043 -0.8532
   41MOL    H21 8101   5.199   3.861   0.729 -0.1429  0.7898  0.5505
   41MOL    C22 8102   5.570   3.787   0.876  0.5266  0.4653  0.0884
   41MOL    C23 8103   5.672   3.777   1.000 -0.5712  1.1522  0.2081
   41MOL    C24 8104   5.594   3.808   1.132  0.5791 -0.4727 -0.0052
   41MOL    O25 8105   5.520   3.906   1.130 -0.3684  0.1012  0.7810
   41MOL    N26 8106   5.590   3.713   1.228 -0.0708 -0.3310 -0.3785
   41MOL    H27 8107   5.527   3.887   0.875 -0.2468  0.1280 -0.5723
   41MOL    H28 8108   5.605   3.782   0.773  2.4120 -0.8906  0.7604
   41MOL    H29 8109   5.725   3.684   1.020 -2.9711  0.0451  1.6520
   41MOL    H30 8110   5.532   3.726   1.310  0.3814  0.1698 -0.1352
   41MOL    H31 8111   5.644   3.628   1.227  0.6132  0.1068 -1.3738
   41MOL    C32 8112   5.776   3.897   0.969  0.2572  0.1203 -0.1867
   41MOL    C33 8113   5.912   3.850   0.902 -0.2011 -0.0736 -0.7429
   41MOL    C34 8114   6.035   3.829   0.995 -1.1167 -0.2432  0.4279
   41MOL    O35 8115   6.042   3.894   1.097 -0.4700 -0.4681  0.3108
   41MOL    N36 8116   6.118   3.731   0.965 -0.0146  0.4401  0.2732
   41MOL    H37 8117   5.793   3.948   1.064 -2.1836  0.6742 -0.0127
   41MOL    H38 8118   5.735   3.971   0.901  0.1538 -0.6646 -0.9852
   41MOL    H39 8119   5.891   3.755   0.855 -2.5034  0.8801 -1.7128
   41MOL    H40 8120   6.091   3.654   0.905  1.1142  0.9198 -0.8681
   41MOL    H41 8121   6.206   3.730   1.013  1.0500 -2.2623 -1.6113
   41MOL    C42 8122   5.955   3.949   0.781  0.6444  0.7116  0.1011
   41MOL    C43 8123   5.901   3.890   0.641 -0.5648  0.5297  0.3160
   41MOL    C44 8124   5.963   3.755   0.605 -0.2014 -0.0767 -0.2004
   41MOL    O45 8125   5.890   3.661   0.570 -0.4963 -0.6685 -0.1008
   41MOL    N46 8126   6.098   3.742   0.598  0.1600  0.3623 -0.4057
   41MOL    H47 8127   6.063   3.946   0.769  0.6705  0.3486  0.3946
   41MOL    H48 8128   5.915   4.050   0.782 -0.5388  0.2611  1.6400
   41MOL    H49 8129   5.796   3.878   0.668 -1.2909  0.4456 -2.4704
   41MOL    H50 8130   6.157   3.822   0.617 -0.6376  0.1092  3.5891
   41MOL    H51 8131   6.140   3.654   0.572 -1.2333 -0.6335  0.6528
   41MOL    C52 8132   5.904   3.996   0.523  0.8695  0.6149  0.6161
   41MOL    C53 8133   5.786   4.093   0.521 -0.2225 -0.9434 -0.1841
   41MOL    C54 8134   5.657   4.016   0.483 -0.1676  0.1552  1.0200
   41MOL    O55 8135   5.641   3.973   0.372 -0.1106  0.2814  0.1797
   41MOL    N56 8136   5.560   4.014   0.573 -0.1604 -0.3194  0.2749
   41MOL    H57 8137   5.886   3.935   0.434  4.0692  3.1119 -1.8501
   41MOL    H58 8138   6.000   4.045   0.510  1.3463 -0.1078  1.3240
   41MOL    H59 8139   5.775   4.132   0.622  2.7643 -2.8668  0.9524
   41MOL    H60 8140   5.467   3.999   0.538 -0.0624 -0.1848 -0.0548
   41MOL    H61 8141   5.576   4.077   0.650  1.2687  1.6135 -1.5350
   41MOL    C62 8142   5.810   4.199   0.409  0.1009  0.3667  0.8987
   41MOL    C63 8143   5.887   4.326   0.450 -0.2118  0.3059  0.1241
   41MOL    C64 8144   5.827   4.454   0.391 -0.1846  0.1524  0.0324
   41MOL    O65 8145   5.793   4.471   0.276  0.5865  0.9087  0.5456
   41MOL    N66 8146   5.821   4.558   0.473 -0.4316 -0.0839 -0.1599
   41MOL    H67 8147   5.711   4.221   0.371  0.4947 -1.3071 -1.1844
   41MOL    H68 8148   5.867   4.149   0.330  0.7114 -1.6571  2.5819
   41MOL    H69 8149   5.860   4.335   0.555  2.8469 -1.3917  1.1136
   41MOL    H70 8150   5.795   4.651   0.445  0.9768  0.2377 -0.4332
   41MOL    H71 8151   5.858   4.543   0.566  1.0535 -0.4113 -0.7808
   41MOL    C72 8152   6.043   4.326   0.437 -0.0441 -0.2615  0.5039
   41MOL    C73 8153   6.135   4.332   0.561 -0.0085 -0.2728  0.7680
   41MOL    C74 8154   6.118   4.476   0.622  0.1731  0.8186  0.5167
   41MOL    O75 8155   6.196   4.565   0.594 -0.1666 -0.1977 -0.2577
   41MOL    N76 8156   6.013   4.502   0.704 -0.0314 -0.4979 -0.4029
   41MOL    H77 8157   6.076   4.407   0.372  0.2180 -1.1231 -0.4638
   41MOL    H78 8158   6.066   4.246   0.366  1.2169  0.9546 -0.4724
   41MOL    H79 8159   6.106   4.255   0.633 -1.3824  0.7268  1.3146
   41MOL    H80 8160   5.958   4.427   0.743  1.3685 -0.7909  1.0782
   41MOL    H81 8161   6.020   4.594   0.745  0.2676 -0.8359  0.2990
   41MOL    C82 8162   6.274   4.316   0.519 -0.2806 -0.1286 -0.0101
   41MOL    C83 8163   6.381   4.322   0.637  0.3028 -0.1389  0.4402
   41MOL    C84 8164   6.521   4.342   0.580  0.1626  0.1540 -0.3423
   41MOL    O85 8165   6.574   4.256   0.511 -0.0535 -0.4179  0.5127
   41MOL    N86 8166   6.585   4.450   0.619 -0.3063  0.3236  0.1199
   41MOL    H87 8167   6.298   4.398   0.452 -0.4632  0.1737  0.2909
   41MOL    H88 8168   6.296   4.223   0.465  0.8230  0.3187 -0.3405
   41MOL    H89 8169   6.356   4.417   0.684  0.7665 -0.9557  2.3898
   41MOL    H90 8170   6.662   4.469   0.556 -0.9111 -0.0264 -0.7468
   41MOL    H91 8171   6.542   4.526   0.669 -0.5099  1.4992 -1.8025
   41MOL    C92 8172   6.370   4.212   0.740 -0.4139  0.3965 -0.0256
   41MOL    C93 8173   6.430   4.078   0.709 -0.3489 -0.1263 -0.0798
   41MOL    C94 8174   6.366   4.010   0.584 -0.1384 -0.3872 -0.4114
   41MOL    O95 8175   6.250   3.973   0.588 -0.6081  0.0578  0.1599
   41MOL    N96 8176   6.448   3.981   0.482 -0.6137  0.1165 -0.3761
   41MOL    H97 8177   6.272   4.208   0.788 -0.2766 -0.3024  0.1957
   41MOL    H98 8178   6.426   4.256   0.823  0.9823  2.2568 -1.8967
   41MOL    H99 8179   6.537   4.092   0.698 -0.8189  2.7252 -1.4376
   41MOL   H100 8180   6.544   4.011   0.493 -0.5025 -0.8031  1.3357
   41MOL   H101 8181   6.413   3.936   0.398 -0.9517 -2.1106  0.9126
   41MOL   C102 8182   6.408   3.984   0.833 -0.0612  0.2277 -0.5612
   41MOL   C103 8183   6.501   3.861   0.837 -0.1176 -0.3000  0.4721
   41MOL   C104 8184   6.427   3.743   0.904 -0.0423 -0.3340  0.9311
   41MOL   O105 8185   6.404   3.748   1.027 -0.1092 -0.0230 -0.0323
   41MOL   N106 8186   6.390   3.641   0.833  0.1341 -0.1969  0.0017
   41MOL   H107 8187   6.303   3.958   0.849  0.3960 -1.7206 -0.5085
   41MOL   H108 8188   6.424   4.033   0.929  0.3053 -1.9193  0.5015
   41MOL   H109 8189   6.524   3.815   0.740  3.8026  0.8702  0.7370
   41MOL   H110 8190   6.351   3.557   0.873  1.9255 -0.4033  1.3790
   41MOL   H111 8191   6.403   3.641   0.732  0.2106 -0.1628  0.0116
   41MOL   C112 8192   6.640   3.878   0.906  0.6381 -0.5089 -0.6996
   41MOL   C113 8193   6.758   3.885   0.812  0.5105 -0.4485  0.0096
   41MOL   C114 8194   6.802   3.746   0.762  0.5672 -0.1811  0.1739
   41MOL   O115 8195   6.791   3.646   0.829  0.6697 -0.1560 -0.2423
   41MOL   N116 8196   6.830   3.734   0.632  0.1822 -0.6993  0.4302
   41MOL   H117 8197   6.651   3.807   0.987 -0.9934 -1.5719 -1.3768
   41MOL   H118 8198   6.639   3.973   0.960 -0.0554 -2.0943  2.1123
   41MOL   H119 8199   6.712   3.938   0.729 -0.4621 -0.6721  0.3936
   41MOL   H120 8200   6.854   3.644   0.592 -0.5686  0.5437 -2.9628
   41MOL   H121 8201   6.813   3.803   0.560 -0.0949 -0.4985  0.6887
   41MOL   C122 8202   6.868   3.970   0.881  0.6715  0.0343 -0.1968
   41MOL   C123 8203   6.966   4.031   0.773 -0.8411  0.5954  0.2813
   41MOL   C124 8204   7.083   4.098   0.839 -0.2862 -0.1887 -0.3768
   41MOL   O125 8205   7.064   4.179   0.931  0.0563  0.1172  0.5507
   41MOL   N126 8206   7.206   4.079   0.801 -0.3920  0.2470 -0.5750
   41MOL   H127 8207   6.922   3.905   0.950  0.1919 -0.7329 -0.5429
   41MOL   H128 8208   6.831   4.058   0.935  0.0599 -0.4377  0.1569
   41MOL   H129 8209   7.006   3.944   0.721  1.4901  3.0760 -2.2222
   41MOL   H130 8210   7.241   4.046   0.712 -1.2662  1.3139 -1.3197
   41MOL   H131 8211   7.284   4.125   0.847 -0.8855  0.7273 -0.2160
   41MOL   C132 8212   6.889   4.133   0.683 -0.2564  0.8366  0.1388
   41MOL   C133 8213   6.925   4.140   0.538 -0.8383 -0.2907  0.8301
   41MOL   C134 8214   6.888   4.007   0.461  0.0211 -0.0348  0.1623
   41MOL   O135 8215   6.774   3.968   0.466 -0.0703  0.4291  0.3019
   41MOL   N136 8216   6.991   3.932   0.412 -0.2533 -0.5599 -0.4440
   41MOL   H137 8217   6.895   4.229   0.734 -1.6781 -0.2539  2.4731
   41MOL   H138 8218   6.780   4.129   0.689 -0.2151 -0.2157  0.3927
   41MOL   H139 8219   6.858   4.214   0.495 -2.0141 -0.4498  2.3589
   41MOL   H140 8220   6.956   3.868   0.343 -2.2224 -1.0832  1.0172
   41MOL   H141 8221   7.083   3.974   0.400 -0.5783  0.5914  0.9564
   41MOL   C142 8222   7.071   4.190   0.497 -0.0473 -0.4708  0.8476
   41MOL   C143 8223   7.113   4.333   0.538  0.3283 -0.1570  0.2380
   41MOL   C144 8224   7.024   4.446   0.481 -0.4236 -0.5772 -0.2042
   41MOL   O145 8225   7.030   4.469   0.361  0.4810 -0.0631 -0.5421
   41MOL   N146 8226   6.957   4.530   0.560  0.2127  0.0555 -0.9788
   41MOL   H147 8227   7.087   4.179   0.390  2.6703 -1.8015  1.3512
   41MOL   H148 8228   7.142   4.122   0.544  2.7073  1.2970 -0.6481
   41MOL   H149 8229   7.101   4.336   0.646 -0.5585 -1.6883  0.2014
   41MOL   H150 8230   6.902   4.604   0.520 -0.2169  0.3252  0.0851
   41MOL   H151 8231   6.954   4.504   0.658 -0.0045 -0.8745 -1.2320
   41MOL   C152 8232   7.271   4.355   0.525  0.1667 -0.0714 -0.2996
   41MOL   C153 8233   7.351   4.415   0.397  0.7382  0.1188 -0.0076
   41MOL   C154 8234   7.339   4.354   0.260  0.0737  0.0466  0.4022
   41MOL   O155 8235   7.425   4.278   0.222  0.2430  0.1740  0.3044
   41MOL   N156 8236   7.232   4.374   0.187  0.6588 -0.3244  0.3275
   41MOL   H157 8237   7.317   4.258   0.545  0.1742  0.4105  2.2550
   41MOL   H158 8238   7.308   4.418   0.606  2.2866 -0.2534 -1.1120
   41MOL   H159 8239   7.308   4.515   0.387 -0.1536 -0.4089 -1.8721
   41MOL   H160 8240   7.153   4.425   0.225  0.0110  0.2725 -1.7755
   41MOL   H161 8241   7.223   4.317   0.104  0.7779 -1.2096  0.9184
   41MOL   C162 8242   7.504   4.430   0.436 -0.1174  1.0754 -0.9626
   41MOL   C163 8243   7.577   4.306   0.485 -0.4127  0.6827  0.4443
   41MOL   C164 8244   7.574   4.278   0.637 -0.9901  0.1915 -1.0783
   41MOL   O165 8245   7.573   4.370   0.723 -0.6387 -0.1389  0.5218
   41MOL   N166 8246   7.587   4.148   0.673 -0.0456 -0.1961 -0.7420
   41MOL   H167 8247   7.524   4.507   0.510  0.6118 -1.4164  1.5120
   41MOL   H168 8248   7.565   4.460   0.350  0.5484 -0.0075 -0.8873
   41MOL   H169 8249   7.532   4.215   0.445  0.4656 -0.3289  1.6940
   41MOL   H170 8250   7.599   4.077   0.603  1.9363 -0.5918 -0.0395
   41MOL   H171 8251   7.595   4.128   0.772  0.9311 -0.3021 -0.8400
   41MOL   C172 8252   0.069   4.303   0.444  0.2361 -0.7610  0.0705
   41MOL   C173 8253   0.116   4.255   0.302 -0.0669  0.1504 -0.0941
   41MOL   C174 8254   0.076   4.117   0.253 -0.4387  0.5375  0.0305
   41MOL   O175 8255   0.066   4.028   0.333  0.4315 -0.1195 -0.6612
   41MOL   N176 8256   0.048   4.105   0.123 -0.1656  1.1028  0.1070
   41MOL   H177 8257   0.122   4.241   0.517 -0.2507  0.4611  1.4802
   41MOL   H178 8258   0.098   4.407   0.464 -0.2851 -1.0074  2.2635
   41MOL   H179 8259   0.062   4.322   0.236  1.1937  3.2634  1.8974
   41MOL   H180 8260   0.028   4.011   0.093 -1.2088  1.4362 -0.2748
   41MOL   H181 8261   0.064   4.180   0.057  1.1893  0.6589 -0.0930
   41MOL   C182 8262   0.266   4.278   0.304 -0.8222 -0.3842  0.3170
   41MOL   C183 8263   0.350   4.273   0.177 -0.3118  0.4566 -0.2042
   41MOL   C184 8264   0.284   4.348   0.059  0.1189  0.2073 -0.0785
   41MOL   O185 8265   0.180   4.314   0.010 -0.0673  0.2636 -0.0530
   41MOL   N186 8266   0.344   4.452   0.014 -0.0719  0.1819 -0.2764
   41MOL   H187 8267   0.311   4.216   0.381  2.2604  0.9769 -0.3206
   41MOL   H188 8268   0.289   4.378   0.340  0.3245 -0.4052 -0.3746
   41MOL   H189 8269   0.438   4.327   0.212 -0.2211 -0.9511  1.8475
   41MOL   H190 8270   0.423   4.489   0.064 -1.8086 -0.6179  3.1969
   41MOL   H191 8271   0.300   4.491   7.589  0.4619  0.0533 -0.6294
   41MOL   C192 8272   0.397   4.126   0.142  0.0314  0.4526  0.1611
   41MOL   C193 8273   0.433   4.094   0.000 -0.1728  0.1402  0.0706
   41MOL   C194 8274   0.573   4.148   7.598  0.0387  0.0510 -0.9526
   41MOL   O195 8275   0.673   4.088   7.637 -0.4713 -0.3432  0.1434
   41MOL   N196 8276   0.575   4.253   7.515 -0.7148  0.0562  0.3210
   41MOL   H197 8277   0.323   4.055   0.180  1.2187 -1.3504 -0.7891
   41MOL   H198 8278   0.490   4.108   0.196  0.2768  2.7134  0.5352
   41MOL   H199 8279   0.448   3.986   7.648  0.8231  0.3348 -0.7719
   41MOL   H200 8280   0.497   4.304   7.477 -0.8343 -0.4968 -0.1858
   41MOL   H201 8281   0.663   4.282   7.475 -1.1761  0.1874 -0.6106
   41MOL   H202 8282   0.351   4.119   7.591 -1.5674 -1.1687  1.2789
   42MOL     C1 8283   1.949   3.170   6.166  0.3106  0.0148 -0.0590
   42MOL     C2 8284   2.064   3.238   6.079  0.0786 -0.2323  0.0872
   42MOL     C3 8285   2.203   3.189   6.124 -0.3964 -0.0311 -1.1260
   42MOL     O4 8286   2.229   3.161   6.242  0.2031 -0.2139 -0.1830
   42MOL     N5 8287   2.294   3.169   6.031  0.1458 -0.5358 -0.2574
   42MOL     H6 8288   1.847   3.170   6.129  0.3254 -0.5701 -0.1041
   42MOL     H7 8289   1.962   3.063   6.185  0.5103  0.0211 -0.1564
   42MOL     H8 8290   2.058   3.185   5.984 -0.2781 -2.5367  1.3727
   42MOL     H9 8291   2.266   3.203   5.940  0.5483 -0.6321 -0.4202
   42MOL    H10 8292   2.391   3.140   6.034  0.4487  0.5516  0.7164
   42MOL    H11 8293   1.929   3.230   6.255 -0.6075  0.7031 -0.7304
   42MOL    C12 8294   2.047   3.392   6.055 -0.7589 -0.0097  0.2372
   42MOL    C13 8295   1.915   3.431   5.975 -0.0001  0.8325 -0.3177
   42MOL    C14 8296   1.936   3.542   5.871  0.6921  0.0142  0.0580
   42MOL    O15 8297   1.986   3.652   5.902 -0.0083 -0.4314  0.6169
   42MOL    N16 8298   1.897   3.515   5.747  0.2534 -0.0265  0.8543
   42MOL    H17 8299   2.136   3.427   6.004  0.4274 -1.1126  1.5175
   42MOL    H18 8300   2.053   3.441   6.152  1.5039  0.1367  0.0508
   42MOL    H19 8301   1.877   3.345   5.921  1.1027  0.7943 -1.0458
   42MOL    H20 8302   1.895   3.567   5.661 -1.0602 -0.7497  0.4362
   42MOL    H21 8303   1.863   3.421   5.730  0.2501  0.3452 -1.2607
   42MOL    C22 8304   1.801   3.477   6.076  0.3678  0.4379  0.3391
   42MOL    C23 8305   1.657   3.465   6.020  0.3235 -0.1350 -0.2729
   42MOL    C24 8306   1.556   3.546   6.102  0.0363  0.2226  0.5894
   42MOL    O25 8307   1.530   3.527   6.220 -0.2316 -0.0244 -0.1834
   42MOL    N26 8308   1.488   3.642   6.035 -0.1703  0.2526  0.1625
   42MOL    H27 8309   1.815   3.581   6.105 -1.2225  0.4541  1.0913
   42MOL    H28 8310   1.812   3.422   6.170 -3.1103  1.4287  1.3792
   42MOL    H29 8311   1.655   3.507   5.919 -2.1311 -1.0537 -0.6453
   42MOL    H30 8312   1.497   3.635   5.935  1.3887  0.9963  0.2264
   42MOL    H31 8313   1.428   3.715   6.072 -1.8005 -0.3655 -1.2317
   42MOL    C32 8314   1.610   3.329   6.005 -0.5510  0.3585 -0.1352
   42MOL    C33 8315   1.469   3.296   5.946 -0.0456  0.0528  0.0974
   42MOL    C34 8316   1.430   3.381   5.825  0.7828 -0.3596  0.8765
   42MOL    O35 8317   1.317   3.428   5.813  0.3033  0.0562 -0.5338
   42MOL    N36 8318   1.514   3.402   5.729 -0.0791  0.6254 -0.0464
   42MOL    H37 8319   1.630   3.291   6.105  0.8187  2.0333  0.2375
   42MOL    H38 8320   1.684   3.276   5.945 -1.4309 -0.0798 -0.8543
   42MOL    H39 8321   1.480   3.195   5.906  0.7012  1.2637 -2.8980
   42MOL    H40 8322   1.592   3.338   5.725  1.1458  1.9807  1.3882
   42MOL    H41 8323   1.484   3.451   5.646  0.7250  1.8092  0.3501
   42MOL    C42 8324   1.362   3.289   6.050 -0.3041  0.0891  0.6939
   42MOL    C43 8325   1.238   3.191   6.037 -0.0069  0.2816  0.2930
   42MOL    C44 8326   1.104   3.274   6.054  0.8920  0.3829  0.0175
   42MOL    O45 8327   1.067   3.301   6.163 -0.2977 -0.5560 -0.2979
   42MOL    N46 8328   1.044   3.307   5.944  0.5979  0.0956  0.5113
   42MOL    H47 8329   1.323   3.391   6.062 -1.0870 -0.1876  0.5462
   42MOL    H48 8330   1.404   3.270   6.149  0.6410  1.2018  0.5159
   42MOL    H49 8331   1.229   3.141   5.941  1.1782  2.2034 -0.8379
   42MOL    H50 8332   0.966   3.371   5.939  0.9498  0.4283 -1.1527
   42MOL    H51 8333   1.098   3.297   5.859 -0.4056 -0.4396 -0.0722
   42MOL    C52 8334   1.246   3.069   6.137  0.4809 -0.0509 -0.2908
   42MOL    C53 8335   1.374   2.978   6.135 -0.2410 -0.3453 -0.3277
   42MOL    C54 8336   1.394   2.907   6.004 -0.2897  0.3447 -0.4481
   42MOL    O55 8337   1.301   2.856   5.942 -0.9257  0.2025  0.3689
   42MOL    N56 8338   1.521   2.902   5.967 -0.3958  0.5530 -0.3509
   42MOL    H57 8339   1.156   3.008   6.128 -0.1620  0.8577 -0.0859
   42MOL    H58 8340   1.238   3.116   6.235 -0.7389 -0.7791 -0.0226
   42MOL    H59 8341   1.453   3.052   6.152  0.4293 -0.7137 -1.6937
   42MOL    H60 8342   1.547   2.846   5.887 -2.0245  0.6205 -0.9512
   42MOL    H61 8343   1.597   2.948   6.015  0.2956 -0.0054 -0.9045
   42MOL    C62 8344   1.366   2.872   6.245 -0.6399 -0.4439 -0.2642
   42MOL    C63 8345   1.465   2.890   6.365  0.2090 -0.1855  1.0345
   42MOL    C64 8346   1.470   3.034   6.422  0.0941  0.1022 -0.1430
   42MOL    O65 8347   1.538   3.124   6.376 -0.3874  0.4954 -0.2232
   42MOL    N66 8348   1.395   3.066   6.528 -0.3032  0.0973  0.5235
   42MOL    H67 8349   1.374   2.770   6.206  1.0055 -0.9292  1.2871
   42MOL    H68 8350   1.265   2.879   6.286 -0.8974 -3.7336 -0.2274
   42MOL    H69 8351   1.432   2.825   6.446 -0.8181 -0.7621  0.1744
   42MOL    H70 8352   1.400   3.164   6.551 -2.2552  0.1459  0.8478
   42MOL    H71 8353   1.355   3.000   6.594 -0.5607 -1.3809 -1.0608
   42MOL    C72 8354   1.608   2.837   6.326 -1.2351 -0.0333 -0.0522
   42MOL    C73 8355   1.719   2.832   6.436  0.5682  0.3160  0.5288
   42MOL    C74 8356   1.860   2.803   6.369  0.6821  0.0147  0.5017
   42MOL    O75 8357   1.871   2.792   6.245  0.3328 -0.5634 -0.4054
   42MOL    N76 8358   1.963   2.792   6.445  0.0971 -1.0692  0.1608
   42MOL    H77 8359   1.639   2.900   6.242  2.7367 -2.1794 -0.2860
   42MOL    H78 8360   1.611   2.742   6.273  1.0609 -1.2518  2.1850
   42MOL    H79 8361   1.735   2.933   6.472 -1.2550  0.9005 -0.2365
   42MOL    H80 8362   1.943   2.794   6.544  0.7618 -0.1051  0.2786
   42MOL    H81 8363   2.048   2.764   6.397  0.7669 -0.3282  0.9013
   42MOL    C82 8364   1.682   2.739   6.562  0.6860 -0.0240 -0.7179
   42MOL    C83 8365   1.676   2.590   6.512 -0.2213  0.0674  0.1482
   42MOL    C84 8366   1.540   2.519   6.553 -0.3308 -0.1189 -0.2079
   42MOL    O85 8367   1.499   2.515   6.663 -1.0522 -0.6756  0.0542
   42MOL    N86 8368   1.462   2.468   6.456 -0.1316  0.0183  0.0438
   42MOL    H87 8369   1.592   2.775   6.612  1.9300  1.4569  0.4977
   42MOL    H88 8370   1.756   2.748   6.641 -0.3092  0.5269  0.1738
   42MOL    H89 8371   1.685   2.588   6.403 -0.0034  0.5653  0.1584
   42MOL    H90 8372   1.502   2.464   6.364  0.0252 -1.4471  0.1586
   42MOL    H91 8373   1.384   2.407   6.479  0.1684  0.2965  1.8551
   42MOL    C92 8374   1.793   2.503   6.559  0.3937 -0.2374  0.8567
   42MOL    C93 8375   1.811   2.366   6.495 -0.0313  0.0084 -0.9463
   42MOL    C94 8376   1.895   2.262   6.573  0.1718 -0.2498 -0.4196
   42MOL    O95 8377   2.015   2.288   6.610  0.0881 -0.3186 -0.0157
   42MOL    N96 8378   1.840   2.145   6.600  0.5186  0.1866 -0.4484
   42MOL    H97 8379   1.779   2.492   6.666  1.3242  0.9432  1.1170
   42MOL    H98 8380   1.884   2.564   6.563  0.9006 -0.9756  0.6522
   42MOL    H99 8381   1.712   2.321   6.490 -0.1702  0.2160 -0.1376
   42MOL   H100 8382   1.748   2.124   6.566 -0.9939  1.3728  2.7288
   42MOL   H101 8383   1.881   2.094   6.678  0.9285 -2.0507 -2.0625
   42MOL   C102 8384   1.869   2.387   6.352  0.4459 -0.2696 -0.3164
   42MOL   C103 8385   1.805   2.309   6.232 -0.1479 -0.1247 -0.0017
   42MOL   C104 8386   1.681   2.391   6.173 -0.2296 -0.1019 -0.2092
   42MOL   O105 8387   1.575   2.369   6.227 -0.0896  0.3247  0.3853
   42MOL   N106 8388   1.699   2.479   6.075 -0.0540 -0.7992 -0.4038
   42MOL   H107 8389   1.970   2.347   6.359  0.5609  0.1515  0.5653
   42MOL   H108 8390   1.879   2.492   6.323 -0.0022  0.1189  0.9222
   42MOL   H109 8391   1.872   2.310   6.147 -0.7822  4.0800 -0.5968
   42MOL   H110 8392   1.794   2.486   6.042  0.1473 -2.4683 -0.1767
   42MOL   H111 8393   1.622   2.524   6.027 -0.8341 -3.2157 -1.4862
   42MOL   C112 8394   1.776   2.164   6.267  0.3289 -0.2243  0.3545
   42MOL   C113 8395   1.741   2.065   6.154  0.1779 -0.0488 -0.4955
   42MOL   C114 8396   1.591   2.019   6.159  0.1698 -1.1848  0.1904
   42MOL   O115 8397   1.539   1.969   6.263 -0.5841 -0.3192 -0.1538
   42MOL   N116 8398   1.519   2.019   6.049 -0.1788  0.0369  0.1491
   42MOL   H117 8399   1.700   2.159   6.346 -0.6561 -0.0718 -0.5640
   42MOL   H118 8400   1.873   2.124   6.295  1.7877  1.3665 -2.2933
   42MOL   H119 8401   1.735   2.130   6.067 -1.0762 -0.6539 -0.8755
   42MOL   H120 8402   1.429   1.974   6.044  0.2902 -0.7660 -1.4525
   42MOL   H121 8403   1.547   2.073   5.968  1.1948 -0.5954  0.1849
   42MOL   C122 8404   1.860   1.966   6.121 -1.2436  0.0703  0.4738
   42MOL   C123 8405   1.867   1.836   6.211  0.7599 -0.7915  0.8435
   42MOL   C124 8406   1.877   1.863   6.361  0.4416  0.3268 -0.6490
   42MOL   O125 8407   1.978   1.840   6.423 -0.3215  0.2636  0.2630
   42MOL   N126 8408   1.765   1.882   6.432  0.3540  0.1425  0.4556
   42MOL   H127 8409   1.954   2.022   6.120 -1.1762  0.0151  1.8382
   42MOL   H128 8410   1.840   1.946   6.016 -0.4710  2.2508 -0.1340
   42MOL   H129 8411   1.777   1.777   6.198 -0.1693  0.1910  2.7306
   42MOL   H130 8412   1.779   1.888   6.531 -3.0616 -0.6035  1.0386
   42MOL   H131 8413   1.676   1.888   6.384  1.7191  0.4504 -2.1318
   42MOL   C132 8414   1.986   1.744   6.171  0.2439  0.0808 -0.6094
   42MOL   C133 8415   2.006   1.703   6.023 -0.4493 -0.1972  0.4426
   42MOL   C134 8416   1.886   1.630   5.964 -0.1752 -0.0774  0.2072
   42MOL   O135 8417   1.784   1.687   5.931  0.7927 -0.3050 -0.1637
   42MOL   N136 8418   1.893   1.498   5.951  0.0464 -0.5881 -0.2317
   42MOL   H137 8419   1.969   1.652   6.225  1.4893  0.3872  0.3229
   42MOL   H138 8420   2.078   1.791   6.207 -2.0412  3.3111  1.2119
   42MOL   H139 8421   2.009   1.801   5.975 -0.4534 -0.0755  0.6918
   42MOL   H140 8422   1.977   1.444   5.971  0.1013 -0.4790 -0.1652
   42MOL   H141 8423   1.817   1.460   5.897  0.7628  1.2962 -2.6332
   42MOL   C142 8424   2.144   1.626   6.006  0.5576  0.0817  0.3064
   42MOL   C143 8425   2.204   1.653   5.862  0.2535  0.1287 -0.8863
   42MOL   C144 8426   2.130   1.600   5.742 -0.0477  0.8040  0.7486
   42MOL   O145 8427   2.128   1.479   5.719  0.2307 -0.3970  0.2534
   42MOL   N146 8428   2.063   1.674   5.661 -0.3729  0.0700  0.2518
   42MOL   H147 8429   2.129   1.519   6.020  1.9377 -0.3512 -1.3543
   42MOL   H148 8430   2.209   1.659   6.087  1.7919 -0.7104 -0.3503
   42MOL   H149 8431   2.194   1.761   5.858  1.1419  0.3197  1.2133
   42MOL   H150 8432   2.021   1.631   5.580 -0.4473  1.2029 -0.3248
   42MOL   H151 8433   2.030   1.767   5.683 -3.9354 -0.7489 -1.2110
   42MOL   C152 8434   2.360   1.620   5.849  0.5052  0.2875  0.4260
   42MOL   C153 8435   2.404   1.469   5.846 -0.0216 -0.0906 -0.1556
   42MOL   C154 8436   2.345   1.384   5.959 -0.4416 -0.1258  0.6465
   42MOL   O155 8437   2.375   1.410   6.075 -0.4553 -0.1619  0.3065
   42MOL   N156 8438   2.266   1.280   5.933 -0.2472 -0.0902 -0.0399
   42MOL   H157 8439   2.408   1.664   5.937  0.3558 -0.2934  0.8043
   42MOL   H158 8440   2.398   1.669   5.760  1.3483 -0.0657  0.5836
   42MOL   H159 8441   2.361   1.425   5.756 -1.2759 -0.1282  0.4427
   42MOL   H160 8442   2.238   1.250   5.841 -0.7159  0.7260 -0.1730
   42MOL   H161 8443   2.227   1.227   6.010 -0.9162  0.3624 -0.0630
   42MOL   C162 8444   2.556   1.465   5.828  0.4743 -1.2008  0.4677
   42MOL   C163 8445   2.613   1.342   5.752 -0.0127 -0.6281  0.0147
   42MOL   C164 8446   2.757   1.320   5.810 -0.3774  0.6236 -0.6223
   42MOL   O165 8447   2.775   1.225   5.877  0.2306 -0.5533  0.0226
   42MOL   N166 8448   2.844   1.420   5.786  0.0970 -0.1082 -0.2337
   42MOL   H167 8449   2.607   1.476   5.924  0.8770 -0.6051  0.1918
   42MOL   H168 8450   2.575   1.558   5.773  0.6763 -0.8200  1.1791
   42MOL   H169 8451   2.561   1.248   5.771 -1.5394 -0.2625 -2.0820
   42MOL   H170 8452   2.940   1.413   5.817 -0.7883  0.0410  2.7301
   42MOL   H171 8453   2.811   1.486   5.718 -0.6072 -1.6857 -1.4503
   42MOL   C172 8454   2.613   1.362   5.597 -0.3612 -0.7876 -1.0184
   42MOL   C173 8455   2.639   1.237   5.516  1.0622 -0.2180 -0.0356
   42MOL   C174 8456   2.670   1.272   5.373 -1.0054  0.4144  0.2688
   42MOL   O175 8457   2.584   1.304   5.299  0.2221  0.0596  0.6890
   42MOL   N176 8458   2.800   1.275   5.336 -0.4428  0.6614 -0.4828
   42MOL   H177 8459   2.673   1.450   5.573 -1.0894  0.2040  0.6881
   42MOL   H178 8460   2.514   1.398   5.568 -0.6808 -0.3080  0.6008
   42MOL   H179 8461   2.733   1.192   5.547 -0.8628 -2.6319  2.5185
   42MOL   H180 8462   2.873   1.241   5.396 -0.5028 -0.1474 -0.8619
   42MOL   H181 8463   2.816   1.305   5.241 -2.2240  1.0622 -0.6568
   42MOL   C182 8464   2.527   1.139   5.529 -0.7671 -0.2874  0.1366
   42MOL   C183 8465   2.572   1.012   5.614  1.2765 -0.4203  0.7839
   42MOL   C184 8466   2.649   0.902   5.534 -0.2565  0.4734 -0.9232
   42MOL   O185 8467   2.674   0.918   5.415  0.4421 -0.4974  0.2086
   42MOL   N186 8468   2.697   0.795   5.591  0.1663  0.6925  0.0819
   42MOL   H187 8469   2.497   1.118   5.426  1.0691  0.7467 -0.6443
   42MOL   H188 8470   2.444   1.188   5.580 -1.5977 -3.0369  1.5474
   42MOL   H189 8471   2.617   1.048   5.706  0.9744 -0.0737  0.7976
   42MOL   H190 8472   2.659   0.766   5.679 -0.9558  1.4637 -0.1448
   42MOL   H191 8473   2.761   0.743   5.532  1.9030  3.2683 -0.4288
   42MOL   C192 8474   2.439   0.936   5.666  0.0666  0.1768 -0.0348
   42MOL   C193 8475   2.378   0.985   5.793 -0.3527 -0.0200  0.7214
   42MOL   C194 8476   2.269   0.896   5.845 -0.3955 -0.4484  0.1403
   42MOL   O195 8477   2.220   0.800   5.784  0.3472  0.3828 -0.0643
   42MOL   N196 8478   2.230   0.910   5.974 -0.8801 -0.3824 -0.1416
   42MOL   H197 8479   2.462   0.832   5.686  1.1844  0.3787 -0.2128
   42MOL   H198 8480   2.370   0.943   5.581 -0.3474 -1.4706  0.1570
   42MOL   H199 8481   2.456   0.997   5.868  1.1711  0.5630 -0.9070
   42MOL   H200 8482   2.157   0.853   6.014  0.2490 -1.2556  0.7317
   42MOL   H201 8483   2.278   0.983   6.025 -1.7266 -1.6410  2.5500
   42MOL   H202 8484   2.336   1.084   5.774 -0.6125  0.1185  2.0264
   43MOL     C1 8485   1.516   1.130   5.971  0.7304 -0.6307  0.1680
   43MOL     C2 8486   1.463   0.988   5.985  0.3421  0.6072 -0.0964
   43MOL     C3 8487   1.544   0.892   5.897  0.5279 -0.3499  0.0193
   43MOL     O4 8488   1.521   0.881   5.779 -0.5758 -0.3643 -0.1823
   43MOL     N5 8489   1.646   0.830   5.952  0.1239 -0.3289  0.1014
   43MOL     H6 8490   1.526   1.182   6.067  0.1445  1.3604 -0.8379
   43MOL     H7 8491   1.621   1.120   5.943 -0.0333  0.7107 -3.3723
   43MOL     H8 8492   1.474   0.947   6.085 -0.5113 -2.3095 -1.1234
   43MOL     H9 8493   1.684   0.853   6.042  0.1931  1.0615 -0.2841
   43MOL    H10 8494   1.694   0.768   5.888  0.8906 -1.0694  1.3573
   43MOL    H11 8495   1.477   1.204   5.901 -1.3424  0.1392  2.0787
   43MOL    C12 8496   1.308   0.998   5.957 -0.8386  0.0459 -0.4106
   43MOL    C13 8497   1.223   0.874   5.969  0.3597  0.2872  0.7309
   43MOL    C14 8498   1.084   0.892   5.898  0.3943 -0.2312 -0.3492
   43MOL    O15 8499   1.009   0.988   5.926 -0.3294 -0.3750 -0.3639
   43MOL    N16 8500   1.041   0.798   5.823 -0.5311  0.0567 -0.3467
   43MOL    H17 8501   1.292   1.064   5.871 -2.2085 -1.5104 -1.3663
   43MOL    H18 8502   1.271   1.065   6.035 -1.2046 -0.8930  0.2254
   43MOL    H19 8503   1.280   0.803   5.909 -0.1517 -1.2588  2.0280
   43MOL    H20 8504   1.111   0.726   5.809 -0.3168  0.4489 -1.3647
   43MOL    H21 8505   0.948   0.795   5.784 -1.0170  2.4316  0.5382
   43MOL    C22 8506   1.216   0.830   6.113  0.4976 -0.3660 -0.4283
   43MOL    C23 8507   1.120   0.716   6.152  0.1283  0.1875  1.1906
   43MOL    C24 8508   1.071   0.762   6.290  0.8601  0.2438 -0.0332
   43MOL    O25 8509   0.960   0.814   6.305  0.1245 -0.3517  0.7281
   43MOL    N26 8510   1.142   0.724   6.395  0.1787 -0.4082  0.2764
   43MOL    H27 8511   1.190   0.922   6.167  1.3402  0.5168 -1.5104
   43MOL    H28 8512   1.316   0.808   6.149  0.5296  0.1063 -0.2143
   43MOL    H29 8513   1.029   0.721   6.092 -0.5349  1.3549  2.2460
   43MOL    H30 8514   1.237   0.693   6.381  0.3695  0.5306 -0.5465
   43MOL    H31 8515   1.122   0.756   6.489  1.1644 -1.3346  0.8233
   43MOL    C32 8516   1.185   0.579   6.138  0.8661 -0.5081 -0.0269
   43MOL    C33 8517   1.088   0.469   6.181  0.4547  0.3646 -0.5205
   43MOL    C34 8518   1.177   0.343   6.215 -0.2794 -0.2109  0.5496
   43MOL    O35 8519   1.221   0.277   6.117 -0.8598 -0.4323  0.1866
   43MOL    N36 8520   1.213   0.325   6.344 -0.0106 -0.6103  0.0392
   43MOL    H37 8521   1.272   0.580   6.204  0.5171  0.1039  0.4323
   43MOL    H38 8522   1.225   0.567   6.037 -1.6436  2.1407 -1.4147
   43MOL    H39 8523   1.040   0.498   6.274  0.2837  0.4999 -0.6521
   43MOL    H40 8524   1.287   0.257   6.355  1.5221  1.1750  0.9041
   43MOL    H41 8525   1.165   0.370   6.420  2.0725 -0.1584  1.1240
   43MOL    C42 8526   0.984   0.441   6.070  0.3719  0.3695  0.0632
   43MOL    C43 8527   0.836   0.423   6.124  0.7544  0.3137 -0.1207
   43MOL    C44 8528   0.822   0.266   6.153 -0.4784  0.4072 -0.6088
   43MOL    O45 8529   0.794   0.183   6.070 -0.4331  0.3726  0.6073
   43MOL    N46 8530   0.850   0.236   6.284  0.4131  0.0632 -0.0026
   43MOL    H47 8531   1.008   0.345   6.025 -0.7933 -0.2476  0.7234
   43MOL    H48 8532   0.980   0.519   5.993  0.9641 -1.7822 -2.2299
   43MOL    H49 8533   0.830   0.473   6.221 -0.7120 -2.0642  1.0566
   43MOL    H50 8534   0.853   0.142   6.320  0.8945  0.4156  0.8967
   43MOL    H51 8535   0.869   0.307   6.353 -0.7207 -0.6808  1.0931
   43MOL    C52 8536   0.734   0.479   6.022 -0.3748  0.5168  0.3305
   43MOL    C53 8537   0.591   0.503   6.075 -0.3224  0.2595 -0.1406
   43MOL    C54 8538   0.501   0.376   6.073 -0.2518  0.3849 -0.3528
   43MOL    O55 8539   0.463   0.331   5.964 -0.2960 -0.1078 -0.1023
   43MOL    N56 8540   0.478   0.313   6.186  0.1027  0.3154 -0.1591
   43MOL    H57 8541   0.737   0.419   5.930  2.1929  0.2341  0.5488
   43MOL    H58 8542   0.774   0.576   5.991 -2.3003  1.3249  0.3173
   43MOL    H59 8543   0.604   0.532   6.180 -2.5865  0.0739  0.2193
   43MOL    H60 8544   0.522   0.351   6.269  3.2493  0.5943 -1.9257
   43MOL    H61 8545   0.408   0.241   6.197  1.5815 -1.1843 -0.5544
   43MOL    C62 8546   0.521   0.614   6.000 -0.2823 -0.4733 -0.2856
   43MOL    C63 8547   0.385   0.688   6.036 -0.5672  0.3735  0.8706
   43MOL    C64 8548   0.381   0.714   6.187 -0.2469 -0.1012  0.8585
   43MOL    O65 8549   0.322   0.644   6.267 -0.0270  0.2247  0.1089
   43MOL    N66 8550   0.438   0.821   6.241 -0.7467  0.7187 -0.6425
   43MOL    H67 8551   0.510   0.586   5.896 -0.3478 -0.5256 -0.2640
   43MOL    H68 8552   0.601   0.686   6.019  1.1275 -2.6142  2.3225
   43MOL    H69 8553   0.400   0.780   5.979 -1.9016  0.0522 -0.0416
   43MOL    H70 8554   0.438   0.835   6.341 -2.8646 -0.6625 -0.4039
   43MOL    H71 8555   0.500   0.879   6.187  1.0336  1.4436  2.0847
   43MOL    C72 8556   0.263   0.606   5.980 -0.1625 -0.4283 -0.2709
   43MOL    C73 8557   0.157   0.692   5.912 -0.3502  0.4493  0.9424
   43MOL    C74 8558   0.156   0.847   5.952  0.4216  0.2775 -0.0524
   43MOL    O75 8559   0.120   0.890   6.061  0.2074  0.1411  0.8893
   43MOL    N76 8560   0.203   0.938   5.871 -0.2951  0.0017  0.4961
   43MOL    H77 8561   0.211   0.557   6.062 -0.5874  0.4999  0.0277
   43MOL    H78 8562   0.295   0.524   5.916 -1.0140 -0.0250 -1.2295
   43MOL    H79 8563   0.179   0.691   5.805  2.6816  0.0812  1.5139
   43MOL    H80 8564   0.193   1.037   5.885  1.0305  0.6539 -2.7796
   43MOL    H81 8565   0.264   0.913   5.794 -0.1305  1.0509  0.2743
   43MOL    C82 8566   0.014   0.629   5.919 -0.2983  0.3094 -0.2550
   43MOL    C83 8567   7.576   0.615   5.794 -0.0738  0.3784 -0.2736
   43MOL    C84 8568   7.651   0.554   5.672  0.1968  0.4520 -0.4541
   43MOL    O85 8569   0.062   0.622   5.600 -0.4574  0.3817 -0.1282
   43MOL    N86 8570   7.640   0.426   5.643  0.5594  0.5964  0.5414
   43MOL    H87 8571   7.606   0.679   5.990  0.4123 -0.8525  1.2641
   43MOL    H88 8572   0.011   0.528   5.961  0.0575  0.3398 -0.1481
   43MOL    H89 8573   7.486   0.559   5.821  0.5521 -0.7539 -0.4823
   43MOL    H90 8574   7.561   0.372   5.674 -0.8551  0.9486 -2.3059
   43MOL    H91 8575   0.022   0.402   5.554  0.0570 -0.6929  0.6628
   43MOL    C92 8576   7.516   0.747   5.753  0.3457 -0.4288  0.5593
   43MOL    C93 8577   7.399   0.734   5.655 -0.3195  0.4674 -0.0884
   43MOL    C94 8578   7.433   0.777   5.507  1.4035 -0.5840 -0.3598
   43MOL    O95 8579   7.465   0.891   5.479  0.7910 -0.2823  0.2042
   43MOL    N96 8580   7.403   0.686   5.413 -0.0293  0.7830  0.4628
   43MOL    H97 8581   7.594   0.809   5.710 -0.1594 -0.3416 -0.2264
   43MOL    H98 8582   7.495   0.795   5.849 -0.3637 -1.3285  0.8618
   43MOL    H99 8583   7.366   0.630   5.660 -0.5552  0.4227 -2.1003
   43MOL   H100 8584   7.434   0.691   5.317 -0.7724 -1.3880  0.0853
   43MOL   H101 8585   7.378   0.594   5.446  3.0984 -0.6411 -0.9194
   43MOL   C102 8586   7.263   0.802   5.704  0.0330  0.3603 -0.3612
   43MOL   C103 8587   7.250   0.948   5.698  0.7989 -0.3931 -0.5513
   43MOL   C104 8588   7.348   1.022   5.792 -0.7539 -0.1214 -0.3525
   43MOL   O105 8589   7.335   1.024   5.912 -0.0491 -0.1460  0.8342
   43MOL   N106 8590   7.452   1.086   5.739  0.5545 -0.0935  0.0848
   43MOL   H107 8591   7.243   0.775   5.808 -1.2602  2.6865  0.0220
   43MOL   H108 8592   7.184   0.761   5.640 -0.5863  0.2615  0.4581
   43MOL   H109 8593   7.281   0.978   5.598 -0.5745 -0.6091 -1.0632
   43MOL   H110 8594   7.504   1.153   5.793 -0.0677  0.2173  0.3081
   43MOL   H111 8595   7.455   1.082   5.638 -1.4662 -1.1830  0.0399
   43MOL   C112 8596   7.102   0.994   5.726  0.5858  0.8104 -0.6319
   43MOL   C113 8597   7.053   1.128   5.668  0.3541  0.1245  0.1005
   43MOL   C114 8598   6.933   1.175   5.762  0.0954  0.0438 -0.3933
   43MOL   O115 8599   6.821   1.136   5.736 -0.3184  0.2429  0.3789
   43MOL   N116 8600   6.948   1.271   5.855  0.1248 -0.2156  0.2816
   43MOL   H117 8601   7.094   0.985   5.834  1.7206 -0.3118 -0.6413
   43MOL   H118 8602   7.027   0.925   5.686  0.0607  1.4230 -0.7186
   43MOL   H119 8603   7.140   1.192   5.685 -0.0453  0.0827  2.6060
   43MOL   H120 8604   7.032   1.309   5.895  0.8550 -1.6723  0.1725
   43MOL   H121 8605   6.857   1.309   5.881  0.5624  0.9145  0.1922
   43MOL   C122 8606   7.005   1.117   5.513  0.0482  0.1822  0.4507
   43MOL   C123 8607   7.100   1.076   5.406  0.6704 -0.2190 -0.6041
   43MOL   C124 8608   7.215   1.175   5.393 -0.0934  1.2516  0.5002
   43MOL   O125 8609   7.195   1.298   5.393  0.3497 -0.5376  0.0847
   43MOL   N126 8610   7.338   1.126   5.376 -0.4763  0.5397  0.0642
   43MOL   H127 8611   6.954   1.206   5.477 -0.5022  0.3706  1.6833
   43MOL   H128 8612   6.925   1.043   5.511 -0.4743  0.7481 -0.0361
   43MOL   H129 8613   7.139   0.976   5.427  2.4430  0.8826  1.4699
   43MOL   H130 8614   7.357   1.027   5.381 -1.0064  0.3650 -1.1713
   43MOL   H131 8615   7.412   1.190   5.352 -1.3409  1.5461  0.0485
   43MOL   C132 8616   7.011   1.073   5.277  0.7764  0.1449  0.3203
   43MOL   C133 8617   7.073   1.005   5.149 -0.0782 -0.0622 -0.3377
   43MOL   C134 8618   6.995   1.054   5.025  0.3102  0.2482  0.6911
   43MOL   O135 8619   6.873   1.030   5.012 -0.3298  0.1431  0.0514
   43MOL   N136 8620   7.063   1.101   4.920  0.7026 -0.1528 -0.0076
   43MOL   H137 8621   6.986   1.176   5.251 -0.0392 -0.2269 -0.3790
   43MOL   H138 8622   6.925   1.008   5.292 -0.5252  1.6661 -0.4589
   43MOL   H139 8623   7.174   1.045   5.140 -0.5770  1.5587  0.9476
   43MOL   H140 8624   7.008   1.137   4.844  1.5775 -0.1179 -0.6284
   43MOL   H141 8625   7.163   1.109   4.908  0.4185  0.7180 -1.9415
   43MOL   C142 8626   7.062   0.846   5.158 -1.0159  0.1794 -0.0997
   43MOL   C143 8627   7.153   0.772   5.054  0.2554  0.1415  0.0201
   43MOL   C144 8628   7.067   0.649   5.005 -0.1353  0.1522  0.3811
   43MOL   O145 8629   7.033   0.566   5.085  0.6598 -0.2736  0.0238
   43MOL   N146 8630   7.041   0.632   4.874 -0.1537  0.1311  0.3444
   43MOL   H147 8631   6.955   0.828   5.147 -1.0135 -0.9421  1.5831
   43MOL   H148 8632   7.077   0.816   5.262 -2.3493 -0.8859 -0.2007
   43MOL   H149 8633   7.171   0.839   4.970  1.3137 -2.9993 -2.3674
   43MOL   H150 8634   7.079   0.696   4.807  0.0944 -1.3851 -1.0023
   43MOL   H151 8635   6.990   0.554   4.834 -0.4998 -0.2536  1.4965
   43MOL   C152 8636   7.292   0.738   5.114  0.1707  0.4111  0.4442
   43MOL   C153 8637   7.398   0.677   5.016  0.0694  0.0885 -0.0212
   43MOL   C154 8638   7.469   0.552   5.068  0.1794  0.1157 -0.2146
   43MOL   O155 8639   7.561   0.561   5.142 -0.7648  0.3358 -0.8223
   43MOL   N156 8640   7.416   0.436   5.031 -0.1734 -0.1157  0.3245
   43MOL   H157 8641   7.278   0.661   5.191  1.0438 -0.4260 -0.2324
   43MOL   H158 8642   7.330   0.830   5.157  0.2857  1.5983 -2.1326
   43MOL   H159 8643   7.340   0.645   4.930  0.5965 -0.9812  0.0133
   43MOL   H160 8644   7.349   0.439   4.956  0.1687 -0.3658  0.0103
   43MOL   H161 8645   7.462   0.352   5.064 -3.2039 -1.1462  2.1064
   43MOL   C162 8646   7.495   0.785   4.964 -0.2214  0.2718 -0.3212
   43MOL   C163 8647   7.583   0.752   4.839  0.4393  0.0957  0.3945
   43MOL   C164 8648   0.002   0.881   4.790 -0.4821 -0.4821  0.6909
   43MOL   O165 8649   7.604   0.990   4.779 -0.3876  0.2270 -0.1808
   43MOL   N166 8650   0.127   0.857   4.746  0.1665 -0.2497 -0.0294
   43MOL   H167 8651   7.562   0.815   5.045 -1.4832  1.0101  0.4721
   43MOL   H168 8652   7.442   0.879   4.948  2.1839  1.6722 -0.3441
   43MOL   H169 8653   0.001   0.683   4.877  0.5758  0.9879  1.8115
   43MOL   H170 8654   0.182   0.929   4.700  0.4900  0.4322  1.4129
   43MOL   H171 8655   0.176   0.768   4.748  0.6768 -0.1778 -4.3432
   43MOL   C172 8656   7.512   0.678   4.719 -0.5671 -0.5336 -0.4035
   43MOL   C173 8657   7.438   0.765   4.610  0.2628  0.1463 -0.7691
   43MOL   C174 8658   7.309   0.824   4.663 -0.2397 -0.6588 -0.3750
   43MOL   O175 8659   7.204   0.763   4.650  0.2321 -0.0837 -0.2481
   43MOL   N176 8660   7.322   0.949   4.709 -0.5404  0.1919 -0.2128
   43MOL   H177 8661   7.453   0.589   4.743 -1.6498  0.3869  0.3796
   43MOL   H178 8662   7.595   0.631   4.665 -1.0447 -0.6564 -1.0445
   43MOL   H179 8663   7.496   0.851   4.575  1.0232  1.3778  3.2559
   43MOL   H180 8664   7.410   0.993   4.731  0.5348 -1.0890 -1.8940
   43MOL   H181 8665   7.241   1.009   4.708 -0.1857  0.7959  2.8037
   43MOL   C182 8666   7.413   0.685   4.474  0.2746 -0.2388 -0.1289
   43MOL   C183 8667   7.543   0.635   4.406 -0.2838  0.2763  0.1102
   43MOL   C184 8668   7.637   0.750   4.375 -0.3347 -0.7877  0.2197
   43MOL   O185 8669   7.593   0.853   4.322  0.2201 -0.0662  0.2730
   43MOL   N186 8670   0.106   0.715   4.408  0.0291 -0.0219  1.1962
   43MOL   H187 8671   7.363   0.747   4.399  1.1036  1.6052  0.8131
   43MOL   H188 8672   7.341   0.604   4.483 -1.4470  1.2122 -0.4128
   43MOL   H189 8673   7.577   0.557   4.474 -0.3527 -0.7891 -1.0627
   43MOL   H190 8674   0.180   0.781   4.387 -0.9395  0.0642 -2.2229
   43MOL   H191 8675   0.130   0.624   4.446  0.8489  0.3633  1.6115
   43MOL   C192 8676   7.521   0.557   4.267  0.1403  0.1055 -0.4151
   43MOL   C193 8677   7.634   0.467   4.208 -0.0511 -0.7498  0.3552
   43MOL   C194 8678   0.030   0.366   4.317  0.8641  0.1445  0.2651
   43MOL   O195 8679   0.112   0.400   4.400 -0.3170 -0.3267  0.3814
   43MOL   N196 8680   7.634   0.246   4.315  0.3165 -0.9610 -0.0224
   43MOL   H197 8681   7.497   0.635   4.194  0.6575  0.6171 -0.0444
   43MOL   H198 8682   7.427   0.505   4.283 -0.1047  0.1608 -1.6002
   43MOL   H199 8683   7.618   0.417   4.113  0.0307 -2.1962  1.0886
   43MOL   H200 8684   7.587   0.206   4.236 -0.6146 -0.0941  0.0839
   43MOL   H201 8685   0.005   0.182   4.388  0.8447  1.4501  1.9643
   43MOL   H202 8686   0.060   0.536   4.189 -0.0193 -0.9269 -0.1595
   44MOL     C1 8687   4.697   6.271   0.561 -0.0504 -0.4299  0.4218
   44MOL     C2 8688   4.662   6.347   0.428 -0.5036 -0.4362 -0.4121
   44MOL     C3 8689   4.524   6.294   0.376  0.6185 -0.6328  0.8177
   44MOL     O4 8690   4.521   6.206   0.290 -0.5100 -0.4557 -0.6037
   44MOL     N5 8691   4.417   6.357   0.419 -0.5453 -0.5325  0.0963
   44MOL     H6 8692   4.608   6.253   0.622 -0.7004 -0.3535 -0.5028
   44MOL     H7 8693   4.741   6.173   0.546 -3.1715 -1.7341 -0.5933
   44MOL     H8 8694   4.641   6.452   0.448 -0.8928 -1.0251  2.6546
   44MOL     H9 8695   4.432   6.442   0.470  0.0820 -0.8966  0.5174
   44MOL    H10 8696   4.328   6.312   0.402  0.8009 -2.6802 -1.5735
   44MOL    H11 8697   4.781   6.318   0.613  2.2634  0.6000 -4.0476
   44MOL    C12 8698   4.783   6.331   0.330 -0.0952 -0.4465  0.1608
   44MOL    C13 8699   4.788   6.436   0.213 -0.2197 -0.5357 -0.1742
   44MOL    C14 8700   4.886   6.379   0.112  0.6193 -0.0556  0.6606
   44MOL    O15 8701   5.005   6.388   0.136  0.4004 -0.6698  1.0567
   44MOL    N16 8702   4.841   6.330   7.652  0.1812  0.0203 -0.0791
   44MOL    H17 8703   4.785   6.227   0.298 -0.7814 -0.0248 -1.2771
   44MOL    H18 8704   4.876   6.334   0.387  0.6569 -1.9159 -0.9637
   44MOL    H19 8705   4.693   6.442   0.159  0.3904  2.5619 -1.0017
   44MOL    H20 8706   4.905   6.300   7.579 -1.0906 -1.3098 -0.6511
   44MOL    H21 8707   4.745   6.344   7.624 -0.7897 -0.5611  2.8097
   44MOL    C22 8708   4.821   6.583   0.264  0.3993  0.1610  0.4493
   44MOL    C23 8709   4.845   6.698   0.158 -0.0448 -0.5747 -0.2243
   44MOL    C24 8710   4.946   6.792   0.230  0.0921 -0.3953  0.4019
   44MOL    O25 8711   4.920   6.837   0.339 -0.1362 -0.2966  1.0137
   44MOL    N26 8712   5.062   6.815   0.170 -0.3773 -0.5794  0.2370
   44MOL    H27 8713   4.907   6.564   0.328 -0.3579 -2.9198  0.6440
   44MOL    H28 8714   4.745   6.620   0.334 -0.2672 -1.4696  0.6112
   44MOL    H29 8715   4.894   6.650   0.073 -1.5299  0.2168 -1.5519
   44MOL    H30 8716   5.083   6.773   0.080  1.0290 -3.7548  1.9516
   44MOL    H31 8717   5.131   6.878   0.208  2.2019 -1.9245 -1.9785
   44MOL    C32 8718   4.719   6.761   0.099  0.9066 -0.3355  1.1777
   44MOL    C33 8719   4.736   6.850   7.632 -0.3473 -0.2146 -0.2566
   44MOL    C34 8720   4.720   6.996   0.017  0.6561 -0.8491 -0.1583
   44MOL    O35 8721   4.819   7.066   0.036  0.0863  0.4081 -0.4681
   44MOL    N36 8722   4.596   7.039   0.032 -0.3890 -0.0374 -0.2634
   44MOL    H37 8723   4.671   6.819   0.178 -1.2092  0.3147 -0.5072
   44MOL    H38 8724   4.645   6.683   0.082 -0.6493  1.5439 -1.0428
   44MOL    H39 8725   4.839   6.843   7.598 -0.6737  1.2156 -1.5814
   44MOL    H40 8726   4.522   6.975   0.008  1.8677 -1.5524 -3.6265
   44MOL    H41 8727   4.579   7.137   0.050 -2.2669 -0.3329 -0.4003
   44MOL    C42 8728   4.651   6.818   7.511  0.0485  0.5527 -0.4644
   44MOL    C43 8729   4.721   6.714   7.415 -0.5768  0.3504  0.1149
   44MOL    C44 8730   4.829   6.787   7.328 -0.0555  0.2173  0.4290
   44MOL    O45 8731   4.803   6.856   7.229  0.0976 -0.1600 -0.1158
   44MOL    N46 8732   4.953   6.763   7.359  0.0229  0.5309 -0.1002
   44MOL    H47 8733   4.635   6.906   7.449  0.9020 -0.0880 -1.6086
   44MOL    H48 8734   4.547   6.794   7.533  0.0917 -0.2097 -1.0791
   44MOL    H49 8735   4.761   6.628   7.468 -2.3257 -0.4841  0.1084
   44MOL    H50 8736   4.975   6.710   7.442  2.0279  0.3846 -0.6965
   44MOL    H51 8737   5.030   6.796   7.303  0.6142 -1.4653 -0.5023
   44MOL    C52 8738   4.604   6.679   7.323  0.0939 -0.4284 -0.2558
   44MOL    C53 8739   4.515   6.568   7.384  0.0232  0.2779  0.4753
   44MOL    C54 8740   4.594   6.433   7.388  0.2377 -0.3858  0.2959
   44MOL    O55 8741   4.603   6.372   7.494  0.1865 -0.3581 -0.5433
   44MOL    N56 8742   4.648   6.390   7.274 -0.2302 -0.1052  0.1438
   44MOL    H57 8743   4.639   6.639   7.228  0.5873 -1.5010  0.3716
   44MOL    H58 8744   4.555   6.769   7.284 -1.5363 -1.2334 -0.0980
   44MOL    H59 8745   4.489   6.589   7.488  0.0455 -1.6212  0.8875
   44MOL    H60 8746   4.627   6.437   7.187  0.2683 -0.8278 -0.3679
   44MOL    H61 8747   4.706   6.308   7.269 -0.5129 -0.2319 -1.5186
   44MOL    C62 8748   4.379   6.537   7.312 -0.3450 -0.1642 -0.5453
   44MOL    C63 8749   4.273   6.645   7.299  0.2915 -0.1330 -0.2548
   44MOL    C64 8750   4.270   6.731   7.428  0.0599  0.1859  0.1050
   44MOL    O65 8751   4.248   6.678   7.534  0.1846  0.0642  0.0382
   44MOL    N66 8752   4.285   6.863   7.412 -0.9316  0.4245  0.4519
   44MOL    H67 8753   4.338   6.456   7.371 -3.0634  1.3827 -0.2310
   44MOL    H68 8754   4.400   6.490   7.215  1.3856 -0.7500  0.0874
   44MOL    H69 8755   4.301   6.710   7.217 -5.1020  0.4725 -1.7509
   44MOL    H70 8756   4.288   6.918   7.496 -3.0743 -1.4450  1.8016
   44MOL    H71 8757   4.312   6.896   7.320 -1.5981 -1.0585 -0.3053
   44MOL    C72 8758   4.140   6.578   7.258 -0.0031  0.2084  0.1759
   44MOL    C73 8759   4.036   6.673   7.195  0.2820 -0.0853  0.5124
   44MOL    C74 8760   3.958   6.753   7.296 -0.6598  0.3480 -0.2658
   44MOL    O75 8761   3.909   6.693   7.393 -0.3656 -0.1921  0.1196
   44MOL    N76 8762   3.938   6.884   7.282  0.5400 -1.1023 -0.2774
   44MOL    H77 8763   4.088   6.542   7.347  1.6479 -0.7029  0.7781
   44MOL    H78 8764   4.155   6.487   7.201  3.3902  0.5331  0.4660
   44MOL    H79 8765   4.096   6.739   7.133 -0.3622 -0.0457 -0.0735
   44MOL    H80 8766   3.877   6.935   7.344  2.4309  0.8002  0.0818
   44MOL    H81 8767   3.992   6.929   7.209 -1.9435  1.3225 -0.6896
   44MOL    C82 8768   3.935   6.596   7.106  0.0968  0.0144 -0.7186
   44MOL    C83 8769   3.866   6.463   7.169 -0.6722  0.6860  0.1988
   44MOL    C84 8770   3.927   6.336   7.108 -0.3553  0.3545  0.1900
   44MOL    O85 8771   3.924   6.326   6.984  0.3596 -0.4802 -0.3497
   44MOL    N86 8772   3.985   6.244   7.178  0.4549 -0.8072  0.1640
   44MOL    H87 8773   3.979   6.579   7.008  0.6958 -0.5718 -0.3505
   44MOL    H88 8774   3.851   6.661   7.084 -0.1295  0.1748  0.5618
   44MOL    H89 8775   3.872   6.466   7.278  0.5585  0.1514  0.1553
   44MOL    H90 8776   3.996   6.249   7.279  0.2033  3.0680  0.0503
   44MOL    H91 8777   4.022   6.166   7.125  0.3251  0.7794 -2.3303
   44MOL    C92 8778   3.717   6.448   7.129  0.4055  0.1816 -0.0788
   44MOL    C93 8779   3.624   6.525   7.234  0.0890  0.1384  0.5875
   44MOL    C94 8780   3.625   6.465   7.377  0.2148 -0.7169 -0.4850
   44MOL    O95 8781   3.544   6.375   7.415 -0.0136 -0.0555  0.2487
   44MOL    N96 8782   3.711   6.511   7.470  0.0660 -0.0783  0.3330
   44MOL    H97 8783   3.686   6.344   7.135 -0.7087  0.5312  0.6413
   44MOL    H98 8784   3.701   6.490   7.030 -1.1925  0.4074  0.2451
   44MOL    H99 8785   3.651   6.630   7.251 -1.7809  0.8919 -0.8878
   44MOL   H100 8786   3.699   6.469   7.561  1.5448 -1.2961 -0.0196
   44MOL   H101 8787   3.781   6.582   7.456 -0.2483 -0.0766 -1.2354
   44MOL   C102 8788   3.481   6.540   7.181  0.6219 -0.1092 -0.7851
   44MOL   C103 8789   3.438   6.639   7.072 -0.0498  0.2231  0.4310
   44MOL   C104 8790   3.407   6.780   7.130  0.1484  0.2233 -0.3249
   44MOL   O105 8791   3.332   6.790   7.231 -0.5259  0.1832 -0.7584
   44MOL   N106 8792   3.452   6.883   7.061 -0.2384 -0.1053  0.5482
   44MOL   H107 8793   3.407   6.541   7.261 -0.0255 -0.7189 -1.3698
   44MOL   H108 8794   3.458   6.443   7.139 -4.2910 -0.7464  2.9360
   44MOL   H109 8795   3.522   6.640   7.002 -1.0302 -1.8308 -0.8053
   44MOL   H110 8796   3.505   6.885   6.975 -0.0227 -0.1565  0.6777
   44MOL   H111 8797   3.432   6.972   7.104 -1.3586 -0.4322  0.7143
   44MOL   C112 8798   3.314   6.589   6.998  0.7065  0.2344  0.8486
   44MOL   C113 8799   3.327   6.456   6.922 -0.1323 -0.6136  0.0514
   44MOL   C114 8800   3.423   6.458   6.804 -0.2739 -0.6705 -0.0661
   44MOL   O115 8801   3.435   6.550   6.723  0.2210 -0.1081 -0.2735
   44MOL   N116 8802   3.517   6.361   6.794 -0.3373 -0.4707  0.1345
   44MOL   H117 8803   3.277   6.676   6.943  3.6111  0.6440 -0.5403
   44MOL   H118 8804   3.245   6.562   7.078  1.3823  1.0655  1.7233
   44MOL   H119 8805   3.363   6.376   6.986 -1.9719 -1.2886  0.2659
   44MOL   H120 8806   3.599   6.376   6.737  0.2722 -1.3360  0.7720
   44MOL   H121 8807   3.521   6.286   6.861 -2.6826  0.5992  1.5522
   44MOL   C122 8808   3.195   6.392   6.854  0.4630 -0.6318 -0.2148
   44MOL   C123 8809   3.134   6.274   6.942  0.3975 -0.7043 -0.0257
   44MOL   C124 8810   3.208   6.141   6.907 -0.2083  0.3181 -0.0085
   44MOL   O125 8811   3.198   6.094   6.792  0.0312 -0.0503  0.1676
   44MOL   N126 8812   3.281   6.087   6.999 -0.4312  0.0550  0.6920
   44MOL   H127 8813   3.200   6.363   6.749 -0.8065  1.6784 -0.9381
   44MOL   H128 8814   3.118   6.469   6.854  0.8438 -0.2489 -1.3799
   44MOL   H129 8815   3.145   6.296   7.048 -1.8632  2.3781 -0.3856
   44MOL   H130 8816   3.291   6.140   7.084  0.1753  1.3402 -0.1572
   44MOL   H131 8817   3.311   5.991   7.009  1.2531  0.5252  0.3593
   44MOL   C132 8818   2.977   6.259   6.922 -0.2178 -0.4617 -0.0341
   44MOL   C133 8819   2.888   6.376   6.969 -0.4201  0.1789  0.3088
   44MOL   C134 8820   2.913   6.403   7.117  0.1215 -0.4370  0.9382
   44MOL   O135 8821   2.878   6.322   7.198 -0.1660  0.0906 -0.1782
   44MOL   N136 8822   2.986   6.511   7.142  0.4189  0.0461  0.0771
   44MOL   H137 8823   2.942   6.176   6.983  1.4632 -0.4892  0.9255
   44MOL   H138 8824   2.956   6.237   6.817  1.4713  0.4856 -0.5888
   44MOL   H139 8825   2.924   6.462   6.912  0.6486 -0.1426  0.5056
   44MOL   H140 8826   3.022   6.523   7.236  0.0465  1.5904  0.0420
   44MOL   H141 8827   3.012   6.580   7.073  0.1820 -0.7507 -0.8253
   44MOL   C142 8828   2.735   6.358   6.933 -0.1030  1.1367  0.2965
   44MOL   C143 8829   2.684   6.383   6.788 -0.2196  0.0605 -0.0035
   44MOL   C144 8830   2.551   6.457   6.790  0.6374 -0.2421 -0.9142
   44MOL   O145 8831   2.444   6.400   6.815  0.4301  0.7626 -0.0885
   44MOL   N146 8832   2.561   6.584   6.765  0.2721  0.2724 -0.0904
   44MOL   H147 8833   2.679   6.427   6.996  0.3453  2.0081 -0.2362
   44MOL   H148 8834   2.708   6.256   6.959 -1.2370  1.2076 -0.5773
   44MOL   H149 8835   2.755   6.446   6.734 -0.6126  0.6764  0.2016
   44MOL   H150 8836   2.488   6.638   6.721 -1.0116  0.0881  1.7681
   44MOL   H151 8837   2.657   6.602   6.739  1.3587 -2.7261  1.5239
   44MOL   C152 8838   2.669   6.245   6.704 -0.4435 -0.5143  0.4010
   44MOL   C153 8839   2.595   6.260   6.573  0.1603 -0.4505  0.0333
   44MOL   C154 8840   2.591   6.123   6.503 -0.4458 -0.1930  0.2476
   44MOL   O155 8841   2.684   6.046   6.505 -0.1227 -0.0981  0.5452
   44MOL   N156 8842   2.486   6.095   6.430 -0.0336 -0.0106 -0.0799
   44MOL   H157 8843   2.608   6.172   6.757  0.7107 -1.8570 -0.0744
   44MOL   H158 8844   2.765   6.199   6.680  0.0243  1.4402 -1.6137
   44MOL   H159 8845   2.494   6.286   6.605  0.6235  2.0225 -0.4320
   44MOL   H160 8846   2.422   6.169   6.404  1.1855  0.1692 -2.7273
   44MOL   H161 8847   2.467   6.004   6.390 -1.4900 -0.5220  1.7162
   44MOL   C162 8848   2.659   6.358   6.472  0.3208 -0.0203  0.7138
   44MOL   C163 8849   2.597   6.394   6.330  0.5433 -0.3082  0.3528
   44MOL   C164 8850   2.440   6.414   6.324 -0.0886 -0.1736  0.0249
   44MOL   O165 8851   2.361   6.319   6.329 -0.1817  0.4154 -0.1009
   44MOL   N166 8852   2.398   6.542   6.301  0.0101 -0.6308  0.1238
   44MOL   H167 8853   2.760   6.325   6.450  1.0040  0.1585  3.4403
   44MOL   H168 8854   2.671   6.456   6.517  1.3556  0.4034 -0.4561
   44MOL   H169 8855   2.644   6.489   6.302 -0.3662  0.1160  0.2416
   44MOL   H170 8856   2.462   6.618   6.284  0.9373 -1.7789 -1.7230
   44MOL   H171 8857   2.302   6.557   6.274  0.4375 -0.6924 -1.4407
   44MOL   C172 8858   2.642   6.300   6.219 -0.1770  0.3219  0.0482
   44MOL   C173 8859   2.687   6.369   6.085 -0.2010  0.5186  0.6947
   44MOL   C174 8860   2.568   6.429   6.009  0.2013  0.0631 -0.5932
   44MOL   O175 8861   2.470   6.363   5.993 -0.7283 -0.5620  0.2739
   44MOL   N176 8862   2.571   6.555   5.976 -0.4155  0.3292  0.3914
   44MOL   H177 8863   2.561   6.232   6.194  1.5737 -1.3874 -1.1149
   44MOL   H178 8864   2.708   6.220   6.253  0.4006  0.8753  0.2326
   44MOL   H179 8865   2.768   6.441   6.098  0.4034  0.1237 -0.7926
   44MOL   H180 8866   2.486   6.589   5.933  0.2764  0.4699 -0.8906
   44MOL   H181 8867   2.644   6.622   5.996  0.6724 -0.7259  0.0369
   44MOL   C182 8868   2.756   6.256   5.999  0.0876 -1.0702  0.0839
   44MOL   C183 8869   2.799   6.292   5.860  0.3557 -0.0365 -0.2079
   44MOL   C184 8870   2.819   6.166   5.772  0.0462  0.7483 -0.3463
   44MOL   O185 8871   2.849   6.055   5.815 -0.0689  0.1235 -0.5995
   44MOL   N186 8872   2.787   6.190   5.642  0.0503  0.2982  0.0607
   44MOL   H187 8873   2.681   6.179   5.981 -0.5366 -0.6055  0.6911
   44MOL   H188 8874   2.842   6.222   6.057  0.9013  2.2502  0.9526
   44MOL   H189 8875   2.708   6.340   5.822  0.7055  1.3054  0.6228
   44MOL   H190 8876   2.777   6.117   5.573 -3.0815 -0.5001  1.2948
   44MOL   H191 8877   2.770   6.285   5.609 -0.5176 -0.5015 -2.0258
   44MOL   C192 8878   2.917   6.394   5.845  0.1270 -0.5535  0.0120
   44MOL   C193 8879   3.050   6.340   5.906 -0.0747  0.2306 -0.1076
   44MOL   C194 8880   3.162   6.440   5.934 -0.0076 -0.0200 -0.5364
   44MOL   O195 8881   3.284   6.410   5.930 -0.2121 -0.3429 -0.1511
   44MOL   N196 8882   3.122   6.568   5.948  0.3548  0.6662 -0.6011
   44MOL   H197 8883   2.882   6.475   5.909  1.1755  1.0187 -1.3675
   44MOL   H198 8884   2.933   6.442   5.748 -1.0920  2.4734  1.2278
   44MOL   H199 8885   3.036   6.289   6.001  1.9424 -2.6640 -1.3021
   44MOL   H200 8886   3.025   6.591   5.958  0.1838 -0.6702  0.9391
   44MOL   H201 8887   3.195   6.638   5.952 -0.3570  1.3768  0.2075
   44MOL   H202 8888   3.088   6.275   5.827 -0.7150  0.6093 -0.7357
   45MOL     C1 8889   6.760   0.429   1.772  0.2962 -0.0473  0.1388
   45MOL     C2 8890   6.836   0.495   1.649  0.3198  0.0540  0.0176
   45MOL     C3 8891   6.989   0.501   1.678 -0.3413  0.0901  0.1882
   45MOL     O4 8892   7.052   0.397   1.692 -0.8768  0.6883  0.2065
   45MOL     N5 8893   7.053   0.615   1.686 -0.2015 -0.5730 -0.4190
   45MOL     H6 8894   6.811   0.336   1.797  0.0877 -0.6622 -1.6984
   45MOL     H7 8895   6.772   0.495   1.858  1.8660 -0.6996  0.4364
   45MOL     H8 8896   6.823   0.422   1.569  1.5543 -1.1392  0.8793
   45MOL     H9 8897   7.151   0.614   1.711  0.1669  0.7365 -1.7476
   45MOL    H10 8898   7.004   0.703   1.695  0.5724 -0.4583  4.2080
   45MOL    H11 8899   6.655   0.398   1.770  0.4693 -0.5392 -1.3922
   45MOL    C12 8900   6.782   0.636   1.600 -0.0166  0.2191  0.2791
   45MOL    C13 8901   6.638   0.638   1.559  0.3807 -0.1047 -0.1871
   45MOL    C14 8902   6.627   0.579   1.420  0.5513  0.5918  0.2998
   45MOL    O15 8903   6.574   0.468   1.398  0.4312  0.2369  0.3776
   45MOL    N16 8904   6.674   0.651   1.317 -0.3679 -0.2947 -0.0133
   45MOL    H17 8905   6.850   0.673   1.524  0.5005  1.1244  1.1732
   45MOL    H18 8906   6.802   0.708   1.680  1.3366  1.5540 -1.2279
   45MOL    H19 8907   6.591   0.562   1.621 -1.0182  0.3228 -0.7094
   45MOL    H20 8908   6.677   0.617   1.222 -0.6627  0.5253 -0.3147
   45MOL    H21 8909   6.738   0.727   1.333 -1.3650  0.7067 -0.7584
   45MOL    C22 8910   6.559   0.771   1.577 -0.1155 -0.2834  0.2947
   45MOL    C23 8911   6.409   0.744   1.616 -0.7747 -1.0779  0.0975
   45MOL    C24 8912   6.335   0.879   1.615 -1.3354 -0.0951  0.3478
   45MOL    O25 8913   6.360   0.978   1.544 -0.0423  0.0901 -0.0445
   45MOL    N26 8914   6.238   0.892   1.705  0.6368 -0.0955  0.5062
   45MOL    H27 8915   6.578   0.836   1.492  1.1075  0.4367  1.1012
   45MOL    H28 8916   6.601   0.831   1.659  1.5232 -0.2401 -0.5529
   45MOL    H29 8917   6.359   0.706   1.527  0.9806 -2.1210 -0.4604
   45MOL    H30 8918   6.213   0.829   1.780 -0.9975 -1.8500 -1.4828
   45MOL    H31 8919   6.180   0.975   1.706  0.9175  0.1028  0.4903
   45MOL    C32 8920   6.383   0.654   1.742  0.0217 -0.7076 -0.2611
   45MOL    C33 8921   6.457   0.678   1.879  0.3791 -0.4065  0.2321
   45MOL    C34 8922   6.480   0.554   1.966 -0.4594 -0.4665 -0.0750
   45MOL    O35 8923   6.575   0.537   2.038 -0.3012 -0.1187  0.4082
   45MOL    N36 8924   6.395   0.456   1.943 -0.6047  0.5939 -0.0515
   45MOL    H37 8925   6.410   0.551   1.722 -2.4600 -1.6394  0.9313
   45MOL    H38 8926   6.274   0.654   1.755  0.1676 -0.7106  0.9663
   45MOL    H39 8927   6.556   0.701   1.838  0.2056 -0.4275 -0.2054
   45MOL    H40 8928   6.321   0.460   1.874 -0.5239  0.6102 -0.1366
   45MOL    H41 8929   6.391   0.379   2.007  1.4181 -0.8882 -1.6341
   45MOL    C42 8930   6.425   0.810   1.969  0.3036  0.1379 -0.1619
   45MOL    C43 8931   6.325   0.783   2.086  0.2563 -0.2061 -0.0676
   45MOL    C44 8932   6.186   0.736   2.036 -0.5677  0.2600  0.2493
   45MOL    O45 8933   6.121   0.809   1.959  0.3749 -0.1609 -0.7394
   45MOL    N46 8934   6.137   0.618   2.071 -0.4267 -0.1196 -0.0285
   45MOL    H47 8935   6.395   0.896   1.908  2.0884  1.0901  0.2536
   45MOL    H48 8936   6.525   0.833   2.006 -0.5068  1.7431  1.1484
   45MOL    H49 8937   6.364   0.709   2.156 -0.5606  1.8550  2.6724
   45MOL    H50 8938   6.039   0.607   2.047 -0.7461  0.7352  0.8491
   45MOL    H51 8939   6.177   0.553   2.138  1.7357 -0.6799 -1.8165
   45MOL    C52 8940   6.297   0.914   2.176 -0.3536 -1.0605 -0.1903
   45MOL    C53 8941   6.418   0.991   2.239  0.7553  0.1518  0.4971
   45MOL    C54 8942   6.495   0.908   2.342  0.2968 -0.7344  0.0010
   45MOL    O55 8943   6.460   0.886   2.458  0.0886 -0.2652  0.2977
   45MOL    N56 8944   6.602   0.841   2.305  0.4331 -0.0332 -0.1446
   45MOL    H57 8945   6.237   0.887   2.264 -2.0871 -0.5778 -1.1954
   45MOL    H58 8946   6.234   0.983   2.120  0.9232  0.9005  0.7543
   45MOL    H59 8947   6.489   0.995   2.156  0.1832 -0.6401 -0.0395
   45MOL    H60 8948   6.666   0.798   2.371  2.0827  0.5782 -1.3062
   45MOL    H61 8949   6.643   0.842   2.213  2.8438 -0.6409  0.8772
   45MOL    C62 8950   6.385   1.128   2.294 -0.3357 -0.0096 -0.5049
   45MOL    C63 8951   6.338   1.235   2.182  0.2599 -0.1822  0.0957
   45MOL    C64 8952   6.446   1.290   2.087 -0.0496 -0.2874  0.5207
   45MOL    O65 8953   6.561   1.288   2.130  0.0090 -0.1636  0.8918
   45MOL    N66 8954   6.417   1.332   1.962  0.4581 -0.1283 -0.0955
   45MOL    H67 8955   6.466   1.177   2.348 -1.4241  0.3381  0.8477
   45MOL    H68 8956   6.302   1.109   2.362 -0.0992  0.8100  0.0263
   45MOL    H69 8957   6.266   1.180   2.121 -1.6801  0.4170  1.7632
   45MOL    H70 8958   6.481   1.397   1.919 -1.1571  0.9457 -0.9132
   45MOL    H71 8959   6.325   1.320   1.921  0.9037 -0.9851 -0.8363
   45MOL    C72 8960   6.235   1.347   2.219 -0.2490  0.2452  0.3753
   45MOL    C73 8961   6.296   1.469   2.292  0.1466 -0.1911 -0.7629
   45MOL    C74 8962   6.315   1.436   2.443  0.7716  0.3013 -0.1554
   45MOL    O75 8963   6.228   1.382   2.513  0.4549 -0.3439 -0.0919
   45MOL    N76 8964   6.429   1.477   2.503 -0.6396  0.0500  0.2292
   45MOL    H77 8965   6.151   1.311   2.278  0.7283 -2.3488  0.2516
   45MOL    H78 8966   6.191   1.361   2.120 -0.2949 -1.5504  0.1221
   45MOL    H79 8967   6.393   1.504   2.256 -0.5319  2.5291 -0.0694
   45MOL    H80 8968   6.508   1.508   2.449 -0.3332  0.4274  0.8962
   45MOL    H81 8969   6.447   1.477   2.602  0.4193 -0.8211  0.0429
   45MOL    C82 8970   6.194   1.585   2.274 -0.4583  0.2211  0.3652
   45MOL    C83 8971   6.208   1.651   2.136 -0.4609  0.0480  0.4875
   45MOL    C84 8972   6.339   1.726   2.083 -1.0152 -0.1178  0.3370
   45MOL    O85 8973   6.385   1.700   1.970 -0.0222  0.5243 -0.0965
   45MOL    N86 8974   6.397   1.813   2.165  0.6540  0.1824 -0.1363
   45MOL    H87 8975   6.218   1.668   2.340 -0.1039 -0.3481  0.9595
   45MOL    H88 8976   6.089   1.567   2.299 -0.2593 -1.4558  0.0422
   45MOL    H89 8977   6.209   1.563   2.073  0.2038  2.0134 -2.3070
   45MOL    H90 8978   6.470   1.866   2.120 -0.7176  2.0505 -0.2049
   45MOL    H91 8979   6.361   1.842   2.254  0.5398  1.0060 -0.4480
   45MOL    C92 8980   6.071   1.724   2.100 -0.2834 -0.3194 -0.0904
   45MOL    C93 8981   6.030   1.855   2.162 -0.6323  0.1660  0.4318
   45MOL    C94 8982   5.995   1.843   2.308  0.1711  0.2530 -0.4490
   45MOL    O95 8983   5.883   1.804   2.339 -0.1827  0.0839  0.1565
   45MOL    N96 8984   6.084   1.890   2.392  0.3097  0.6453  0.2705
   45MOL    H97 8985   5.987   1.655   2.111 -0.4865  0.0384  0.6015
   45MOL    H98 8986   6.073   1.741   1.992 -3.1777  0.5741 -0.0278
   45MOL    H99 8987   6.124   1.909   2.155 -0.5544 -0.1020 -0.6381
   45MOL   H100 8988   6.067   1.890   2.492  0.0117 -0.9720  0.2301
   45MOL   H101 8989   6.162   1.947   2.364  0.1138  1.4424  1.2845
   45MOL   C102 8990   5.923   1.922   2.081  0.2925 -0.2335 -0.1010
   45MOL   C103 8991   5.829   2.033   2.135 -0.9592  0.9932  0.7643
   45MOL   C104 8992   5.734   2.065   2.022  0.7910  0.1111  0.1967
   45MOL   O105 8993   5.772   2.108   1.913 -0.0458 -0.0361  0.0356
   45MOL   N106 8994   5.605   2.050   2.047  0.7074  0.3122  0.0778
   45MOL   H107 8995   5.860   1.844   2.038  3.3459 -1.6651 -2.1232
   45MOL   H108 8996   5.967   1.950   1.986 -2.5144 -1.3155 -1.7807
   45MOL   H109 8997   5.768   1.994   2.216 -1.6079  0.1752 -0.1009
   45MOL   H110 8998   5.580   2.005   2.134 -1.3120  3.0630  0.9869
   45MOL   H111 8999   5.535   2.064   1.975  0.7320 -0.3652 -0.0849
   45MOL   C112 9000   5.898   2.160   2.189  0.3139  0.2481  0.1706
   45MOL   C113 9001   6.006   2.224   2.100 -0.2867  0.1716 -0.1620
   45MOL   C114 9002   6.151   2.176   2.137  0.6209 -0.7346  0.6520
   45MOL   O115 9003   6.192   2.184   2.253  0.1680  0.2045 -0.5491
   45MOL   N116 9004   6.221   2.130   2.037  0.2744 -0.1732  0.0421
   45MOL   H117 9005   5.950   2.131   2.281 -0.4574  0.0565  0.5512
   45MOL   H118 9006   5.828   2.242   2.207  0.0668 -0.4449  2.5664
   45MOL   H119 9007   5.996   2.202   1.994  2.2789 -0.3686 -0.3345
   45MOL   H120 9008   6.316   2.097   2.047  1.6425  3.0202 -1.7863
   45MOL   H121 9009   6.162   2.115   1.956 -1.2519  1.8078  0.7504
   45MOL   C122 9010   6.012   2.377   2.098  0.3645  0.3916 -0.3801
   45MOL   C123 9011   5.889   2.445   2.028 -0.1746 -0.4449 -0.4123
   45MOL   C124 9012   5.911   2.450   1.877 -0.0383  0.5700  0.7230
   45MOL   O125 9013   5.953   2.552   1.819  0.3324  0.2011 -0.5890
   45MOL   N126 9014   5.869   2.344   1.804  0.2146 -0.3293 -0.4374
   45MOL   H127 9015   6.100   2.406   2.041  0.4890  0.5848 -0.0897
   45MOL   H128 9016   6.029   2.409   2.201  0.1689 -0.3641 -0.1090
   45MOL   H129 9017   5.794   2.395   2.045 -0.4730 -0.2797 -1.5448
   45MOL   H130 9018   5.866   2.342   1.703 -1.3229  0.6317 -0.4191
   45MOL   H131 9019   5.839   2.256   1.845  1.1507 -0.0667  0.8292
   45MOL   C132 9020   5.878   2.596   2.081 -0.7505 -0.0232 -0.0983
   45MOL   C133 9021   5.855   2.628   2.232  0.0461 -0.1313 -0.0881
   45MOL   C134 9022   5.980   2.683   2.300  1.1122 -0.0011  0.6358
   45MOL   O135 9023   6.031   2.625   2.397  0.3914  0.2608  0.2284
   45MOL   N136 9024   6.019   2.796   2.257 -0.0462 -0.0198  0.0571
   45MOL   H137 9025   5.798   2.645   2.025 -1.1111 -0.9765 -0.4306
   45MOL   H138 9026   5.959   2.659   2.044 -0.3560 -0.3911  0.1425
   45MOL   H139 9027   5.802   2.723   2.237  1.6235  0.7521  0.1709
   45MOL   H140 9028   6.073   2.857   2.317  1.5977 -0.6972 -0.6852
   45MOL   H141 9029   5.964   2.842   2.186  2.7363  1.1272 -1.4319
   45MOL   C142 9030   5.763   2.532   2.315 -0.4267  1.0799  0.5324
   45MOL   C143 9031   5.649   2.605   2.398 -0.0582 -0.0163  0.0185
   45MOL   C144 9032   5.535   2.632   2.300  0.0705  0.3007  0.5354
   45MOL   O145 9033   5.537   2.723   2.214 -0.4514  0.1339 -0.1317
   45MOL   N146 9034   5.430   2.560   2.305  0.0680  0.5284  0.1156
   45MOL   H147 9035   5.826   2.479   2.387  0.8765  2.8681  0.7547
   45MOL   H148 9036   5.715   2.467   2.242  0.3096  0.1145  0.8931
   45MOL   H149 9037   5.606   2.535   2.470 -0.3799 -1.2012 -1.3030
   45MOL   H150 9038   5.352   2.568   2.242  0.1711 -0.9905 -0.2072
   45MOL   H151 9039   5.430   2.487   2.375  2.0456  1.1857  0.8555
   45MOL   C152 9040   5.703   2.722   2.478  0.2744 -0.6177 -0.1054
   45MOL   C153 9041   5.611   2.773   2.598 -0.0914  0.0023  0.3599
   45MOL   C154 9042   5.490   2.855   2.548  0.0246 -0.1675 -0.2393
   45MOL   O155 9043   5.506   2.969   2.506 -0.1228  1.0221 -0.2253
   45MOL   N156 9044   5.368   2.805   2.557  0.3117  0.1286  0.6498
   45MOL   H157 9045   5.725   2.797   2.402  0.7998 -1.3082 -0.6524
   45MOL   H158 9046   5.795   2.693   2.528  0.4407  0.8548  0.4487
   45MOL   H159 9047   5.568   2.690   2.654  3.5264 -2.9322 -1.0526
   45MOL   H160 9048   5.360   2.723   2.616 -0.9137  0.3786  0.8244
   45MOL   H161 9049   5.290   2.863   2.530  1.1601  0.0918 -2.0370
   45MOL   C162 9050   5.690   2.869   2.692  0.5339 -0.2136 -0.3710
   45MOL   C163 9051   5.780   2.794   2.798 -0.2322 -0.0170  0.0053
   45MOL   C164 9052   5.711   2.787   2.937 -0.1184  0.3483 -0.4979
   45MOL   O165 9053   5.652   2.877   2.986  0.4899 -0.4312  0.0245
   45MOL   N166 9054   5.706   2.665   2.984 -0.1597 -0.4460 -0.4132
   45MOL   H167 9055   5.626   2.945   2.738  1.0262  0.3552 -0.6132
   45MOL   H168 9056   5.749   2.935   2.629  0.7617  0.3393  0.4058
   45MOL   H169 9057   5.807   2.694   2.764 -0.9523 -0.5688  1.0211
   45MOL   H170 9058   5.649   2.635   3.062  0.1561  0.2373  0.0952
   45MOL   H171 9059   5.778   2.605   2.949  1.6184  0.6480  1.2485
   45MOL   C172 9060   5.904   2.885   2.829  0.3304  0.8904 -0.6982
   45MOL   C173 9061   6.026   2.852   2.739  0.2489  0.0019 -0.5657
   45MOL   C174 9062   6.097   2.719   2.768  0.1778  0.9680 -0.1604
   45MOL   O175 9063   6.096   2.659   2.876 -0.4332  0.6342  0.3843
   45MOL   N176 9064   6.155   2.651   2.665 -0.2565 -0.1515 -0.0741
   45MOL   H177 9065   5.950   2.867   2.926  1.1749  0.1178 -1.2306
   45MOL   H178 9066   5.883   2.992   2.827 -0.5159  0.7135 -1.9308
   45MOL   H179 9067   5.978   2.836   2.642  0.2908 -1.3138 -0.3781
   45MOL   H180 9068   6.180   2.561   2.702  2.2800  0.7382  0.4543
   45MOL   H181 9069   6.152   2.668   2.566  0.1483  0.1757 -0.0338
   45MOL   C182 9070   6.120   2.969   2.723 -0.1657  0.7269 -0.5312
   45MOL   C183 9071   6.064   3.087   2.633  0.1198  0.3344  0.1834
   45MOL   C184 9072   6.040   3.041   2.484  0.9756  0.9910 -0.3063
   45MOL   O185 9073   6.119   2.973   2.424 -0.8060 -0.1987 -0.1162
   45MOL   N186 9074   5.922   3.069   2.423  0.2953 -0.5471 -0.2913
   45MOL   H187 9075   6.217   2.938   2.684  0.4685 -1.8256  2.8402
   45MOL   H188 9076   6.138   3.002   2.825 -0.1132 -0.9019  0.0071
   45MOL   H189 9077   5.966   3.118   2.669  0.8494  0.2287  2.2900
   45MOL   H190 9078   5.853   3.126   2.471  1.0330  0.3347 -0.2752
   45MOL   H191 9079   5.902   3.026   2.334  1.1520  0.8795 -1.1950
   45MOL   C192 9080   6.160   3.208   2.651 -0.2352 -0.6012  0.0599
   45MOL   C193 9081   6.310   3.177   2.626 -0.2854 -0.5443 -0.2095
   45MOL   C194 9082   6.402   3.296   2.607 -0.5750 -0.0010 -0.1202
   45MOL   O195 9083   6.361   3.400   2.569  0.3294 -0.8143 -0.4109
   45MOL   N196 9084   6.532   3.272   2.638  0.0633  0.0498 -0.1354
   45MOL   H197 9085   6.143   3.250   2.749 -0.8629  0.0145 -0.3090
   45MOL   H198 9086   6.124   3.288   2.586 -0.2171  0.1745  1.0053
   45MOL   H199 9087   6.345   3.112   2.707  0.9112  1.1194  0.6602
   45MOL   H200 9088   6.569   3.180   2.660  2.6664  0.0929 -3.7726
   45MOL   H201 9089   6.594   3.351   2.627  1.1502 -0.5952  1.1585
   45MOL   H202 9090   6.322   3.123   2.532 -0.4385 -1.1433  0.1158
   46MOL     C1 9091   4.179   4.655   0.326 -0.1946 -0.5096  0.0559
   46MOL     C2 9092   4.093   4.532   0.290 -0.0571  0.3576  0.6903
   46MOL     C3 9093   4.106   4.507   0.138  0.2584 -0.3755  0.3890
   46MOL     O4 9094   4.066   4.583   0.047  0.4566  0.0064 -0.0090
   46MOL     N5 9095   4.155   4.385   0.100 -0.5964 -0.4189  0.3517
   46MOL     H6 9096   4.120   4.745   0.311 -0.9454 -0.6237  2.1558
   46MOL     H7 9097   4.199   4.663   0.433  0.7484  1.4094 -0.2635
   46MOL     H8 9098   4.140   4.448   0.342  1.3743 -0.6838 -2.1961
   46MOL     H9 9099   4.181   4.363   0.005  1.0654 -1.3475  0.9987
   46MOL    H10 9100   4.178   4.318   0.171 -0.2160 -1.1813 -0.4852
   46MOL    H11 9101   4.275   4.665   0.276  1.1341 -1.6313  2.2875
   46MOL    C12 9102   3.937   4.542   0.330  0.1569  0.4980 -0.3786
   46MOL    C13 9103   3.902   4.602   0.468  0.4794 -0.2237  0.3099
   46MOL    C14 9104   3.957   4.519   0.584  0.7898 -0.3581 -0.6816
   46MOL    O15 9105   3.880   4.455   0.661  0.5289 -0.2972  0.5652
   46MOL    N16 9106   4.091   4.523   0.599 -0.2803  0.3128 -0.3714
   46MOL    H17 9107   3.907   4.438   0.334 -0.1472  0.5732 -0.6705
   46MOL    H18 9108   3.877   4.600   0.260 -2.2252 -1.1125  0.2735
   46MOL    H19 9109   3.942   4.703   0.481 -4.6789  1.4036  5.1054
   46MOL    H20 9110   4.135   4.603   0.555 -0.6126  0.4132 -0.5271
   46MOL    H21 9111   4.142   4.448   0.643  1.7704  0.9450 -1.5767
   46MOL    C22 9112   3.745   4.629   0.481  0.2285 -0.6254  0.2360
   46MOL    C23 9113   3.695   4.736   0.580 -0.2459 -0.6596 -0.3561
   46MOL    C24 9114   3.553   4.702   0.630 -0.6798  0.4002 -0.4803
   46MOL    O25 9115   3.461   4.684   0.554  0.0438 -0.1258 -0.1336
   46MOL    N26 9116   3.531   4.699   0.759  0.0366 -0.1466  0.2996
   46MOL    H27 9117   3.694   4.536   0.506 -0.2648  0.0198  1.6752
   46MOL    H28 9118   3.695   4.652   0.386  0.8892 -1.7655 -0.3990
   46MOL    H29 9119   3.758   4.741   0.669  0.3658 -0.3354 -0.7997
   46MOL    H30 9120   3.598   4.737   0.824 -0.3588  2.1519 -0.5812
   46MOL    H31 9121   3.446   4.672   0.806 -0.9409  1.7031 -0.3653
   46MOL    C32 9122   3.705   4.876   0.509 -0.1126  0.2626  0.8526
   46MOL    C33 9123   3.718   4.998   0.600  0.1085  0.2087 -1.5364
   46MOL    C34 9124   3.624   5.117   0.554 -0.2370 -0.3320 -0.0750
   46MOL    O35 9125   3.649   5.190   0.458  0.2263 -0.5921  0.1755
   46MOL    N36 9126   3.521   5.144   0.635  0.9970 -0.1432  0.5236
   46MOL    H37 9127   3.613   4.884   0.452 -1.3742 -0.6968  2.6763
   46MOL    H38 9128   3.790   4.877   0.442 -0.7861  0.3722 -0.0041
   46MOL    H39 9129   3.695   4.970   0.702 -2.6912 -1.0044 -2.4574
   46MOL    H40 9130   3.493   5.104   0.723  1.3643  1.0665  1.1840
   46MOL    H41 9131   3.463   5.216   0.593  0.1051  0.9279  3.4693
   46MOL    C42 9132   3.863   5.048   0.611  0.0691 -0.3146 -0.4458
   46MOL    C43 9133   3.899   5.114   0.743  0.2059  0.1082  0.2413
   46MOL    C44 9134   3.992   5.238   0.736  0.8475  0.0604 -0.0378
   46MOL    O45 9135   3.994   5.325   0.826 -0.4418 -0.0266  0.7630
   46MOL    N46 9136   4.076   5.245   0.632  0.3004  0.0970  0.2736
   46MOL    H47 9137   3.866   5.122   0.531 -0.8352  1.3201  0.9834
   46MOL    H48 9138   3.941   4.980   0.576 -0.0776 -1.3089  1.0951
   46MOL    H49 9139   3.806   5.154   0.784 -0.1826 -0.5741  0.0266
   46MOL    H50 9140   4.098   5.171   0.567  0.2755  0.1119  0.2482
   46MOL    H51 9141   4.145   5.319   0.632 -1.2574  1.5868 -1.0846
   46MOL    C52 9142   3.953   5.021   0.849  0.4126 -0.6320  0.2416
   46MOL    C53 9143   4.091   4.955   0.835  0.0707 -0.0480  0.4045
   46MOL    C54 9144   4.112   4.827   0.745  0.7584  0.3583 -0.2421
   46MOL    O55 9145   4.144   4.845   0.625  0.0623  0.3769 -0.0311
   46MOL    N56 9146   4.100   4.705   0.805  0.3087 -0.4465 -0.0174
   46MOL    H57 9147   3.867   4.954   0.851 -0.8877  0.9016 -1.8974
   46MOL    H58 9148   3.938   5.068   0.946 -2.6908 -1.9486  0.4545
   46MOL    H59 9149   4.152   5.026   0.779 -0.0273  0.3159  0.7478
   46MOL    H60 9150   4.062   4.693   0.898  1.1725  0.8379  0.5195
   46MOL    H61 9151   4.124   4.615   0.765  1.1402  0.5430 -1.8386
   46MOL    C62 9152   4.165   4.947   0.977  0.5157  0.2141 -0.0063
   46MOL    C63 9153   4.198   5.083   1.034 -0.1408  0.2465 -0.7059
   46MOL    C64 9154   4.311   5.149   0.944  0.3359 -0.5085  0.2849
   46MOL    O65 9155   4.405   5.093   0.903  0.2480 -0.0300  0.5675
   46MOL    N66 9156   4.296   5.282   0.933  0.2179 -0.8333  0.8035
   46MOL    H67 9157   4.252   4.882   0.967  0.9153  1.0666 -2.1862
   46MOL    H68 9158   4.100   4.905   1.054  0.6662  1.9250  1.1021
   46MOL    H69 9159   4.115   5.152   1.021 -1.1038 -0.7204  0.2033
   46MOL    H70 9160   4.217   5.332   0.971  0.5859 -0.0845  0.5929
   46MOL    H71 9161   4.373   5.339   0.901 -1.2186  2.3358  2.7109
   46MOL    C72 9162   4.241   5.090   1.184  0.6765 -0.0190 -0.0331
   46MOL    C73 9163   4.276   5.229   1.247  0.3257 -0.9003  0.6062
   46MOL    C74 9164   4.343   5.201   1.382 -0.5220  0.0907 -0.4689
   46MOL    O75 9165   4.280   5.155   1.477  0.9624 -0.3218  0.4276
   46MOL    N76 9166   4.476   5.230   1.397  0.0412 -0.2609  0.7275
   46MOL    H77 9167   4.331   5.029   1.193 -0.3425 -1.4245  0.7602
   46MOL    H78 9168   4.171   5.035   1.246 -0.4205 -0.4754 -1.6316
   46MOL    H79 9169   4.343   5.288   1.185 -2.6226  1.0314 -0.8410
   46MOL    H80 9170   4.523   5.264   1.314  0.4962  1.3236  1.6044
   46MOL    H81 9171   4.527   5.213   1.483 -1.1542 -2.3447  1.0477
   46MOL    C82 9172   4.144   5.312   1.253  0.5412  0.3062 -0.0300
   46MOL    C83 9173   4.152   5.461   1.228  0.1441 -0.4479  0.0227
   46MOL    C84 9174   4.245   5.536   1.322  0.5581  0.4381 -0.1355
   46MOL    O85 9175   4.212   5.553   1.439 -0.0469 -0.6109 -0.2992
   46MOL    N86 9176   4.362   5.572   1.289 -0.5968  0.4867  0.1375
   46MOL    H87 9177   4.101   5.290   1.351  0.9132  2.2848  0.5953
   46MOL    H88 9178   4.064   5.279   1.186 -0.8115  2.9395  0.2438
   46MOL    H89 9179   4.179   5.469   1.123 -2.3727 -0.0145 -0.6097
   46MOL    H90 9180   4.380   5.558   1.190 -1.6819  2.3933 -0.3476
   46MOL    H91 9181   4.430   5.610   1.353  0.8187 -0.1127 -0.9712
   46MOL    C92 9182   4.008   5.519   1.230 -0.3077 -0.2833 -0.3209
   46MOL    C93 9183   3.963   5.611   1.118  0.6351  0.4820  0.7717
   46MOL    C94 9184   4.031   5.750   1.111  0.0720  0.0887 -0.1884
   46MOL    O95 9185   4.123   5.787   1.177 -0.9817  0.3685 -0.7263
   46MOL    N96 9186   3.981   5.835   1.024  0.5300 -0.4381  0.2156
   46MOL    H97 9187   4.006   5.572   1.326 -1.2608  0.0373 -0.5085
   46MOL    H98 9188   3.942   5.433   1.244 -0.6657 -0.0710 -0.6919
   46MOL    H99 9189   3.994   5.561   1.026 -1.8394 -3.6533  2.0371
   46MOL   H100 9190   3.902   5.812   0.965 -1.1195  0.3676  2.0567
   46MOL   H101 9191   4.042   5.911   0.997 -0.4442 -0.0675 -0.9636
   46MOL   C102 9192   3.803   5.627   1.108  0.2744  0.0416 -0.3215
   46MOL   C103 9193   3.739   5.567   0.982  0.4046 -0.1112  0.2551
   46MOL   C104 9194   3.796   5.642   0.856 -0.4517  0.4655 -0.0690
   46MOL   O105 9195   3.790   5.762   0.850 -0.1785  0.0620  0.1576
   46MOL   N106 9196   3.867   5.568   0.764 -0.6849  0.1752 -0.5866
   46MOL   H107 9197   3.763   5.726   1.129 -0.5239 -0.2401 -0.5123
   46MOL   H108 9198   3.765   5.567   1.190  1.1842 -1.0323 -0.6662
   46MOL   H109 9199   3.770   5.463   0.973  1.1495  0.0102  1.3233
   46MOL   H110 9200   3.904   5.610   0.680  0.2046 -0.0456 -0.3020
   46MOL   H111 9201   3.902   5.477   0.788 -0.9175  0.5543  1.2695
   46MOL   C112 9202   3.579   5.574   0.992 -0.5175 -0.4984 -0.6024
   46MOL   C113 9203   3.493   5.517   0.876  0.7759  0.1914 -0.4063
   46MOL   C114 9204   3.344   5.567   0.884 -1.1055  0.0599  0.0283
   46MOL   O115 9205   3.304   5.624   0.977 -0.4084 -0.5434 -0.4189
   46MOL   N116 9206   3.279   5.567   0.770 -0.1623  1.0538 -0.1462
   46MOL   H117 9207   3.554   5.680   0.996 -0.3434 -0.3375 -3.2922
   46MOL   H118 9208   3.544   5.532   1.086 -2.2575  3.7487  0.7715
   46MOL   H119 9209   3.534   5.545   0.779  2.7778  0.4711  0.4977
   46MOL   H120 9210   3.314   5.526   0.684  1.8097  2.2752  0.0682
   46MOL   H121 9211   3.185   5.605   0.761 -1.3319 -1.1250  2.2157
   46MOL   C122 9212   3.495   5.359   0.863 -0.3274  1.2049  0.3322
   46MOL   C123 9213   3.475   5.268   0.993 -0.5407  0.2937 -0.5876
   46MOL   C124 9214   3.579   5.152   0.990 -0.1766 -0.2599 -0.4105
   46MOL   O125 9215   3.567   5.058   0.913  0.1004  0.2058  0.7430
   46MOL   N126 9216   3.692   5.170   1.060  0.1426  0.4720  0.2161
   46MOL   H127 9217   3.588   5.345   0.808  0.0001 -2.3979  1.6773
   46MOL   H128 9218   3.427   5.337   0.780 -0.1027 -1.1063  0.7452
   46MOL   H129 9219   3.495   5.311   1.090  1.7177 -2.8919  0.4467
   46MOL   H130 9220   3.767   5.102   1.065 -0.1542  0.1503  0.3304
   46MOL   H131 9221   3.708   5.264   1.092  1.4916  0.7265 -1.1903
   46MOL   C132 9222   3.334   5.222   1.009 -0.3037 -0.6313 -0.8293
   46MOL   C133 9223   3.256   5.145   0.899 -0.1897 -0.2088  0.2457
   46MOL   C134 9224   3.116   5.206   0.872 -0.5898  0.9304  1.2486
   46MOL   O135 9225   3.022   5.174   0.946 -0.2599  0.2440  0.0154
   46MOL   N136 9226   3.097   5.291   0.772 -0.0726  0.2021  0.8488
   46MOL   H137 9227   3.284   5.315   1.035  2.1015 -0.0518  1.9867
   46MOL   H138 9228   3.335   5.159   1.098 -0.2227  0.1489 -0.2665
   46MOL   H139 9229   3.306   5.144   0.802 -0.2968  0.4095  0.1820
   46MOL   H140 9230   3.003   5.327   0.763 -1.2753 -2.3200  2.7467
   46MOL   H141 9231   3.173   5.316   0.710  0.7087 -1.1811  1.2231
   46MOL   C142 9232   3.245   4.992   0.935 -0.4583 -0.3953  0.1638
   46MOL   C143 9233   3.160   4.894   0.853  0.2094  0.2823 -0.3392
   46MOL   C144 9234   3.183   4.750   0.901 -0.8935  0.1646 -0.9681
   46MOL   O145 9235   3.271   4.678   0.856  0.2384  0.4688 -0.5967
   46MOL   N146 9236   3.097   4.714   0.996  0.5780  0.5158  0.1644
   46MOL   H147 9237   3.212   4.984   1.039  0.2488  1.6112  0.5591
   46MOL   H148 9238   3.346   4.953   0.946 -0.2493 -0.9502 -3.1863
   46MOL   H149 9239   3.053   4.910   0.868  0.3486  0.3226  0.6123
   46MOL   H150 9240   3.033   4.784   1.029  0.4501  1.2482 -1.5928
   46MOL   H151 9241   3.100   4.620   1.035 -0.8496  0.7487  0.8411
   46MOL   C152 9242   3.173   4.912   0.697 -0.4991 -0.1116 -0.4125
   46MOL   C153 9243   3.105   4.804   0.601  0.7019  0.3470  0.3324
   46MOL   C154 9244   3.136   4.836   0.456  0.0617 -0.0524 -0.1330
   46MOL   O155 9245   3.060   4.905   0.388  0.5294  0.1589 -0.1417
   46MOL   N156 9246   3.250   4.793   0.404 -0.2429 -0.1931 -0.0355
   46MOL   H157 9247   3.280   4.911   0.677 -0.3045  3.4583  0.1107
   46MOL   H158 9248   3.144   5.013   0.666  1.7137  0.4391 -0.7449
   46MOL   H159 9249   3.156   4.709   0.615 -2.5191 -1.2538  1.7891
   46MOL   H160 9250   3.293   4.824   0.318  1.8474  1.9246  1.6993
   46MOL   H161 9251   3.309   4.746   0.471 -1.0026 -0.0512  0.7482
   46MOL   C162 9252   2.954   4.796   0.635 -0.1207  0.0762 -0.5378
   46MOL   C163 9253   2.915   4.650   0.670  0.0498 -0.1077  0.1884
   46MOL   C164 9254   2.912   4.576   0.538  0.0707 -0.3257 -0.1372
   46MOL   O165 9255   2.838   4.611   0.450  0.5233 -0.4008 -0.8072
   46MOL   N166 9256   3.000   4.478   0.507 -0.9088 -0.2891  0.3058
   46MOL   H167 9257   2.890   4.820   0.550 -0.6170  1.9722  0.3384
   46MOL   H168 9258   2.916   4.854   0.719 -0.1390 -2.4248  1.2257
   46MOL   H169 9259   2.991   4.612   0.738 -0.9534 -1.1979  0.7117
   46MOL   H170 9260   2.988   4.414   0.430 -0.1459 -0.8863  0.6718
   46MOL   H171 9261   3.063   4.431   0.570  0.2782  2.0912  0.9838
   46MOL   C172 9262   2.776   4.632   0.741  0.0855 -0.2552  0.4626
   46MOL   C173 9263   2.753   4.509   0.840  0.3752  0.2641 -0.1090
   46MOL   C174 9264   2.719   4.379   0.767 -0.5598 -0.3957  0.1350
   46MOL   O175 9265   2.629   4.388   0.683  0.3797  0.0339  0.4279
   46MOL   N176 9266   2.788   4.269   0.790 -0.0948 -0.2928 -0.5225
   46MOL   H177 9267   2.697   4.646   0.668 -0.7238 -1.1918  1.1481
   46MOL   H178 9268   2.757   4.720   0.802  1.4734 -0.4681  1.2271
   46MOL   H179 9269   2.845   4.509   0.898  0.8914  0.9803 -0.9060
   46MOL   H180 9270   2.771   4.179   0.748 -3.4488  0.5366 -1.1027
   46MOL   H181 9271   2.859   4.260   0.861 -2.2019 -0.8199  1.5892
   46MOL   C182 9272   2.636   4.533   0.945  0.2614 -1.0712  0.1864
   46MOL   C183 9273   2.675   4.472   1.088  0.3720  0.2750  0.1478
   46MOL   C184 9274   2.547   4.458   1.172  0.2077 -0.3792 -0.1441
   46MOL   O185 9275   2.464   4.546   1.179  0.5197  0.3666  0.1688
   46MOL   N186 9276   2.531   4.348   1.243 -0.6816 -0.1411 -0.5756
   46MOL   H187 9277   2.542   4.486   0.914  0.3300 -1.7286  0.9425
   46MOL   H188 9278   2.621   4.640   0.958  0.0601 -1.3242  2.2630
   46MOL   H189 9279   2.713   4.372   1.066  1.6420  0.7102  0.2799
   46MOL   H190 9280   2.603   4.277   1.250  0.7741  1.3017 -0.5539
   46MOL   H191 9281   2.445   4.336   1.295  1.5505 -0.9955  3.0974
   46MOL   C192 9282   2.791   4.560   1.150  0.2485  0.1978  0.5856
   46MOL   C193 9283   2.885   4.469   1.231  0.0266  0.7799 -0.6959
   46MOL   C194 9284   3.007   4.547   1.274 -0.1067  1.0997 -0.5277
   46MOL   O195 9285   3.117   4.515   1.225  0.5039 -0.3363 -0.1356
   46MOL   N196 9286   2.982   4.650   1.355  0.2169  0.8571 -0.6528
   46MOL   H197 9287   2.736   4.621   1.222 -0.0099  0.5423  0.0955
   46MOL   H198 9288   2.846   4.623   1.080  2.1157 -1.3710  0.6105
   46MOL   H199 9289   2.825   4.420   1.307 -1.1209  1.1328 -1.3661
   46MOL   H200 9290   3.051   4.719   1.384  1.4576 -0.4855 -0.3644
   46MOL   H201 9291   2.885   4.662   1.380  0.8668  1.4828  1.6877
   46MOL   H202 9292   2.924   4.397   1.158 -0.1027 -0.2169  0.2152
   47MOL     C1 9293   3.667   3.433   3.639  0.2598 -0.7618  0.4979
   47MOL     C2 9294   3.666   3.589   3.648 -0.2028  0.1438  0.3435
   47MOL     C3 9295   3.773   3.639   3.549  0.4043 -0.4854  0.4079
   47MOL     O4 9296   3.745   3.696   3.443  0.4222 -0.6239  0.3464
   47MOL     N5 9297   3.900   3.639   3.583 -0.6141  1.1684 -0.3397
   47MOL     H6 9298   3.656   3.393   3.538  0.2454  0.6789 -0.0816
   47MOL     H7 9299   3.762   3.394   3.676 -0.1086 -2.4833 -0.3003
   47MOL     H8 9300   3.563   3.616   3.625  0.0284  2.7652  2.1775
   47MOL     H9 9301   3.983   3.662   3.529  0.9195  0.6894  1.7478
   47MOL    H10 9302   3.927   3.611   3.676 -0.0566  3.7855  0.3229
   47MOL    H11 9303   3.584   3.387   3.693 -1.1051  0.1045 -0.8448
   47MOL    C12 9304   3.687   3.615   3.800 -0.4602 -0.0294  0.4287
   47MOL    C13 9305   3.700   3.766   3.839  0.3918  0.1221 -0.1982
   47MOL    C14 9306   3.731   3.777   3.992 -0.6645 -0.2882 -0.5030
   47MOL    O15 9307   3.658   3.714   4.069 -0.1007 -0.5902 -0.4808
   47MOL    N16 9308   3.832   3.849   4.030  0.2051  0.2817  0.0759
   47MOL    H17 9309   3.787   3.573   3.816  1.1249  2.8387 -1.4712
   47MOL    H18 9310   3.614   3.563   3.861  0.5520 -1.4909  0.4266
   47MOL    H19 9311   3.784   3.815   3.789  0.7843  0.5550  0.8598
   47MOL    H20 9312   3.889   3.889   3.956 -0.2115  1.9118  0.6369
   47MOL    H21 9313   3.855   3.862   4.127  2.1088 -1.4111 -0.0983
   47MOL    C22 9314   3.569   3.841   3.811 -0.4067  0.5891  0.0370
   47MOL    C23 9315   3.544   3.916   3.672 -0.0436  0.3456 -0.0480
   47MOL    C24 9316   3.656   4.021   3.648 -0.1229 -0.5524 -0.0162
   47MOL    O25 9317   3.680   4.113   3.727 -0.1059  0.1815  0.2029
   47MOL    N26 9318   3.740   3.993   3.545  0.7015  0.1333 -0.2396
   47MOL    H27 9319   3.563   3.919   3.887 -1.0246  0.9153 -0.3363
   47MOL    H28 9320   3.490   3.769   3.833  0.4559  0.5398  3.2148
   47MOL    H29 9321   3.546   3.842   3.592  1.0443 -0.1783  0.4506
   47MOL    H30 9322   3.823   4.046   3.523  1.4118 -0.6244  0.5863
   47MOL    H31 9323   3.728   3.906   3.496 -0.4603 -0.2458  0.6788
   47MOL    C32 9324   3.399   3.981   3.670  0.5486 -0.3478 -0.2052
   47MOL    C33 9325   3.333   3.998   3.529 -0.3452 -0.7210 -0.1827
   47MOL    C34 9326   3.382   4.134   3.456 -0.1552  0.5702  0.1365
   47MOL    O35 9327   3.320   4.242   3.459 -0.1916 -0.0414  0.0317
   47MOL    N36 9328   3.488   4.123   3.379  0.0930 -0.3384  0.5847
   47MOL    H37 9329   3.410   4.076   3.722  0.6613 -0.4441 -0.0541
   47MOL    H38 9330   3.346   3.918   3.740  1.9169 -1.4027 -0.1027
   47MOL    H39 9331   3.358   3.921   3.456  2.1787 -0.1298  0.0176
   47MOL    H40 9332   3.511   4.029   3.351 -1.9927 -0.0131 -2.4712
   47MOL    H41 9333   3.531   4.203   3.335  1.7098 -1.2023  0.5779
   47MOL    C42 9334   3.184   3.996   3.534 -0.2631 -0.6443 -0.5486
   47MOL    C43 9335   3.123   3.856   3.561  0.3487  0.6466 -0.3970
   47MOL    C44 9336   3.022   3.814   3.461  0.5199  0.2292  0.5976
   47MOL    O45 9337   3.055   3.727   3.379  0.6786 -0.0944 -0.1636
   47MOL    N46 9338   2.897   3.860   3.459 -0.2326 -0.4868  0.3652
   47MOL    H47 9339   3.139   4.040   3.445  0.7549 -1.1277 -1.3088
   47MOL    H48 9340   3.166   4.073   3.609 -1.4467 -1.5203  0.0881
   47MOL    H49 9341   3.207   3.793   3.532  1.5671  2.0355  0.0668
   47MOL    H50 9342   2.864   3.917   3.535 -0.4993  0.1071 -0.1861
   47MOL    H51 9343   2.831   3.821   3.393  0.1082 -2.2129  1.0228
   47MOL    C52 9344   3.069   3.813   3.703 -0.2142  0.0828  0.5125
   47MOL    C53 9345   3.140   3.685   3.757  0.4796  0.3290 -0.5455
   47MOL    C54 9346   3.113   3.547   3.680 -0.1847  0.1082 -0.1776
   47MOL    O55 9347   3.011   3.481   3.704 -0.0417 -0.0561 -0.0760
   47MOL    N56 9348   3.205   3.507   3.594 -0.3254 -0.1766 -0.3174
   47MOL    H57 9349   2.960   3.802   3.706 -0.2346  0.1246  0.0638
   47MOL    H58 9350   3.101   3.876   3.785  1.3347 -0.4975  0.3679
   47MOL    H59 9351   3.248   3.697   3.753  0.8336 -2.6367 -1.1077
   47MOL    H60 9352   3.179   3.425   3.542 -0.2240  0.0833 -0.7764
   47MOL    H61 9353   3.282   3.565   3.564  0.1417 -0.9661 -0.6661
   47MOL    C62 9354   3.100   3.667   3.906 -0.3316  0.1127 -0.0812
   47MOL    C63 9355   3.212   3.683   4.015 -0.0453  1.2289  0.6760
   47MOL    C64 9356   3.263   3.828   4.040  0.4610  0.2418  0.5423
   47MOL    O65 9357   3.192   3.924   4.032  0.0514 -0.0272 -0.0661
   47MOL    N66 9358   3.395   3.854   4.068  0.6105  0.1855 -0.3863
   47MOL    H67 9359   3.062   3.568   3.928  2.0668 -0.9494 -0.5453
   47MOL    H68 9360   3.026   3.743   3.932  0.9707  1.9658 -1.6495
   47MOL    H69 9361   3.162   3.662   4.109  0.6620 -2.8712  0.2630
   47MOL    H70 9362   3.431   3.946   4.089  1.2786 -0.3184  0.7549
   47MOL    H71 9363   3.469   3.788   4.046  0.4505 -0.2750  0.4213
   47MOL    C72 9364   3.332   3.577   3.994 -0.3343 -0.2184 -0.3775
   47MOL    C73 9365   3.284   3.432   4.006  0.3902 -0.2667  0.5877
   47MOL    C74 9366   3.252   3.402   4.150  0.1408 -0.0509  0.0305
   47MOL    O75 9367   3.337   3.362   4.226  0.2268  0.4245  0.6982
   47MOL    N76 9368   3.131   3.427   4.196  0.4729  0.3731  0.6464
   47MOL    H77 9369   3.404   3.605   4.072  0.0905 -1.5398 -0.2814
   47MOL    H78 9370   3.370   3.593   3.894 -0.5650  0.8230 -0.3026
   47MOL    H79 9371   3.197   3.412   3.942 -0.2901 -0.1684  1.4780
   47MOL    H80 9372   3.104   3.414   4.293 -1.4900 -0.0507  0.0754
   47MOL    H81 9373   3.066   3.482   4.141  2.3292  1.2105 -0.7447
   47MOL    C82 9374   3.388   3.331   3.945  0.1880 -0.0452 -0.8310
   47MOL    C83 9375   3.348   3.187   3.985  0.3014 -0.4869  0.2081
   47MOL    C84 9376   3.479   3.122   4.041 -0.5908 -0.3845  0.0876
   47MOL    O85 9377   3.558   3.061   3.973 -0.3361  0.2768 -0.1247
   47MOL    N86 9378   3.489   3.140   4.174  0.1068 -0.4538  0.6846
   47MOL    H87 9379   3.488   3.359   3.980 -0.6489 -0.1626  1.7506
   47MOL    H88 9380   3.397   3.345   3.837  1.6100  0.0100 -0.7236
   47MOL    H89 9381   3.271   3.179   4.061  0.0374  1.1379  0.1299
   47MOL    H90 9382   3.415   3.191   4.218 -2.0137 -2.1944 -0.7464
   47MOL    H91 9383   3.566   3.096   4.222  1.1093 -0.6638 -1.0578
   47MOL    C92 9384   3.284   3.106   3.869 -0.4482  0.3817 -0.1884
   47MOL    C93 9385   3.159   3.156   3.801 -0.1790  0.7007 -0.4880
   47MOL    C94 9386   3.045   3.165   3.904 -0.0858 -0.3248 -0.1939
   47MOL    O95 9387   3.036   3.080   3.999  0.1599  0.2484  0.1246
   47MOL    N96 9388   2.957   3.267   3.897 -0.4962 -0.1776  0.1664
   47MOL    H97 9389   3.274   3.003   3.903  0.3930  0.5814  0.6866
   47MOL    H98 9390   3.359   3.106   3.789  0.0598 -2.5287  0.2217
   47MOL    H99 9391   3.181   3.258   3.769 -2.3909  1.5081  0.4535
   47MOL   H100 9392   2.982   3.337   3.829  2.1540  0.1489  1.4000
   47MOL   H101 9393   2.891   3.288   3.970  0.8763  0.1761  1.3372
   47MOL   C102 9394   3.119   3.069   3.682 -0.1332 -0.0227 -0.0605
   47MOL   C103 9395   3.215   3.069   3.560  0.0627 -0.3870  0.3467
   47MOL   C104 9396   3.238   3.200   3.481  0.1860 -0.5913 -0.3750
   47MOL   O105 9397   3.138   3.261   3.446 -0.4883 -0.4466  0.2429
   47MOL   N106 9398   3.362   3.239   3.447  0.4853 -0.5149 -0.5027
   47MOL   H107 9399   3.021   3.092   3.641  1.2659  2.2810 -2.3728
   47MOL   H108 9400   3.116   2.964   3.711 -0.9869 -0.6275 -2.1904
   47MOL   H109 9401   3.315   3.045   3.596 -0.2044 -0.2122  1.2037
   47MOL   H110 9402   3.376   3.326   3.398 -1.8174  0.0988 -0.1251
   47MOL   H111 9403   3.445   3.193   3.483 -0.6765 -0.7530  2.0225
   47MOL   C112 9404   3.184   2.967   3.446  0.3852 -0.1932  0.2001
   47MOL   C113 9405   3.178   2.822   3.488  0.7686 -0.7059  0.1677
   47MOL   C114 9406   3.318   2.783   3.542 -0.6922  0.1215 -0.0714
   47MOL   O115 9407   3.419   2.788   3.468 -0.5073 -0.1075 -0.1486
   47MOL   N116 9408   3.333   2.741   3.665 -0.0568  0.0400  0.5153
   47MOL   H117 9409   3.234   2.989   3.351 -0.4158  1.6274  0.1843
   47MOL   H118 9410   3.079   2.977   3.422 -0.2023 -1.8118  1.9381
   47MOL   H119 9411   3.098   2.802   3.558  0.1145  1.3100  0.0219
   47MOL   H120 9412   3.419   2.708   3.706 -0.5164 -2.2049 -0.2561
   47MOL   H121 9413   3.245   2.728   3.712  0.6044 -0.9661  1.5077
   47MOL   C122 9414   3.130   2.734   3.364 -0.2628  0.6747 -0.1964
   47MOL   C123 9415   3.102   2.584   3.383  0.0322  0.7493  0.0068
   47MOL   C124 9416   3.214   2.493   3.334  0.6478 -0.8074 -0.4522
   47MOL   O125 9417   3.293   2.434   3.407 -0.5122  0.4518  0.0166
   47MOL   N126 9418   3.214   2.474   3.202  0.2750  0.3142  1.0803
   47MOL   H127 9419   3.207   2.739   3.287  0.3110  0.4934  0.3618
   47MOL   H128 9420   3.041   2.776   3.317  0.8864  2.3686 -0.8957
   47MOL   H129 9421   3.098   2.559   3.489  0.3219 -0.9438 -0.3604
   47MOL   H130 9422   3.282   2.408   3.166  0.7241  1.4068 -0.1108
   47MOL   H131 9423   3.145   2.521   3.144  1.0650  0.3201  0.1400
   47MOL   C132 9424   2.964   2.539   3.323  0.7284  0.6067 -0.2068
   47MOL   C133 9425   2.921   2.393   3.353 -0.4276  0.1604  0.5507
   47MOL   C134 9426   2.799   2.342   3.275 -0.7473  0.5443 -0.3043
   47MOL   O135 9427   2.793   2.225   3.245  0.2954  0.0111 -0.5889
   47MOL   N136 9428   2.701   2.427   3.234 -0.7144 -0.1802 -0.8598
   47MOL   H137 9429   2.971   2.558   3.216  1.2548 -0.2565 -0.3336
   47MOL   H138 9430   2.889   2.608   3.361  1.7271  1.9188 -0.5582
   47MOL   H139 9431   2.999   2.322   3.326 -0.1087  0.3977  0.8425
   47MOL   H140 9432   2.699   2.523   3.265 -1.2966 -0.1553 -0.9788
   47MOL   H141 9433   2.633   2.405   3.163 -2.1583  0.0220  0.4426
   47MOL   C142 9434   2.886   2.376   3.507  0.1013 -0.3869  0.0415
   47MOL   C143 9435   2.873   2.227   3.563 -0.4834  0.0507  0.7195
   47MOL   C144 9436   2.750   2.212   3.650  0.1719  0.1679 -0.2408
   47MOL   O145 9437   2.731   2.296   3.742 -0.4373  0.4405  0.9569
   47MOL   N146 9438   2.662   2.121   3.618 -0.2462  0.3280 -0.0693
   47MOL   H147 9439   2.792   2.432   3.510 -0.2610 -1.0661  2.0606
   47MOL   H148 9440   2.957   2.433   3.567  0.2436  0.5850 -1.0264
   47MOL   H149 9441   2.869   2.161   3.476 -0.4164 -0.9257  1.4430
   47MOL   H150 9442   2.683   2.053   3.546 -0.0930 -1.3927  1.5500
   47MOL   H151 9443   2.566   2.124   3.649  0.1993  1.7325  1.2455
   47MOL   C152 9444   2.998   2.176   3.646  0.0056  0.3756 -0.4678
   47MOL   C153 9445   3.139   2.180   3.582 -0.6796 -0.6614 -0.1186
   47MOL   C154 9446   3.145   2.101   3.453  0.7504 -0.6478 -0.3019
   47MOL   O155 9447   3.091   1.992   3.444  0.3267 -0.6704  0.2007
   47MOL   N156 9448   3.207   2.163   3.354  0.4169  0.3969  0.0717
   47MOL   H157 9449   2.977   2.070   3.659 -1.1741  0.3020 -2.7140
   47MOL   H158 9450   2.994   2.219   3.747  0.1422  0.2236 -0.3974
   47MOL   H159 9451   3.168   2.284   3.567  3.1650 -1.7045 -0.3924
   47MOL   H160 9452   3.214   2.114   3.266 -0.2218  1.6984 -0.7182
   47MOL   H161 9453   3.251   2.253   3.368 -0.6847  0.9142  0.3270
   47MOL   C162 9454   3.230   2.119   3.696  0.5633 -0.3061 -0.0548
   47MOL   C163 9455   3.374   2.085   3.664  0.2516 -0.5701 -0.1509
   47MOL   C164 9456   3.440   2.021   3.791 -0.0624 -0.0107  0.1967
   47MOL   O165 9457   3.537   1.945   3.783  0.7929  0.0970 -0.5970
   47MOL   N166 9458   3.387   2.040   3.913  0.2774  0.3833 -0.0459
   47MOL   H167 9459   3.183   2.031   3.739  0.8425  0.1545  1.2040
   47MOL   H168 9460   3.232   2.181   3.785  0.2671  0.5038 -0.6063
   47MOL   H169 9461   3.367   2.007   3.588  0.2107 -0.1946 -0.5314
   47MOL   H170 9462   3.406   1.984   3.995  1.4893 -0.0228 -0.5942
   47MOL   H171 9463   3.299   2.089   3.915 -0.7036 -1.3329 -0.2698
   47MOL   C172 9464   3.455   2.207   3.612 -0.2889  0.4907  0.8300
   47MOL   C173 9465   3.606   2.179   3.582  0.2109 -0.2732 -0.0247
   47MOL   C174 9466   3.691   2.248   3.689  0.1276 -1.1170 -0.3279
   47MOL   O175 9467   3.706   2.367   3.680 -1.1449  0.2428  0.0824
   47MOL   N176 9468   3.756   2.182   3.787 -0.7102  0.8622 -0.0697
   47MOL   H177 9469   3.436   2.290   3.680  0.4167  1.1926  0.1551
   47MOL   H178 9470   3.401   2.236   3.522 -0.1525 -3.6994 -0.7235
   47MOL   H179 9471   3.619   2.071   3.586 -0.5380 -0.3754 -0.2926
   47MOL   H180 9472   3.742   2.082   3.796 -0.1824  0.8045  0.1079
   47MOL   H181 9473   3.804   2.235   3.858  0.6763  1.1852 -1.2372
   47MOL   C182 9474   3.658   2.226   3.443 -0.0109  0.0254  0.4485
   47MOL   C183 9475   3.669   2.104   3.345 -0.0023 -0.0114 -0.4666
   47MOL   C184 9476   3.766   2.131   3.228  0.4549 -0.3049 -0.6729
   47MOL   O185 9477   3.731   2.191   3.129  0.1904 -0.1873  0.2800
   47MOL   N186 9478   3.894   2.094   3.227 -0.1872  0.2517 -0.3966
   47MOL   H187 9479   3.756   2.273   3.439  0.6008 -1.2084  0.6812
   47MOL   H188 9480   3.585   2.296   3.401  1.4204  2.1050  1.3529
   47MOL   H189 9481   3.714   2.024   3.405  0.1076  1.5431  1.5926
   47MOL   H190 9482   3.937   2.052   3.309 -0.4562  1.1814  0.2341
   47MOL   H191 9483   3.940   2.100   3.137 -1.5205  0.5871 -1.0658
   47MOL   C192 9484   3.537   2.059   3.288  0.2248 -0.2453  0.2894
   47MOL   C193 9485   3.536   1.931   3.204 -0.5212  0.0740  0.0091
   47MOL   C194 9486   3.413   1.914   3.124  0.4221 -0.0078  0.4191
   47MOL   O195 9487   3.325   1.998   3.130 -0.2863  0.9626  0.5440
   47MOL   N196 9488   3.408   1.798   3.052  0.5881  0.5428  0.0110
   47MOL   H197 9489   3.481   2.141   3.242 -0.3102 -0.7033  0.1303
   47MOL   H198 9490   3.469   2.039   3.371 -0.6651 -1.8565 -0.8172
   47MOL   H199 9491   3.619   1.929   3.132  0.3622 -1.0154  1.0390
   47MOL   H200 9492   3.331   1.763   2.996  2.0038 -1.6815 -0.5783
   47MOL   H201 9493   3.495   1.747   3.050  0.6760  0.6387  1.1238
   47MOL   H202 9494   3.549   1.847   3.271 -1.2106  1.1841  1.5501
   48MOL     C1 9495   4.065   3.089   2.391  0.1613  0.1744 -0.9622
   48MOL     C2 9496   4.018   2.992   2.505  0.1167  0.5135 -0.3374
   48MOL     C3 9497   3.866   2.964   2.508 -0.2331 -0.4141 -0.1213
   48MOL     O4 9498   3.822   2.847   2.492  0.3702 -0.2072 -0.1359
   48MOL     N5 9499   3.787   3.065   2.527 -0.5624 -0.3403 -0.4065
   48MOL     H6 9500   4.142   3.155   2.432 -1.4729  0.7292  1.3365
   48MOL     H7 9501   4.101   3.032   2.305  0.3332  0.1653 -0.8840
   48MOL     H8 9502   4.081   2.906   2.485 -0.3737 -0.1027  0.7193
   48MOL     H9 9503   3.809   3.162   2.544 -0.6778 -0.0739 -1.6984
   48MOL    H10 9504   3.693   3.028   2.535 -0.9542  0.8942  0.7029
   48MOL    H11 9505   3.987   3.155   2.353 -1.0210 -0.6972 -0.0997
   48MOL    C12 9506   4.059   3.048   2.646  0.2313  0.1681 -0.1729
   48MOL    C13 9507   4.145   2.945   2.729  0.6475 -0.0050 -0.2794
   48MOL    C14 9508   4.286   2.938   2.692  0.4394 -0.1281 -0.0707
   48MOL    O15 9509   4.360   3.006   2.758 -0.2656  0.3594  0.7215
   48MOL    N16 9510   4.332   2.853   2.600 -0.0897  0.2413  0.4442
   48MOL    H17 9511   3.976   3.064   2.714 -0.1583 -0.2333 -0.5480
   48MOL    H18 9512   4.110   3.144   2.644  1.7532 -0.5964  0.6389
   48MOL    H19 9513   4.148   2.991   2.828 -0.8793  0.7481 -0.5661
   48MOL    H20 9514   4.431   2.837   2.589 -0.1229  0.5992 -0.3622
   48MOL    H21 9515   4.268   2.800   2.543  1.5283  0.3835 -1.5639
   48MOL    C22 9516   4.084   2.809   2.750 -0.7132  0.7416  0.1639
   48MOL    C23 9517   3.966   2.807   2.851 -0.4476 -0.2548  0.7928
   48MOL    C24 9518   4.004   2.853   2.997 -0.2630 -0.3149 -0.1875
   48MOL    O25 9519   4.105   2.807   3.045  0.1383  0.1054  0.3296
   48MOL    N26 9520   3.936   2.936   3.077 -0.2267 -0.0165  0.6944
   48MOL    H27 9521   4.159   2.741   2.791  0.9325  0.8634 -2.5001
   48MOL    H28 9522   4.051   2.764   2.656 -1.2505  1.1017  0.1806
   48MOL    H29 9523   3.888   2.873   2.814 -0.5811 -2.0825 -2.3608
   48MOL    H30 9524   3.981   2.953   3.166 -1.2117 -0.1209  1.2145
   48MOL    H31 9525   3.862   2.996   3.044  0.5204 -1.0052 -2.9681
   48MOL    C32 9526   3.907   2.665   2.857 -0.0178 -1.0925  0.7683
   48MOL    C33 9527   3.781   2.653   2.939 -0.2065  0.9313 -0.4905
   48MOL    C34 9528   3.744   2.508   2.959  0.1121 -0.7831 -0.0668
   48MOL    O35 9529   3.675   2.450   2.876  0.1336  0.1516 -0.2386
   48MOL    N36 9530   3.801   2.441   3.057 -0.2560  0.5428 -0.1604
   48MOL    H37 9531   3.972   2.586   2.893 -0.7420 -2.1014 -0.1043
   48MOL    H38 9532   3.878   2.626   2.760 -1.1106  1.4892 -0.0031
   48MOL    H39 9533   3.811   2.684   3.040 -0.0502 -0.2341 -0.1782
   48MOL    H40 9534   3.779   2.343   3.063 -1.5294  0.8911  1.0794
   48MOL    H41 9535   3.840   2.481   3.142 -0.9767 -1.4723  1.1610
   48MOL    C42 9536   3.662   2.743   2.887 -0.1184 -0.0490  0.1647
   48MOL    C43 9537   3.594   2.820   3.011  0.1488  0.2890 -0.6607
   48MOL    C44 9538   3.514   2.716   3.093 -0.5323  0.4681  0.9187
   48MOL    O45 9539   3.424   2.656   3.042 -0.0208 -0.2174  0.7108
   48MOL    N46 9540   3.554   2.689   3.223 -0.4826  0.3072  0.1191
   48MOL    H47 9541   3.578   2.697   2.835 -0.3443  0.3058  0.2109
   48MOL    H48 9542   3.694   2.809   2.808  0.7031  0.3140  0.7967
   48MOL    H49 9543   3.675   2.855   3.075 -0.2302 -1.4540  0.8101
   48MOL    H50 9544   3.493   2.632   3.279  1.0208 -0.3996  1.0689
   48MOL    H51 9545   3.638   2.731   3.262  0.5732 -1.2786 -0.3811
   48MOL    C52 9546   3.505   2.938   2.957  1.0798 -0.3390  0.2227
   48MOL    C53 9547   3.444   3.038   3.062 -0.2198  0.0075 -0.4632
   48MOL    C54 9548   3.340   3.130   3.006  0.3172 -0.1895  0.1632
   48MOL    O55 9549   3.292   3.122   2.894  0.6199 -0.3112 -1.0896
   48MOL    N56 9550   3.296   3.229   3.090  0.6330 -0.2601 -0.4281
   48MOL    H57 9551   3.419   2.885   2.916 -0.6493  1.0533  1.9583
   48MOL    H58 9552   3.548   3.003   2.881  2.9838  0.0176  1.5741
   48MOL    H59 9553   3.386   2.980   3.133 -1.8060  2.2637  0.1286
   48MOL    H60 9554   3.221   3.292   3.065  0.7311 -0.5305 -1.4377
   48MOL    H61 9555   3.340   3.233   3.181 -0.5381 -0.3785  0.1469
   48MOL    C62 9556   3.556   3.112   3.136 -0.0917 -0.3872  0.7740
   48MOL    C63 9557   3.611   3.246   3.070  0.0996  0.2869 -0.7838
   48MOL    C64 9558   3.697   3.196   2.955  0.9269  0.9416 -0.3547
   48MOL    O65 9559   3.801   3.141   2.971  0.1779  0.0959 -0.1044
   48MOL    N66 9560   3.669   3.231   2.831 -0.1829  0.6019 -0.5827
   48MOL    H67 9561   3.642   3.047   3.150  1.5661  1.3057 -1.2295
   48MOL    H68 9562   3.527   3.125   3.240  0.2587  2.8313  0.5100
   48MOL    H69 9563   3.529   3.309   3.037  0.2783  0.4114 -0.9909
   48MOL    H70 9564   3.729   3.188   2.762  0.8839  0.3122  0.5275
   48MOL    H71 9565   3.591   3.289   2.803 -1.1410 -0.0645  0.6268
   48MOL    C72 9566   3.690   3.328   3.174 -0.3659 -0.2476  0.6334
   48MOL    C73 9567   3.688   3.482   3.162  0.7430  0.0567 -1.0785
   48MOL    C74 9568   3.544   3.541   3.189 -0.9254  0.0917  0.3535
   48MOL    O75 9569   3.450   3.470   3.233 -0.2710 -0.7357 -0.2934
   48MOL    N76 9570   3.536   3.672   3.174  0.8230 -0.3610 -0.1992
   48MOL    H77 9571   3.796   3.302   3.175 -0.1154  0.6865 -0.3768
   48MOL    H78 9572   3.664   3.305   3.277 -0.5749 -1.8257  0.2419
   48MOL    H79 9573   3.745   3.512   3.249  0.5629 -0.5773 -0.7385
   48MOL    H80 9574   3.615   3.732   3.156 -2.0117  3.4890 -0.6192
   48MOL    H81 9575   3.459   3.731   3.204  1.3443 -0.4514  1.3249
   48MOL    C82 9576   3.772   3.535   3.042  0.3826 -0.1932  0.6763
   48MOL    C83 9577   3.905   3.618   3.068  0.7297  0.0690  0.3559
   48MOL    C84 9578   3.871   3.751   3.137 -0.5541 -0.0049  0.1667
   48MOL    O85 9579   3.771   3.818   3.105 -0.1188  0.1352  0.1076
   48MOL    N86 9580   3.958   3.804   3.222 -0.1774 -0.4245  0.4896
   48MOL    H87 9581   3.714   3.599   2.975  1.0844 -0.6941 -0.4047
   48MOL    H88 9582   3.803   3.455   2.975 -0.6161 -0.4452  0.4999
   48MOL    H89 9583   3.974   3.555   3.125 -1.5859 -1.4065  1.6209
   48MOL    H90 9584   4.046   3.761   3.246  0.5509  1.1501  0.6959
   48MOL    H91 9585   3.953   3.903   3.238 -0.7204 -0.5330  0.9966
   48MOL    C92 9586   3.975   3.661   2.943  0.5889 -0.0264 -0.4145
   48MOL    C93 9587   4.004   3.548   2.836 -0.3502 -0.0317  0.1898
   48MOL    C94 9588   4.096   3.433   2.896  0.6395  0.9967  0.4214
   48MOL    O95 9589   4.217   3.455   2.922 -0.1320 -0.3894 -0.5969
   48MOL    N96 9590   4.034   3.320   2.928 -0.2756 -0.2277  0.3924
   48MOL    H97 9591   4.073   3.693   2.978  0.5213  0.3251 -0.5448
   48MOL    H98 9592   3.920   3.737   2.887 -0.1473  1.7616  2.6230
   48MOL    H99 9593   3.904   3.520   2.801  0.4951  1.6626 -3.8224
   48MOL   H100 9594   4.077   3.248   2.984  2.7788  0.6470 -0.7208
   48MOL   H101 9595   3.937   3.307   2.904 -0.5474 -0.1426  1.4386
   48MOL   C102 9596   4.061   3.613   2.709 -0.1347  0.3178  0.2177
   48MOL   C103 9597   4.041   3.532   2.574  0.2608 -0.2010  0.4290
   48MOL   C104 9598   3.897   3.473   2.548 -0.7577  0.3478 -0.1027
   48MOL   O105 9599   3.868   3.367   2.598  0.8781  0.6018  0.2679
   48MOL   N106 9600   3.821   3.557   2.479  0.4028 -0.4130 -0.5051
   48MOL   H107 9601   4.162   3.650   2.729 -0.2532  1.3059 -0.9547
   48MOL   H108 9602   4.017   3.711   2.691 -0.5367  0.2470  0.7784
   48MOL   H109 9603   4.048   3.603   2.491  1.5409  1.3613  1.8181
   48MOL   H110 9604   3.857   3.645   2.445  0.1634 -1.5709 -3.9221
   48MOL   H111 9605   3.725   3.529   2.466  1.0210 -2.2777 -1.1535
   48MOL   C112 9606   4.144   3.419   2.556  0.6181 -0.0507 -0.1003
   48MOL   C113 9607   4.290   3.462   2.558 -0.2674  0.2913 -0.4627
   48MOL   C114 9608   4.320   3.553   2.433  0.8136  0.3330 -0.2606
   48MOL   O115 9609   4.364   3.505   2.330 -0.0463  0.7510 -0.0052
   48MOL   N116 9610   4.311   3.684   2.444  0.6044  0.3033 -0.3560
   48MOL   H117 9611   4.125   3.378   2.457  1.3364 -1.3578  0.3036
   48MOL   H118 9612   4.120   3.354   2.640  1.7847 -1.5071 -0.8815
   48MOL   H119 9613   4.305   3.510   2.655 -1.7297 -2.7359  1.3406
   48MOL   H120 9614   4.271   3.732   2.523 -3.6189 -1.0376 -1.5744
   48MOL   H121 9615   4.339   3.738   2.363  1.6676 -0.8421 -0.7787
   48MOL   C122 9616   4.376   3.327   2.563 -1.1223 -0.1078 -0.1928
   48MOL   C123 9617   4.529   3.359   2.567 -0.1381  0.4567 -0.1213
   48MOL   C124 9618   4.606   3.284   2.458  0.0683 -0.0405  0.0009
   48MOL   O125 9619   4.697   3.200   2.481  0.0770  0.0235 -0.6211
   48MOL   N126 9620   4.582   3.315   2.334  0.4804 -0.0996  0.1527
   48MOL   H127 9621   4.345   3.259   2.484 -0.0582  0.6718 -1.2956
   48MOL   H128 9622   4.337   3.274   2.650 -0.5908  1.0839  0.7974
   48MOL   H129 9623   4.558   3.462   2.549  2.5381  0.3322  2.8933
   48MOL   H130 9624   4.506   3.374   2.304  1.0048 -0.4559 -1.9129
   48MOL   H131 9625   4.617   3.263   2.255 -0.5131  0.3435 -0.5908
   48MOL   C132 9626   4.594   3.320   2.705  0.8238 -0.0009 -0.1585
   48MOL   C133 9627   4.547   3.390   2.835 -0.7759  0.0087 -0.3054
   48MOL   C134 9628   4.554   3.545   2.831 -0.0058 -0.4955  0.2304
   48MOL   O135 9629   4.662   3.605   2.831 -0.5507  0.0952 -0.2498
   48MOL   N136 9630   4.441   3.612   2.848 -0.1238  0.9420 -0.6810
   48MOL   H137 9631   4.697   3.356   2.706  0.6616  0.5505 -1.4479
   48MOL   H138 9632   4.579   3.213   2.706  1.0050 -0.0925 -2.6291
   48MOL   H139 9633   4.443   3.363   2.855 -0.8107  1.1487  1.0834
   48MOL   H140 9634   4.351   3.573   2.869  0.1424  0.1826 -0.9524
   48MOL   H141 9635   4.467   3.698   2.896  0.4021 -0.2264  1.1601
   48MOL   C142 9636   4.624   3.328   2.951  0.2484 -0.1754  0.4317
   48MOL   C143 9637   4.579   3.191   3.005 -0.2760  0.1395  0.4530
   48MOL   C144 9638   4.443   3.191   3.071  0.0808  0.3783 -0.4227
   48MOL   O145 9639   4.429   3.241   3.185  0.0554  0.1590  0.3955
   48MOL   N146 9640   4.342   3.145   3.006 -0.1092 -0.5953  0.2590
   48MOL   H147 9641   4.631   3.395   3.037  3.2272  1.3011 -0.8965
   48MOL   H148 9642   4.728   3.325   2.921  0.3731 -0.6197  0.9031
   48MOL   H149 9643   4.582   3.124   2.920 -2.5190 -0.6591  0.9757
   48MOL   H150 9644   4.346   3.105   2.913  1.2164  0.5172 -0.1597
   48MOL   H151 9645   4.254   3.131   3.055 -0.1383 -1.7643 -0.1078
   48MOL   C152 9646   4.685   3.132   3.099 -0.5670 -0.7689  0.2518
   48MOL   C153 9647   4.662   2.979   3.126 -0.1191 -0.6395  0.1467
   48MOL   C154 9648   4.724   2.937   3.261 -0.0037 -0.5742  0.1880
   48MOL   O155 9649   4.833   2.987   3.299  0.1829 -0.1138  0.2559
   48MOL   N156 9650   4.660   2.845   3.333  0.0149 -0.1897 -0.3567
   48MOL   H157 9651   4.677   3.200   3.184 -3.3803  0.4967 -0.9536
   48MOL   H158 9652   4.784   3.147   3.056 -1.3984  2.1967 -0.7383
   48MOL   H159 9653   4.557   2.954   3.142 -0.8904  0.9208 -2.2201
   48MOL   H160 9654   4.710   2.792   3.403 -0.7334  1.3882  1.4255
   48MOL   H161 9655   4.571   2.810   3.302 -0.8599  3.2098 -1.9885
   48MOL   C162 9656   4.715   2.883   3.011 -0.3131 -0.3199 -0.3716
   48MOL   C163 9657   4.609   2.819   2.921 -0.3006  0.5677  0.6326
   48MOL   C164 9658   4.489   2.758   3.002 -0.4044  1.2672  0.2640
   48MOL   O165 9659   4.518   2.671   3.085  0.4373  0.4874  0.4056
   48MOL   N166 9660   4.367   2.808   2.981  0.6478 -0.2086  0.1573
   48MOL   H167 9661   4.776   2.802   3.049  1.6509  0.6810 -1.3268
   48MOL   H168 9662   4.773   2.949   2.947  0.9062 -2.3700 -1.4316
   48MOL   H169 9663   4.577   2.892   2.847  0.3388  0.3685  0.1526
   48MOL   H170 9664   4.291   2.788   3.044  0.8322 -0.8628  0.1815
   48MOL   H171 9665   4.360   2.890   2.922 -1.2593 -0.2007  0.3425
   48MOL   C172 9666   4.671   2.704   2.839 -0.4672  0.0678  0.1827
   48MOL   C173 9667   4.776   2.744   2.724 -0.5633  0.5360  0.0834
   48MOL   C174 9668   4.712   2.842   2.627 -0.8589 -0.1371 -0.0678
   48MOL   O175 9669   4.605   2.825   2.566 -0.1541 -0.2329 -0.0449
   48MOL   N176 9670   4.775   2.954   2.599  0.3027 -0.1434  0.0097
   48MOL   H177 9671   4.597   2.635   2.797  1.8727 -3.5920  1.7916
   48MOL   H178 9672   4.723   2.635   2.905 -0.2548  0.2059  0.1585
   48MOL   H179 9673   4.855   2.794   2.780 -1.3382  2.3858 -0.4287
   48MOL   H180 9674   4.734   3.036   2.555  1.4780  0.2491 -0.3672
   48MOL   H181 9675   4.872   2.963   2.624  0.2093  0.1380  0.2793
   48MOL   C182 9676   4.839   2.621   2.651  0.1740  0.5647  0.1458
   48MOL   C183 9677   4.991   2.633   2.597  0.0306 -0.3934  0.1697
   48MOL   C184 9678   4.982   2.692   2.457  0.0823  0.1570  0.5492
   48MOL   O185 9679   4.949   2.620   2.362  0.0398 -0.2818 -0.4547
   48MOL   N186 9680   5.006   2.816   2.438  0.3296 -0.5424  0.1001
   48MOL   H187 9681   4.772   2.588   2.571 -0.4629  2.8434 -0.2952
   48MOL   H188 9682   4.832   2.536   2.719 -0.8681  1.2547  0.9250
   48MOL   H189 9683   5.049   2.698   2.662 -0.1458 -0.1703  0.1018
   48MOL   H190 9684   5.039   2.880   2.509  0.5970  2.1789 -2.3584
   48MOL   H191 9685   4.992   2.847   2.343 -2.3212 -0.3436  0.5278
   48MOL   C192 9686   5.062   2.495   2.590  0.4309 -0.2160 -0.4718
   48MOL   C193 9687   5.104   2.432   2.725  0.5366 -0.3257  0.0115
   48MOL   C194 9688   5.246   2.473   2.761  0.6727 -0.6066 -0.2376
   48MOL   O195 9689   5.285   2.586   2.748 -0.2543 -0.0862  0.0359
   48MOL   N196 9690   5.316   2.379   2.828  0.3191  0.0885  0.4364
   48MOL   H197 9691   5.144   2.499   2.519 -0.0156 -1.0069 -1.0386
   48MOL   H198 9692   4.995   2.424   2.542 -0.3031 -0.5614  1.0239
   48MOL   H199 9693   5.043   2.462   2.810  2.5280 -1.2400  1.8056
   48MOL   H200 9694   5.268   2.290   2.836  0.7779 -0.5030 -2.6466
   48MOL   H201 9695   5.406   2.395   2.870 -0.0459  1.4802  0.7151
   48MOL   H202 9696   5.107   2.323   2.727  0.1100 -0.3402  0.0391
   49MOL     C1 9697   5.349   1.431   5.004  0.1067 -0.3068 -0.0343
   49MOL     C2 9698   5.410   1.423   4.864 -0.0329 -0.7949  0.1016
   49MOL     C3 9699   5.335   1.315   4.787  0.2324 -0.1761  0.1097
   49MOL     O4 9700   5.373   1.198   4.801 -0.5004  0.1428 -0.0105
   49MOL     N5 9701   5.249   1.350   4.695  0.0084 -0.0431  0.5222
   49MOL     H6 9702   5.243   1.454   5.014  0.2216 -0.0854  0.7057
   49MOL     H7 9703   5.371   1.337   5.055 -0.9549 -2.5319 -3.5000
   49MOL     H8 9704   5.381   1.512   4.808 -1.3974 -2.3836 -1.7486
   49MOL     H9 9705   5.210   1.272   4.645  3.3290 -1.8389  0.5684
   49MOL    H10 9706   5.227   1.447   4.681  0.2042 -0.2627 -1.4100
   49MOL    H11 9707   5.391   1.514   5.061 -1.7539  1.9806 -1.8677
   49MOL    C12 9708   5.565   1.413   4.871  0.0461  0.0250 -0.0230
   49MOL    C13 9709   5.635   1.444   4.740 -0.4960 -0.3179  0.1114
   49MOL    C14 9710   5.778   1.397   4.757 -0.6191 -0.1509 -0.1315
   49MOL    O15 9711   5.866   1.467   4.811 -0.4289 -0.0984  0.2169
   49MOL    N16 9712   5.806   1.273   4.721  0.4215  0.2546 -0.0236
   49MOL    H17 9713   5.595   1.313   4.902  1.6492  1.7258  4.2126
   49MOL    H18 9714   5.616   1.477   4.943  1.3336 -2.0536  0.9449
   49MOL    H19 9715   5.583   1.375   4.674  2.0360  1.4672 -3.9758
   49MOL    H20 9716   5.900   1.240   4.735 -0.1537 -1.5277 -0.2300
   49MOL    H21 9717   5.745   1.222   4.658  1.3810 -0.9284 -0.0019
   49MOL    C22 9718   5.617   1.581   4.675  0.2851 -0.6590  0.2568
   49MOL    C23 9719   5.720   1.614   4.567 -0.1899 -0.6620  0.2420
   49MOL    C24 9720   5.686   1.752   4.520 -0.5905  0.1913 -0.3711
   49MOL    O25 9721   5.592   1.775   4.441 -0.5103  0.4602  0.0943
   49MOL    N26 9722   5.757   1.852   4.568  0.3846  0.2407  0.4233
   49MOL    H27 9723   5.614   1.640   4.766  0.6556 -1.3259  0.7054
   49MOL    H28 9724   5.515   1.580   4.636  0.6748 -0.3128 -0.7812
   49MOL    H29 9725   5.823   1.615   4.604  0.2451 -1.9223 -0.8747
   49MOL    H30 9726   5.830   1.832   4.634  0.1018  0.2984  0.7564
   49MOL    H31 9727   5.713   1.941   4.548 -1.1622 -1.0555 -2.2970
   49MOL    C32 9728   5.737   1.520   4.442  0.8656  0.1428  0.4714
   49MOL    C33 9729   5.868   1.514   4.366  0.3688  0.4907 -0.3660
   49MOL    C34 9730   5.871   1.618   4.253 -0.2109 -0.1450  0.1047
   49MOL    O35 9731   5.822   1.593   4.148  0.7877 -0.5217 -0.0147
   49MOL    N36 9732   5.939   1.730   4.275 -0.2488 -0.0951  0.7275
   49MOL    H37 9733   5.648   1.533   4.381  0.8710 -0.0986  0.4116
   49MOL    H38 9734   5.714   1.417   4.469 -1.5419  0.9469  1.6310
   49MOL    H39 9735   5.954   1.527   4.431  0.1536 -2.7750  0.6469
   49MOL    H40 9736   5.947   1.803   4.204 -1.2820 -0.5836  0.0927
   49MOL    H41 9737   5.976   1.750   4.366 -1.4030  0.1895  1.1398
   49MOL    C42 9738   5.902   1.377   4.304  0.4230 -0.0712  0.0695
   49MOL    C43 9739   5.984   1.279   4.388 -0.7410  0.5984 -0.1707
   49MOL    C44 9740   6.135   1.318   4.402  0.4619  0.2988  0.3002
   49MOL    O45 9741   6.205   1.326   4.304  1.2658  0.6783  0.1676
   49MOL    N46 9742   6.176   1.354   4.522  0.3458 -0.5828 -0.3485
   49MOL    H47 9743   5.935   1.386   4.200  0.0820 -0.5238 -0.0819
   49MOL    H48 9744   5.808   1.323   4.293 -0.6460  2.0145 -1.6911
   49MOL    H49 9745   5.946   1.279   4.490 -1.3091  0.6327 -0.3839
   49MOL    H50 9746   6.269   1.390   4.535  0.7613 -1.0082 -2.0974
   49MOL    H51 9747   6.117   1.335   4.602 -0.1470 -0.0224 -0.5764
   49MOL    C52 9748   5.981   1.132   4.343  0.0754 -0.1283  0.7215
   49MOL    C53 9749   5.845   1.056   4.347 -0.5660 -0.1555  0.3802
   49MOL    C54 9750   5.787   1.045   4.490 -0.3324 -0.5733 -0.0911
   49MOL    O55 9751   5.837   0.973   4.570 -0.2006  0.3061 -0.6792
   49MOL    N56 9752   5.670   1.104   4.512  0.2432  0.6924 -0.2916
   49MOL    H57 9753   6.056   1.074   4.396  0.1353  0.1530  0.9455
   49MOL    H58 9754   6.014   1.136   4.239  0.5284 -0.6200  0.8439
   49MOL    H59 9755   5.772   1.109   4.286  1.5449  0.5364 -1.5856
   49MOL    H60 9756   5.632   1.168   4.443 -1.7196 -1.9529 -1.8034
   49MOL    H61 9757   5.609   1.066   4.584 -0.4831 -1.6496 -2.0603
   49MOL    C62 9758   5.853   0.906   4.299  0.0973  0.2948  0.2535
   49MOL    C63 9759   5.916   0.882   4.157  0.0443 -0.2068 -0.2461
   49MOL    C64 9760   5.816   0.932   4.052  0.2957 -0.2621 -0.2693
   49MOL    O65 9761   5.754   0.861   3.967 -0.2773  0.2477  0.3996
   49MOL    N66 9762   5.798   1.067   4.046 -0.4563 -0.2494 -0.0787
   49MOL    H67 9763   5.754   0.861   4.304  0.4805 -0.5976 -0.2482
   49MOL    H68 9764   5.915   0.854   4.372  3.6547  2.3934 -1.1370
   49MOL    H69 9765   6.002   0.948   4.145  0.0368 -0.3019 -0.8263
   49MOL    H70 9766   5.847   1.118   4.118 -0.5006  0.8881 -0.8446
   49MOL    H71 9767   5.734   1.113   3.983 -1.1184 -0.9463  0.0682
   49MOL    C72 9768   5.957   0.736   4.131 -0.0768  0.4910 -0.4719
   49MOL    C73 9769   6.059   0.684   4.235  0.4589 -0.4741 -0.3975
   49MOL    C74 9770   6.192   0.762   4.244  0.3701 -0.3892  0.9648
   49MOL    O75 9771   6.237   0.796   4.356 -0.2563  0.0720 -0.0790
   49MOL    N76 9772   6.251   0.805   4.135 -0.2150  0.3650 -0.0430
   49MOL    H77 9773   5.989   0.729   4.027  0.9012  0.3175 -0.1651
   49MOL    H78 9774   5.874   0.668   4.146 -0.1991  1.0649  1.5913
   49MOL    H79 9775   6.017   0.691   4.335  1.2298 -1.2559 -0.0162
   49MOL    H80 9776   6.342   0.839   4.164 -0.5678  2.9766 -1.8485
   49MOL    H81 9777   6.222   0.803   4.039 -0.6379 -1.5331  0.1195
   49MOL    C82 9778   6.097   0.539   4.213  0.1287  0.1997 -0.7559
   49MOL    C83 9779   6.116   0.464   4.351 -0.3250  0.1253  0.3388
   49MOL    C84 9780   6.217   0.354   4.329  0.5044 -0.0970 -0.1966
   49MOL    O85 9781   6.187   0.240   4.291 -0.0221  0.2728  0.0904
   49MOL    N86 9782   6.345   0.377   4.362 -0.2488  0.4593  0.1291
   49MOL    H87 9783   6.193   0.527   4.163  0.0886  0.1612 -0.8240
   49MOL    H88 9784   6.027   0.490   4.145  0.0850  1.8458 -1.9137
   49MOL    H89 9785   6.157   0.525   4.432  1.6643  0.3931 -0.8193
   49MOL    H90 9786   6.410   0.300   4.356  0.5354  1.1278 -0.0363
   49MOL    H91 9787   6.368   0.457   4.419  0.3745  0.0607  0.4423
   49MOL    C92 9788   5.979   0.412   4.399  0.2414 -0.3580  0.2662
   49MOL    C93 9789   5.954   0.426   4.550 -0.1868  0.6227 -0.7988
   49MOL    C94 9790   6.043   0.345   4.639 -0.8522  0.5687 -0.8769
   49MOL    O95 9791   6.163   0.372   4.647 -0.2252 -0.3900 -0.2303
   49MOL    N96 9792   5.996   0.242   4.710  0.0654 -0.0351  0.1260
   49MOL    H97 9793   5.954   0.316   4.352 -1.3791  0.2382 -0.1298
   49MOL    H98 9794   5.905   0.472   4.346  2.2310  1.4722 -0.5317
   49MOL    H99 9795   5.979   0.528   4.581  1.4414  0.2026 -0.6780
   49MOL   H100 9796   6.049   0.193   4.780 -1.1183 -1.1629  0.2620
   49MOL   H101 9797   5.896   0.226   4.707  0.0958 -0.0604 -0.7573
   49MOL   C102 9798   5.801   0.400   4.578  0.1951  0.8099  0.4408
   49MOL   C103 9799   5.730   0.428   4.716 -1.0718 -0.6000  0.6852
   49MOL   C104 9800   5.591   0.378   4.708 -0.3875  0.0425  0.0409
   49MOL   O105 9801   5.524   0.400   4.606 -0.3459  0.6985 -0.1143
   49MOL   N106 9802   5.534   0.314   4.815 -0.1565 -0.3705 -0.0444
   49MOL   H107 9803   5.784   0.294   4.562  2.8789  0.5385 -0.8510
   49MOL   H108 9804   5.738   0.465   4.517 -0.3860  0.4246  0.6252
   49MOL   H109 9805   5.789   0.375   4.790  1.1359  1.1694  0.2415
   49MOL   H110 9806   5.434   0.298   4.813 -0.2780  0.2544  0.6504
   49MOL   H111 9807   5.586   0.280   4.895 -0.9268  0.5268  0.8565
   49MOL   C112 9808   5.737   0.583   4.746 -0.7549  0.5314  0.2861
   49MOL   C113 9809   5.669   0.630   4.871 -0.0104  0.6043  0.7696
   49MOL   C114 9810   5.638   0.780   4.878 -0.8174  0.2076  0.0982
   49MOL   O115 9811   5.726   0.865   4.893  0.0863  0.0163  0.3273
   49MOL   N116 9812   5.509   0.819   4.890 -0.7913  0.2023 -0.2200
   49MOL   H117 9813   5.700   0.645   4.664 -2.7673 -2.0643 -0.8614
   49MOL   H118 9814   5.843   0.608   4.742 -0.9647  1.2350 -1.1841
   49MOL   H119 9815   5.570   0.583   4.871  0.1339  0.3042  1.9857
   49MOL   H120 9816   5.440   0.746   4.902  0.8761 -1.3129  0.4711
   49MOL   H121 9817   5.490   0.916   4.908  2.1905  0.6205  1.0332
   49MOL   C122 9818   5.726   0.577   5.002  0.4313  0.0926  0.0812
   49MOL   C123 9819   5.658   0.616   5.142  0.0086 -0.0170 -0.0095
   49MOL   C124 9820   5.772   0.587   5.245 -0.0385 -1.0127 -0.6894
   49MOL   O125 9821   5.807   0.474   5.280 -0.7175  0.5176 -0.3083
   49MOL   N126 9822   5.831   0.699   5.298  0.2092  0.3950 -0.4394
   49MOL   H127 9823   5.829   0.612   5.003  0.8963 -1.2340  2.3702
   49MOL   H128 9824   5.738   0.469   5.011 -0.8751  0.0140  1.1353
   49MOL   H129 9825   5.660   0.725   5.144  1.9054 -0.0189 -0.7212
   49MOL   H130 9826   5.789   0.787   5.274  0.9250  0.3178 -2.0734
   49MOL   H131 9827   5.915   0.689   5.353  0.1498  3.7836  0.3450
   49MOL   C132 9828   5.524   0.549   5.162  0.3802  0.2048  0.2126
   49MOL   C133 9829   5.413   0.649   5.190  0.8726 -0.2314 -0.3057
   49MOL   C134 9830   5.421   0.701   5.336  0.4002  0.0521  0.3270
   49MOL   O135 9831   5.395   0.634   5.437  0.6509 -0.0620  0.2365
   49MOL   N136 9832   5.455   0.831   5.350  0.5353  0.3685 -0.5090
   49MOL   H137 9833   5.539   0.475   5.241  0.7159 -1.4553 -1.3767
   49MOL   H138 9834   5.509   0.492   5.070 -1.1784 -2.8450  2.2611
   49MOL   H139 9835   5.427   0.731   5.120  0.3409 -0.0460 -0.1941
   49MOL   H140 9836   5.454   0.879   5.439  0.4390  0.3927 -0.5233
   49MOL   H141 9837   5.499   0.880   5.272  1.6512  2.2812  1.2711
   49MOL   C142 9838   5.272   0.601   5.149  0.0067  0.0365  0.3158
   49MOL   C143 9839   5.197   0.487   5.225  0.3582 -0.7180  0.0057
   49MOL   C144 9840   5.199   0.356   5.146  0.5024 -0.2285 -0.6235
   49MOL   O145 9841   5.151   0.350   5.031  0.4312 -0.7804 -0.1185
   49MOL   N146 9842   5.263   0.259   5.211  0.0252  0.3296 -0.3571
   49MOL   H147 9843   5.278   0.593   5.041  4.0933  0.6121  0.4298
   49MOL   H148 9844   5.217   0.696   5.152 -1.7102 -0.9565  0.6781
   49MOL   H149 9845   5.238   0.473   5.325 -0.5785 -3.1831  0.1001
   49MOL   H150 9846   5.226   0.166   5.196 -3.7380  1.3931  1.6344
   49MOL   H151 9847   5.315   0.280   5.295  0.9139  0.6105 -0.9694
   49MOL   C152 9848   5.050   0.539   5.249 -0.0971  0.4197  0.1748
   49MOL   C153 9849   4.951   0.441   5.326 -0.1739 -0.0016  0.2580
   49MOL   C154 9850   5.011   0.402   5.459  0.4576  1.3227 -1.2026
   49MOL   O155 9851   5.100   0.312   5.465 -0.1738  0.3116  0.5217
   49MOL   N156 9852   4.970   0.468   5.565  0.0271  0.1304 -0.0946
   49MOL   H157 9853   5.009   0.566   5.152  0.2175  1.5068  0.3400
   49MOL   H158 9854   5.063   0.627   5.311  0.9801 -0.0327  0.6037
   49MOL   H159 9855   4.865   0.501   5.355 -0.2577  0.7106 -1.3961
   49MOL   H160 9856   4.888   0.527   5.560  1.7683  2.4462 -2.2044
   49MOL   H161 9857   5.002   0.454   5.659 -1.3993  0.5137  0.4537
   49MOL   C162 9858   4.898   0.324   5.242 -0.3268  0.1342 -0.2702
   49MOL   C163 9859   4.761   0.273   5.276  0.8703  0.6141  0.6113
   49MOL   C164 9860   4.748   0.179   5.398 -0.6722 -1.2032 -0.4701
   49MOL   O165 9861   4.639   0.127   5.417  0.0883 -0.0049  0.2185
   49MOL   N166 9862   4.851   0.139   5.467 -0.9563 -0.7010  0.2732
   49MOL   H167 9863   4.971   0.243   5.236  2.2256  2.0816  2.7743
   49MOL   H168 9864   4.901   0.365   5.141  2.1191  0.8066  0.0257
   49MOL   H169 9865   4.709   0.358   5.321 -1.6721 -0.4047 -0.3089
   49MOL   H170 9866   4.841   0.074   5.544 -1.3637 -1.3954 -0.3634
   49MOL   H171 9867   4.940   0.184   5.450 -1.8747  1.0617  0.0353
   49MOL   C172 9868   4.677   0.232   5.151 -1.1095 -0.5927 -0.5132
   49MOL   C173 9869   4.734   0.116   5.058 -0.2549 -0.0853  0.9960
   49MOL   C174 9870   4.710   0.147   4.911  0.9827 -0.3879  0.6858
   49MOL   O175 9871   4.600   0.186   4.872 -0.2484  0.1593  0.0001
   49MOL   N176 9872   4.810   0.132   4.826  0.2526 -0.6551 -0.4757
   49MOL   H177 9873   4.663   0.320   5.089 -0.8588  0.8229  1.4106
   49MOL   H178 9874   4.576   0.196   5.171 -1.0505 -0.7692 -0.5236
   49MOL   H179 9875   4.839   0.108   5.083  0.8871 -1.5344 -3.7162
   49MOL   H180 9876   4.795   0.155   4.729  0.2739 -0.4730 -0.4368
   49MOL   H181 9877   4.886   0.069   4.848  0.2477 -0.1564  1.0335
   49MOL   C182 9878   4.672   7.637   5.104 -0.0423  0.3546 -0.2966
   49MOL   C183 9879   4.740   7.502   5.060  0.1033 -0.2624 -0.3831
   49MOL   C184 9880   4.724   7.475   4.917  0.1022  0.3009 -0.2364
   49MOL   O185 9881   4.609   7.440   4.877 -0.2960 -0.2123  0.2533
   49MOL   N186 9882   4.834   7.479   4.842 -0.2377  0.1841  0.6137
   49MOL   H187 9883   4.570   7.634   5.065  0.8864  0.6527 -2.9062
   49MOL   H188 9884   4.670   7.636   5.213  0.7115 -0.3254 -0.2878
   49MOL   H189 9885   4.843   7.537   5.072  0.3360 -0.4924 -1.6686
   49MOL   H190 9886   4.827   7.462   4.743  1.0839  3.0624 -0.0096
   49MOL   H191 9887   4.924   7.488   4.887  0.6945 -1.8705 -0.7681
   49MOL   C192 9888   4.701   7.376   5.144 -0.0140 -0.5844 -0.1204
   49MOL   C193 9889   4.553   7.350   5.173  0.7625 -0.0056  0.5671
   49MOL   C194 9890   4.527   7.220   5.247 -0.0506 -0.0077  0.1155
   49MOL   O195 9891   4.622   7.154   5.289 -0.1291  0.2824  0.3438
   49MOL   N196 9892   4.402   7.187   5.254  0.2924 -0.0659  0.7520
   49MOL   H197 9893   4.758   7.368   5.236  1.7330 -0.5860 -1.1872
   49MOL   H198 9894   4.742   7.292   5.088  1.4126  0.8049 -1.2278
   49MOL   H199 9895   4.506   7.429   5.231  0.4598 -1.4603  2.3514
   49MOL   H200 9896   4.336   7.241   5.200  0.3223 -0.0705  0.7135
   49MOL   H201 9897   4.365   7.103   5.296 -1.0421  1.1897  2.1696
   49MOL   H202 9898   4.495   7.342   5.081  0.0492 -2.3489  1.1782
   50MOL     C1 9899   1.095   0.345   0.407 -0.2607  0.7708  0.2254
   50MOL     C2 9900   1.121   0.317   0.561 -0.1917  0.3999  0.0537
   50MOL     C3 9901   1.258   0.367   0.608 -0.0751  0.2254 -0.1138
   50MOL     O4 9902   1.363   0.323   0.555  0.5121 -0.1743  0.4208
   50MOL     N5 9903   1.264   0.465   0.694 -0.0824  0.1797 -0.3396
   50MOL     H6 9904   1.054   0.445   0.388 -1.0314  0.5170  0.5202
   50MOL     H7 9905   1.186   0.349   0.347  0.6333  2.2946  1.6327
   50MOL     H8 9906   1.052   0.380   0.617  1.3146  2.8251 -0.7423
   50MOL     H9 9907   1.174   0.481   0.739  1.5056  0.7230  2.7862
   50MOL    H10 9908   1.358   0.492   0.717  0.8321 -2.2149 -1.1484
   50MOL    H11 9909   1.019   0.278   0.366  1.0048  0.3043 -1.4266
   50MOL    C12 9910   1.095   0.175   0.603 -0.0780 -0.1613 -0.2047
   50MOL    C13 9911   1.051   0.146   0.750 -0.0428 -0.6665 -0.2397
   50MOL    C14 9912   1.102   0.008   0.803 -0.2107 -0.1319 -0.6730
   50MOL    O15 9913   1.042   7.563   0.762  0.3918 -0.0304  0.2753
   50MOL    N16 9914   1.192   0.001   0.908  0.3561 -0.4935  0.5027
   50MOL    H17 9915   1.186   0.119   0.582  0.5800  0.5987  0.5784
   50MOL    H18 9916   1.020   0.135   0.536  0.4803  1.0944 -1.6223
   50MOL    H19 9917   1.108   0.213   0.814  2.1969 -1.6989 -1.1404
   50MOL    H20 9918   1.212   7.567   0.946 -1.2292 -1.6446 -1.2952
   50MOL    H21 9919   1.236   0.087   0.939  2.5726 -1.4180 -0.0398
   50MOL    C22 9920   0.901   0.165   0.763  0.4654 -0.1315  0.1216
   50MOL    C23 9921   0.845   0.173   0.909 -0.0742  0.0636  0.5561
   50MOL    C24 9922   0.703   0.136   0.912  0.3071 -0.7842  0.5510
   50MOL    O25 9923   0.615   0.214   0.883 -0.4330 -0.1893  0.6040
   50MOL    N26 9924   0.672   0.009   0.943 -0.1388  0.0128  0.5393
   50MOL    H27 9925   0.851   0.093   0.697  0.5698  1.1863 -1.4350
   50MOL    H28 9926   0.859   0.248   0.706 -2.2947 -0.7628  1.1419
   50MOL    H29 9927   0.887   0.082   0.952 -2.8952 -0.8871  1.4351
   50MOL    H30 9928   0.737   7.596   0.976  0.0483 -0.0589  0.0140
   50MOL    H31 9929   0.575   7.640   0.933 -0.0979  0.8982 -2.9208
   50MOL    C32 9930   0.884   0.292   0.998 -0.0637  0.2525 -0.2925
   50MOL    C33 9931   0.807   0.431   0.981 -0.1085  0.5049 -0.0758
   50MOL    C34 9932   0.870   0.528   0.884 -0.1621 -0.0766 -0.2943
   50MOL    O35 9933   0.997   0.529   0.877  0.1530 -0.6802  0.0802
   50MOL    N36 9934   0.790   0.607   0.817  0.2118 -0.4778  0.2901
   50MOL    H37 9935   0.991   0.303   0.982  0.1268  0.2184  0.8971
   50MOL    H38 9936   0.882   0.264   1.104 -1.5017 -2.8503 -1.0867
   50MOL    H39 9937   0.704   0.416   0.951 -0.2636  2.5929 -0.6821
   50MOL    H40 9938   0.834   0.688   0.776  0.2166  1.3950  3.7860
   50MOL    H41 9939   0.690   0.611   0.833  0.3911  0.2255  1.2688
   50MOL    C42 9940   0.784   0.500   1.123 -0.0795 -0.7555  0.5865
   50MOL    C43 9941   0.673   0.433   1.207  0.2468 -0.4002 -0.0911
   50MOL    C44 9942   0.532   0.483   1.166  0.1787  0.1952  0.4567
   50MOL    O45 9943   0.478   0.583   1.214 -0.3039 -0.2828  0.3443
   50MOL    N46 9944   0.461   0.417   1.074 -0.1281  0.1349  0.3466
   50MOL    H47 9945   0.767   0.608   1.119  0.7933 -0.6019  0.8297
   50MOL    H48 9946   0.876   0.498   1.182 -0.3606  0.9784  1.1090
   50MOL    H49 9947   0.663   0.326   1.187 -2.1732  0.0620 -1.6037
   50MOL    H50 9948   0.364   0.443   1.061 -0.5104 -0.9018  1.0816
   50MOL    H51 9949   0.507   0.350   1.014 -1.2631  2.1437 -2.9068
   50MOL    C52 9950   0.699   0.468   1.356  0.2548  0.1411 -0.4010
   50MOL    C53 9951   0.779   0.358   1.429 -0.1495  0.1956  0.1464
   50MOL    C54 9952   0.692   0.229   1.443 -0.0183 -0.3064 -0.0957
   50MOL    O55 9953   0.587   0.237   1.502 -0.0535 -0.1011  0.5016
   50MOL    N56 9954   0.742   0.125   1.383  0.4790  1.0062  0.2190
   50MOL    H57 9955   0.606   0.490   1.408 -0.3772  1.0488 -1.8612
   50MOL    H58 9956   0.741   0.568   1.360 -0.3261  0.3764 -0.0890
   50MOL    H59 9957   0.869   0.334   1.373 -0.6159  1.2333 -1.0654
   50MOL    H60 9958   0.692   0.039   1.400  1.3997 -0.2805 -3.1310
   50MOL    H61 9959   0.840   0.119   1.363  0.5593  0.5531  0.7544
   50MOL    C62 9960   0.837   0.398   1.568  0.1768  0.3726 -0.3381
   50MOL    C63 9961   0.928   0.522   1.579  0.0903  0.3547 -0.4095
   50MOL    C64 9962   1.048   0.509   1.485 -0.1444 -0.0623  0.2066
   50MOL    O65 9963   1.119   0.410   1.491 -0.0538 -0.3091 -0.7214
   50MOL    N66 9964   1.077   0.610   1.401 -0.0163 -0.0021 -0.5304
   50MOL    H67 9965   0.887   0.311   1.613 -0.8227  0.6725  1.3989
   50MOL    H68 9966   0.758   0.416   1.641 -1.3021  1.8143 -2.2570
   50MOL    H69 9967   0.868   0.609   1.552 -0.7600 -0.1933 -0.2879
   50MOL    H70 9968   1.016   0.687   1.379 -0.0099  0.0274 -0.4444
   50MOL    H71 9969   1.148   0.593   1.331 -0.1708  2.0762 -1.2061
   50MOL    C72 9970   0.969   0.545   1.729 -0.5828 -0.0094  0.1281
   50MOL    C73 9971   1.073   0.651   1.755 -0.3972 -0.0876  0.2706
   50MOL    C74 9972   1.120   0.640   1.895  0.2072  0.0002 -0.4733
   50MOL    O75 9973   1.068   0.700   1.990  0.1513 -0.6428 -0.5607
   50MOL    N76 9974   1.218   0.554   1.922  0.5293  0.1196  0.1280
   50MOL    H77 9975   1.010   0.449   1.759 -0.4316  0.1816  0.5256
   50MOL    H78 9976   0.887   0.560   1.798 -0.3761 -1.1409  0.6409
   50MOL    H79 9977   1.156   0.634   1.686  0.8995  2.2326  1.2101
   50MOL    H80 9978   1.248   0.537   2.017  2.3501 -3.4415 -0.9609
   50MOL    H81 9979   1.239   0.490   1.846 -0.4059  1.0875 -0.9584
   50MOL    C82 9980   1.017   0.798   1.730  0.1343  0.0020 -0.3688
   50MOL    C83 9981   1.111   0.883   1.647  0.5375 -0.8861  0.2300
   50MOL    C84 9982   1.245   0.902   1.721  1.0154 -0.0751  0.7645
   50MOL    O85 9983   1.248   0.948   1.833  0.2751 -0.2481  0.4962
   50MOL    N86 9984   1.363   0.863   1.670 -0.0945 -0.3046 -0.0085
   50MOL    H87 9985   1.005   0.861   1.818  2.0153 -0.3907  0.1910
   50MOL    H88 9986   0.917   0.791   1.686 -0.1817  0.6938  0.2325
   50MOL    H89 9987   1.135   0.828   1.556  1.5817 -2.0857  1.1974
   50MOL    H90 9988   1.451   0.901   1.702  0.3098 -0.4883 -0.8802
   50MOL    H91 9989   1.359   0.822   1.578  3.4502  0.9280 -0.7769
   50MOL    C92 9990   1.046   1.021   1.623 -0.1265 -0.3270 -0.3606
   50MOL    C93 9991   0.912   1.039   1.554  0.1079 -0.6802  0.8389
   50MOL    C94 9992   0.867   0.927   1.454  0.9040 -0.3430  0.6632
   50MOL    O95 9993   0.939   0.846   1.400  0.2867 -0.3573 -0.4154
   50MOL    N96 9994   0.736   0.917   1.439  0.7803 -0.1890  0.7214
   50MOL    H97 9995   1.118   1.087   1.576 -0.5203  0.7731  0.5505
   50MOL    H98 9996   1.037   1.062   1.724  0.3836  1.2258 -0.9335
   50MOL    H99 9997   0.847   1.030   1.641 -1.2723  2.3026  0.1620
   50MOL   H100 9998   0.668   0.980   1.481 -1.3930 -0.9911 -1.4729
   50MOL   H101 9999   0.704   0.834   1.391 -0.1741 -0.2747  1.4797
   50MOL   C10210000   0.886   1.178   1.494 -0.5586  0.6053 -0.3572
   50MOL   C10310001   0.885   1.301   1.584  0.1861  0.0421 -0.4067
   50MOL   C10410002   0.780   1.288   1.695 -0.1961 -1.0750 -0.0727
   50MOL   O10510003   0.661   1.308   1.682  0.8349 -0.7135 -0.7011
   50MOL   N10610004   0.822   1.255   1.822  0.2391  0.0119  0.7249
   50MOL   H10710005   0.793   1.166   1.438  1.0741 -0.6347 -2.9286
   50MOL   H10810006   0.968   1.190   1.422  2.2540  0.9061  2.7822
   50MOL   H10910007   0.979   1.313   1.638 -1.5691 -0.3319  2.8843
   50MOL   H11010008   0.922   1.258   1.832  0.0883  1.9481  1.7670
   50MOL   H11110009   0.759   1.252   1.901 -1.7418 -0.0633 -0.8076
   50MOL   C11210010   0.875   1.434   1.515 -1.0399 -0.5691  0.2251
   50MOL   C11310011   0.778   1.451   1.391 -0.1108 -0.3980 -0.1279
   50MOL   C11410012   0.852   1.436   1.257  0.2490 -0.1515 -0.1263
   50MOL   O11510013   0.943   1.513   1.231 -0.0829  0.2666  0.0018
   50MOL   N11610014   0.802   1.347   1.172 -0.3973 -0.3007  0.5905
   50MOL   H11710015   0.970   1.473   1.479 -2.4048  1.7177 -0.9825
   50MOL   H11810016   0.851   1.506   1.593  1.8624  0.8598 -0.1410
   50MOL   H11910017   0.699   1.377   1.405 -0.7609  0.2967 -0.0745
   50MOL   H12010018   0.857   1.335   1.088  0.8647 -0.3953  1.4206
   50MOL   H12110019   0.729   1.286   1.207 -0.6175  0.3130  1.2020
   50MOL   C12210020   0.713   1.592   1.399 -0.2013 -0.5135 -0.5059
   50MOL   C12310021   0.595   1.596   1.498  0.0252 -0.0547 -0.1851
   50MOL   C12410022   0.455   1.537   1.449  0.0145 -0.1147  0.0851
   50MOL   O12510023   0.390   1.593   1.360  0.3065 -0.4493  0.7762
   50MOL   N12610024   0.416   1.419   1.496  0.0114 -0.6492  0.1164
   50MOL   H12710025   0.685   1.632   1.301  0.5737 -2.1184 -1.4125
   50MOL   H12810026   0.794   1.660   1.424  0.5542 -1.0465 -1.4591
   50MOL   H12910027   0.606   1.533   1.586 -2.1430  0.5386  0.5401
   50MOL   H13010028   0.328   1.374   1.475 -0.6069 -0.4979  2.2515
   50MOL   H13110029   0.477   1.357   1.547  2.0159  1.0057 -0.1715
   50MOL   C13210030   0.581   1.752   1.537 -0.0127  0.4609  0.3949
   50MOL   C13310031   0.679   1.806   1.637  0.4613 -0.0961 -0.0009
   50MOL   C13410032   0.647   1.748   1.779 -0.0300  0.1235 -0.2118
   50MOL   O13510033   0.533   1.739   1.826  0.0542 -0.4703  0.0795
   50MOL   N13610034   0.748   1.696   1.840  0.1458 -0.0755 -0.5449
   50MOL   H13710035   0.476   1.767   1.563 -0.2778 -2.2848  1.1092
   50MOL   H13810036   0.588   1.810   1.445  0.4463 -2.0330 -1.2215
   50MOL   H13910037   0.777   1.772   1.604 -0.1500 -0.1047 -1.8195
   50MOL   H14010038   0.840   1.699   1.798  0.6541  1.0903  0.6435
   50MOL   H14110039   0.728   1.662   1.933 -1.1569  0.5201 -0.5963
   50MOL   C14210040   0.670   1.960   1.638 -0.1498  0.1674 -0.2288
   50MOL   C14310041   0.742   2.040   1.523 -0.3695 -0.1036 -0.2804
   50MOL   C14410042   0.890   2.001   1.522  0.1791  0.3226  0.4263
   50MOL   O14510043   0.961   2.029   1.618  0.6156 -0.1940  0.2803
   50MOL   N14610044   0.928   1.935   1.415 -0.0379 -0.6466 -0.8377
   50MOL   H14710045   0.724   1.979   1.731 -0.4700  0.4313 -0.0938
   50MOL   H14810046   0.566   1.989   1.657 -0.9348 -3.9360  2.5150
   50MOL   H14910047   0.703   2.001   1.429 -0.6053 -1.9574  0.5541
   50MOL   H15010048   1.018   1.891   1.403  1.1179  0.8245  1.8230
   50MOL   H15110049   0.859   1.910   1.347 -1.3899 -1.9831  0.9730
   50MOL   C15210050   0.720   2.203   1.535 -0.2555  0.4779 -0.0511
   50MOL   C15310051   0.754   2.273   1.665 -0.1098  0.4585  0.2267
   50MOL   C15410052   0.661   2.243   1.786 -0.9489 -0.1624 -0.0389
   50MOL   O15510053   0.544   2.226   1.766 -0.1900  0.3759  0.0045
   50MOL   N15610054   0.716   2.231   1.904 -0.3776  0.2099  0.2317
   50MOL   H15710055   0.620   2.230   1.501  0.4125  1.7051 -1.0844
   50MOL   H15810056   0.791   2.244   1.463  1.2738  0.3221  1.3413
   50MOL   H15910057   0.854   2.239   1.689  0.5902  2.3204  0.0367
   50MOL   H16010058   0.663   2.210   1.987 -0.2105 -0.8070  0.0886
   50MOL   H16110059   0.816   2.218   1.903 -0.6268 -1.8747 -0.5851
   50MOL   C16210060   0.774   2.426   1.647 -0.3997  0.4878  0.8429
   50MOL   C16310061   0.871   2.486   1.744 -0.3764  0.1984  0.4141
   50MOL   C16410062   0.807   2.604   1.823 -0.2278 -0.2613  0.7403
   50MOL   O16510063   0.812   2.724   1.784 -0.1845  0.3919  0.1809
   50MOL   N16610064   0.742   2.568   1.927  0.6971  0.2552 -0.4760
   50MOL   H16710065   0.679   2.477   1.662 -0.0468  1.6825 -0.7490
   50MOL   H16810066   0.801   2.439   1.542  0.4025 -1.9976  0.7074
   50MOL   H16910067   0.901   2.417   1.824 -2.2983 -2.6520 -1.2431
   50MOL   H17010068   0.689   2.634   1.983 -0.9620  0.3514 -2.1157
   50MOL   H17110069   0.739   2.473   1.961 -0.7278 -0.7792 -3.3211
   50MOL   C17210070   1.003   2.523   1.685 -0.2789  0.2362  0.2355
   50MOL   C17310071   1.098   2.405   1.641  1.0798  0.4042 -0.2523
   50MOL   C17410072   1.169   2.339   1.766  0.9880  0.5080  0.2751
   50MOL   O17510073   1.221   2.400   1.856 -0.3389  0.7184 -0.4842
   50MOL   N17610074   1.142   2.208   1.781  0.0390  0.2831 -0.0978
   50MOL   H17710075   1.053   2.579   1.764  0.3382 -0.0014  0.0154
   50MOL   H17810076   0.982   2.591   1.602  3.3433  0.7773 -0.3255
   50MOL   H17910077   1.034   2.328   1.599  0.3126 -0.7232  2.8101
   50MOL   H18010078   1.086   2.161   1.711  1.0520 -0.3054 -0.5211
   50MOL   H18110079   1.155   2.160   1.869 -1.9802  0.6576  0.4237
   50MOL   C18210080   1.200   2.445   1.540 -0.2756  0.3925 -0.4518
   50MOL   C18310081   1.150   2.433   1.396 -0.4506  0.1572 -0.7384
   50MOL   C18410082   1.139   2.293   1.346  0.2584 -0.1512 -0.2387
   50MOL   O18510083   1.223   2.207   1.368  0.6255 -0.0916 -0.1782
   50MOL   N18610084   1.042   2.254   1.266  0.0101  1.1587 -0.3599
   50MOL   H18710085   1.290   2.384   1.542  0.0012  0.8441  0.6344
   50MOL   H18810086   1.225   2.549   1.560  2.1265 -0.5293  1.4729
   50MOL   H18910087   1.044   2.458   1.396 -0.4508  0.2730  2.4897
   50MOL   H19010088   1.026   2.157   1.245  1.9792  0.8752 -0.6280
   50MOL   H19110089   0.990   2.327   1.217 -0.1052  1.1414 -0.2634
   50MOL   C19210090   1.218   2.525   1.290 -0.0842 -0.3837 -0.0862
   50MOL   C19310091   1.125   2.588   1.183 -0.2857 -0.0095 -0.8004
   50MOL   C19410092   1.161   2.733   1.144 -0.1034  0.0272  0.0414
   50MOL   O19510093   1.261   2.758   1.082  0.4938 -0.3802 -0.5677
   50MOL   N19610094   1.064   2.820   1.157  0.1727  0.2912 -0.2053
   50MOL   H19710095   1.304   2.479   1.242  1.4528  0.5590  1.6981
   50MOL   H19810096   1.265   2.600   1.354 -0.1160 -0.7522  0.3726
   50MOL   H19910097   1.123   2.522   1.096 -0.5648 -3.7742  1.9611
   50MOL   H20010098   1.070   2.912   1.117 -1.4417  0.5506  0.1188
   50MOL   H20110099   0.975   2.785   1.191 -0.5054  0.6779 -1.5570
   50MOL   H20210100   1.031   2.604   1.235  0.9639  1.8355  1.0080
   51MOL     C110101   0.556   0.975   1.764  0.2009  0.3221  0.0297
   51MOL     C210102   0.410   0.992   1.703 -0.6915  0.1314 -0.6939
   51MOL     C310103   0.427   1.007   1.554  0.6380 -0.1507  0.2355
   51MOL     O410104   0.499   1.097   1.511  0.0403 -0.3168  0.1490
   51MOL     N510105   0.376   0.920   1.472  0.2091 -0.0332 -0.4811
   51MOL     H610106   0.562   0.962   1.872  2.2782 -1.8859 -0.3188
   51MOL     H710107   0.595   0.882   1.722  0.3515  1.1403 -1.7207
   51MOL     H810108   0.362   0.895   1.710 -0.9463  0.4292  2.7352
   51MOL     H910109   0.399   0.920   1.373 -0.3166 -0.3091 -0.6050
   51MOL    H1010110   0.315   0.848   1.508 -0.0382  0.4050 -0.0187
   51MOL    H1110111   0.631   1.052   1.746  1.6125 -0.5332  2.1174
   51MOL    C1210112   0.342   1.108   1.779 -0.0882 -1.0488 -0.3464
   51MOL    C1310113   0.183   1.105   1.793 -0.4995 -0.4034  0.0697
   51MOL    C1410114   0.130   0.998   1.890  0.3947  0.0316  0.2139
   51MOL    O1510115   0.202   0.913   1.933 -0.1586  0.2267  0.0948
   51MOL    N1610116   7.655   0.987   1.918 -0.3556  0.4486 -0.0558
   51MOL    H1710117   0.366   1.207   1.742 -0.1225 -0.3995  1.3376
   51MOL    H1810118   0.372   1.094   1.883 -0.7390 -0.6689 -0.1044
   51MOL    H1910119   0.165   1.192   1.856 -1.2887  0.3360 -1.1462
   51MOL    H2010120   7.586   1.046   1.874 -1.7049 -0.8090  0.3372
   51MOL    H2110121   7.616   0.910   1.969  1.8091 -0.1544  0.7707
   51MOL    C2210122   0.105   1.123   1.660  0.5201 -0.5151  0.0870
   51MOL    C2310123   0.000   1.241   1.641  0.0092  0.0470 -0.4277
   51MOL    C2410124   7.552   1.235   1.753  0.3617  0.1024 -0.2420
   51MOL    O2510125   7.456   1.157   1.762 -0.3015  0.4565 -0.1470
   51MOL    N2610126   7.560   1.326   1.853  0.2226  0.4251  0.4058
   51MOL    H2710127   0.068   1.030   1.618 -0.8527 -0.6423  1.4880
   51MOL    H2810128   0.175   1.158   1.585  2.6525 -0.4466  2.0462
   51MOL    H2910129   0.058   1.333   1.652  0.7794 -0.5199  0.2881
   51MOL    H3010130   7.653   1.368   1.856  0.3323  0.2078  0.1127
   51MOL    H3110131   7.498   1.351   1.928  0.9845 -0.4344  1.3372
   51MOL    C3210132   7.595   1.243   1.490  0.2266  0.6176  0.0633
   51MOL    C3310133   7.497   1.362   1.445  0.1148  0.6148  0.2946
   51MOL    C3410134   7.362   1.299   1.445  0.1815 -0.1065 -0.6255
   51MOL    O3510135   7.320   1.223   1.360  0.4123  0.1181  0.0121
   51MOL    N3610136   7.277   1.331   1.542  0.4233 -0.4593 -0.0796
   51MOL    H3710137   7.567   1.147   1.448  1.2104 -0.1292  1.0978
   51MOL    H3810138   0.028   1.261   1.431 -0.9893  1.4868 -1.5566
   51MOL    H3910139   7.493   1.433   1.528  0.1400  1.6846 -0.5985
   51MOL    H4010140   7.185   1.290   1.534  0.3116 -0.0832 -0.8394
   51MOL    H4110141   7.306   1.393   1.615  3.5917 -1.5584 -0.3363
   51MOL    C4210142   7.537   1.437   1.317 -1.1094 -0.0842  0.3687
   51MOL    C4310143   7.451   1.542   1.257  0.1121 -0.5006 -0.0190
   51MOL    C4410144   7.501   1.599   1.121  0.1804  0.1212  0.2035
   51MOL    O4510145   7.614   1.615   1.095  0.0436 -0.1023  0.4859
   51MOL    N4610146   7.414   1.637   1.033 -0.0245  0.7165  0.2146
   51MOL    H4710147   7.552   1.351   1.252  1.6568  0.3692  0.3453
   51MOL    H4810148   7.642   1.465   1.318 -1.3650  0.9592 -0.1406
   51MOL    H4910149   7.353   1.494   1.249  0.4606 -0.8652 -2.4964
   51MOL    H5010150   7.314   1.620   1.040  0.0464 -0.3973 -1.3553
   51MOL    H5110151   7.447   1.677   0.946 -0.6190  2.2823  0.6816
   51MOL    C5210152   7.435   1.655   1.365 -0.8957 -0.1621 -0.0073
   51MOL    C5310153   7.298   1.737   1.352  0.7929 -0.0466 -0.0585
   51MOL    C5410154   7.314   1.873   1.417 -0.3174 -0.5615  0.7386
   51MOL    O5510155   7.329   1.892   1.533  0.2352  0.6390 -0.0718
   51MOL    N5610156   7.307   1.980   1.346  0.5369 -0.1292  0.0249
   51MOL    H5710157   7.518   1.725   1.362 -2.0651  1.2315 -0.8830
   51MOL    H5810158   7.444   1.622   1.469 -1.7587 -0.7032 -0.0958
   51MOL    H5910159   7.289   1.752   1.245 -1.4415  0.6199  0.2065
   51MOL    H6010160   7.329   2.068   1.391 -0.5620  0.7505 -1.1359
   51MOL    H6110161   7.297   1.974   1.246 -0.7320 -0.9073  0.1860
   51MOL    C6210162   7.176   1.658   1.421  0.4487  0.6425  0.1060
   51MOL    C6310163   7.046   1.666   1.338 -0.1898 -0.7141  0.1959
   51MOL    C6410164   7.049   1.602   1.194 -0.1676  0.0412 -0.2176
   51MOL    O6510165   7.132   1.639   1.112 -0.1040  0.3610 -0.1086
   51MOL    N6610166   6.969   1.505   1.158  0.0996 -0.3422  0.0513
   51MOL    H6710167   7.158   1.692   1.523 -0.2002 -1.8636  0.8535
   51MOL    H6810168   7.206   1.554   1.424 -0.0828  0.5087  0.8881
   51MOL    H6910169   6.969   1.610   1.392 -0.3587 -1.6422 -0.9880
   51MOL    H7010170   6.978   1.461   1.067 -1.4579 -0.5678  0.0016
   51MOL    H7110171   6.887   1.491   1.214  1.1761 -0.5707  1.6083
   51MOL    C7210172   6.996   1.815   1.331  0.0045 -0.0704 -0.4219
   51MOL    C7310173   6.840   1.834   1.314 -0.5931 -0.0593 -0.1028
   51MOL    C7410174   6.806   1.894   1.182  0.4874  0.0920  0.1721
   51MOL    O7510175   6.826   2.008   1.149  0.7245  0.1897 -0.0931
   51MOL    N7610176   6.737   1.813   1.108  0.9150 -0.0094 -0.1734
   51MOL    H7710177   7.059   1.862   1.256  1.8721 -1.0818  0.4617
   51MOL    H7810178   7.021   1.862   1.426 -1.0581 -0.0664 -0.1454
   51MOL    H7910179   6.787   1.740   1.329 -2.8129  1.2357  0.4009
   51MOL    H8010180   6.746   1.714   1.124  0.4857  0.1376  0.9557
   51MOL    H8110181   6.676   1.852   1.037  0.6956  0.3933  0.2380
   51MOL    C8210182   6.793   1.903   1.441  0.7091 -0.0923  0.3228
   51MOL    C8310183   6.656   1.972   1.443  0.0243  0.3045 -0.4276
   51MOL    C8410184   6.624   2.034   1.577  0.3511  0.2989  0.8912
   51MOL    O8510185   6.563   1.971   1.666  0.3494 -0.5122  0.8088
   51MOL    N8610186   6.653   2.162   1.606 -0.3087 -0.3827  0.1223
   51MOL    H8710187   6.863   1.985   1.458  1.8711 -1.0891  0.4090
   51MOL    H8810188   6.796   1.831   1.523  0.9631 -0.8987 -0.3861
   51MOL    H8910189   6.662   2.048   1.365  0.6971  1.5959  0.8778
   51MOL    H9010190   6.647   2.198   1.701  1.2527  0.3703 -0.0424
   51MOL    H9110191   6.699   2.223   1.540  0.3544 -0.7268  0.2656
   51MOL    C9210192   6.541   1.884   1.393 -0.8345  0.2477  0.0267
   51MOL    C9310193   6.427   1.952   1.314 -0.3558  0.2597  0.5031
   51MOL    C9410194   6.325   1.855   1.252 -0.0189 -0.0123  0.9227
   51MOL    O9510195   6.360   1.739   1.222 -0.2924  0.0047  0.6929
   51MOL    N9610196   6.198   1.900   1.230 -0.3714  0.9453 -0.1673
   51MOL    H9710197   6.489   1.849   1.482  0.1905 -1.3711  0.0190
   51MOL    H9810198   6.573   1.800   1.330 -0.1613  1.1424 -0.8349
   51MOL    H9910199   6.362   1.986   1.394  0.9544  1.9690  0.8774
   51MOL   H10010200   6.125   1.840   1.196  1.5972 -1.0440 -1.0502
   51MOL   H10110201   6.175   1.994   1.260 -2.2118  0.2100  0.7556
   51MOL   C10210202   6.454   2.071   1.220 -0.4657 -0.1173  0.0303
   51MOL   C10310203   6.450   2.218   1.286 -0.3758  0.3582  0.3965
   51MOL   C10410204   6.314   2.262   1.342  0.0666  0.1029  0.5053
   51MOL   O10510205   6.215   2.195   1.316 -0.9074  0.7434  0.2909
   51MOL   N10610206   6.303   2.379   1.398  0.5602 -0.4647  0.4052
   51MOL   H10710207   6.382   2.077   1.138  0.6034 -0.4950 -0.9364
   51MOL   H10810208   6.552   2.047   1.179 -0.0893 -0.5045  1.1387
   51MOL   H10910209   6.513   2.231   1.374  1.5802 -0.4495 -0.8402
   51MOL   H11010210   6.211   2.411   1.426  0.6498 -0.3597  0.5801
   51MOL   H11110211   6.388   2.430   1.415 -0.9356  2.5225 -0.8368
   51MOL   C11210212   6.490   2.323   1.183  0.4320  0.0164 -0.0394
   51MOL   C11310213   6.642   2.346   1.152 -0.2927  0.6796 -0.0324
   51MOL   C11410214   6.713   2.381   1.284  0.8361  0.2356  0.1932
   51MOL   O11510215   6.730   2.304   1.378 -0.2629  0.1865 -0.2677
   51MOL   N11610216   6.735   2.509   1.299 -0.2107 -0.2585 -0.3915
   51MOL   H11710217   6.445   2.420   1.202 -1.6214 -1.0023  0.4206
   51MOL   H11810218   6.440   2.307   1.088  1.1380  0.6771 -0.5283
   51MOL   H11910219   6.687   2.250   1.128 -0.5647  0.8631 -1.3364
   51MOL   H12010220   6.733   2.560   1.212 -0.3859 -0.8068 -0.7076
   51MOL   H12110221   6.745   2.558   1.387 -0.8093 -0.8608  0.0105
   51MOL   C12210222   6.659   2.444   1.034 -0.0467  0.0032  0.7647
   51MOL   C12310223   6.801   2.486   1.002  0.2691 -0.5270  0.0867
   51MOL   C12410224   6.800   2.625   0.939  0.2896 -0.5026  0.7853
   51MOL   O12510225   6.821   2.731   0.998  0.6776  0.6142 -0.6269
   51MOL   N12610226   6.742   2.625   0.817 -0.0753 -0.0213 -0.4905
   51MOL   H12710227   6.605   2.538   1.051  1.6431  1.4936 -1.7707
   51MOL   H12810228   6.601   2.408   0.949 -1.0380  1.4060  0.8218
   51MOL   H12910229   6.848   2.506   1.098 -1.2091 -2.0140  1.1299
   51MOL   H13010230   6.724   2.709   0.765 -1.6010  0.0796  0.1726
   51MOL   H13110231   6.685   2.547   0.789 -1.9561  0.5972  1.5217
   51MOL   C13210232   6.891   2.376   0.933  0.3233  0.6059 -0.1218
   51MOL   C13310233   7.048   2.402   0.958 -0.0297  0.3696 -0.1073
   51MOL   C13410234   7.121   2.490   0.859 -0.0194 -0.3398  0.1654
   51MOL   O13510235   7.140   2.454   0.744  0.1729 -0.2625  0.4016
   51MOL   N13610236   7.172   2.613   0.903  0.2577 -0.3300  0.2502
   51MOL   H13710237   6.877   2.367   0.825  3.2283 -2.4831 -0.3314
   51MOL   H13810238   6.870   2.283   0.987 -0.1043 -0.1163 -1.4860
   51MOL   H13910239   7.061   2.456   1.052 -0.1008 -1.0410  0.7223
   51MOL   H14010240   7.221   2.671   0.837 -0.3463  0.3912  0.4341
   51MOL   H14110241   7.160   2.655   0.994  0.9090  0.8387 -0.1969
   51MOL   C14210242   7.131   2.268   0.977  0.5175 -0.2831  0.1810
   51MOL   C14310243   7.208   2.254   1.110  0.4917 -0.7982 -0.1290
   51MOL   C14410244   7.109   2.263   1.230 -0.4276  0.0635 -0.1191
   51MOL   O14510245   7.136   2.324   1.333 -0.5612  0.1664  0.6610
   51MOL   N14610246   6.993   2.207   1.226 -0.0155 -0.0995  0.1856
   51MOL   H14710247   7.198   2.245   0.894  2.2202 -0.0856  1.4782
   51MOL   H14810248   7.058   2.187   0.972  0.2835 -0.0214 -0.9265
   51MOL   H14910249   7.244   2.152   1.100 -0.4287 -1.2375  0.9259
   51MOL   H15010250   6.918   2.228   1.291  1.2251  0.5193  1.4645
   51MOL   H15110251   6.971   2.140   1.154  0.3593 -1.7713  1.5814
   51MOL   C15210252   7.331   2.345   1.120 -0.4330  0.7873  0.5510
   51MOL   C15310253   7.441   2.313   1.015 -0.6816  0.5826  0.1899
   51MOL   C15410254   7.543   2.211   1.067 -0.7050 -0.1581 -0.5381
   51MOL   O15510255   7.641   2.246   1.135  0.6963  0.1207  0.1881
   51MOL   N15610256   7.513   2.088   1.044 -0.0016 -0.3500  0.4306
   51MOL   H15710257   7.371   2.331   1.220  1.0047 -0.7799 -0.2177
   51MOL   H15810258   7.303   2.451   1.117 -0.0644  0.8612 -0.7897
   51MOL   H15910259   7.408   2.264   0.923  0.4527  1.4051 -0.6654
   51MOL   H16010260   7.579   2.023   1.085 -0.4913 -0.7159  0.6558
   51MOL   H16110261   7.446   2.047   0.981 -0.8308  0.6642  0.6412
   51MOL   C16210262   7.508   2.448   0.984 -0.1593  0.6499 -0.6133
   51MOL   C16310263   7.591   2.443   0.851 -0.7436 -0.0781  0.2555
   51MOL   C16410264   0.040   2.555   0.843 -0.1498 -0.3346 -0.2018
   51MOL   O16510265   0.158   2.530   0.818 -0.7407 -0.2279  0.3710
   51MOL   N16610266   0.000   2.678   0.853 -0.1895 -0.0301 -0.5104
   51MOL   H16710267   7.567   2.490   1.065 -0.1621  1.2440 -0.9142
   51MOL   H16810268   7.429   2.522   0.966  1.3675  1.8222 -2.7091
   51MOL   H16910269   0.004   2.359   0.861 -1.6793 -0.8519  0.3953
   51MOL   H17010270   0.071   2.749   0.863  2.5380 -2.7236  0.0597
   51MOL   H17110271   7.562   2.706   0.835 -0.5693 -0.3899  0.9055
   51MOL   C17210272   7.515   2.432   0.722 -0.2613 -0.0325  0.2286
   51MOL   C17310273   7.593   2.363   0.608 -0.3438  0.5865 -0.3969
   51MOL   C17410274   0.008   2.451   0.502  0.0121  0.4342  0.2817
   51MOL   O17510275   7.631   2.568   0.491  0.1554  0.0476  0.2626
   51MOL   N17610276   0.089   2.395   0.410  0.6448 -0.0509 -0.2994
   51MOL   H17710277   7.485   2.531   0.687  0.4134  0.6446  1.5083
   51MOL   H17810278   7.422   2.380   0.741 -0.2398 -0.8807 -1.9397
   51MOL   H17910279   0.018   2.305   0.651  1.3290  1.3113 -2.4837
   51MOL   H18010280   0.124   2.452   0.334 -0.4488 -0.1329 -0.8750
   51MOL   H18110281   0.121   2.299   0.412 -0.0288 -0.3627 -2.9316
   51MOL   C18210282   7.505   2.261   0.536  0.3641 -0.6937  0.2672
   51MOL   C18310283   7.375   2.314   0.462  0.0624 -0.5828 -0.6912
   51MOL   C18410284   7.257   2.214   0.479  0.2246 -0.5400 -0.4658
   51MOL   O18510285   7.261   2.118   0.412  0.2237  0.2737  0.8681
   51MOL   N18610286   7.162   2.240   0.567  0.0878  0.2309 -0.0855
   51MOL   H18710287   7.478   2.180   0.605 -1.2385 -1.2724 -1.0001
   51MOL   H18810288   7.570   2.208   0.467 -0.8873 -1.8478 -0.0627
   51MOL   H18910289   7.338   2.404   0.512  0.6281 -0.9025  0.3157
   51MOL   H19010290   7.151   2.331   0.608  2.2097  0.1080  0.8521
   51MOL   H19110291   7.083   2.180   0.586  0.9134 -0.1784  2.1860
   51MOL   C19210292   7.398   2.344   0.312 -0.2497 -0.1822 -0.0426
   51MOL   C19310293   7.280   2.354   0.216 -0.3459  0.6773  0.2364
   51MOL   C19410294   7.196   2.483   0.235 -0.1491  0.1216  0.3548
   51MOL   O19510295   7.134   2.503   0.338  0.0633 -0.3224  0.5661
   51MOL   N19610296   7.186   2.571   0.136 -0.1821  0.3478  0.1578
   51MOL   H19710297   7.460   2.267   0.265  0.2920 -0.9340  1.8747
   51MOL   H19810298   7.448   2.441   0.310 -2.4380  0.9660  0.2433
   51MOL   H19910299   7.317   2.350   0.114 -0.2886  0.5541  0.2622
   51MOL   H20010300   7.123   2.648   0.149  1.1076  1.1226  1.9750
   51MOL   H20110301   7.224   2.553   0.044  0.1281  2.9700 -0.2640
   51MOL   H20210302   7.212   2.269   0.224  0.4687  0.0678  0.7120
   52MOL     C110303   1.043   5.881   1.676  0.3387 -0.0103  0.4347
   52MOL     C210304   1.120   5.782   1.594  0.0483 -0.1713 -0.0959
   52MOL     C310305   1.248   5.733   1.664 -0.8226  0.4732  0.3576
   52MOL     O410306   1.352   5.795   1.667  0.0989 -0.5942 -0.4439
   52MOL     N510307   1.241   5.616   1.734  0.4849 -0.0228 -0.6905
   52MOL     H610308   1.058   5.861   1.782 -1.8239 -2.6002  0.2937
   52MOL     H710309   1.086   5.978   1.651 -0.2381  0.0510 -0.3219
   52MOL     H810310   1.057   5.695   1.577  1.1694 -1.2323  1.0771
   52MOL     H910311   1.317   5.585   1.792 -0.8723 -2.7681 -0.2853
   52MOL    H1010312   1.160   5.561   1.709 -0.0029  0.4534 -0.1790
   52MOL    H1110313   0.934   5.880   1.672  0.2738 -1.3412  1.8140
   52MOL    C1210314   1.147   5.849   1.458  0.0469  0.0734 -0.1859
   52MOL    C1310315   1.025   5.886   1.369 -0.3581  0.8968  0.4515
   52MOL    C1410316   0.962   5.755   1.304  0.3566  0.5973  0.1550
   52MOL    O1510317   0.997   5.713   1.197  0.2501 -0.3514 -0.0397
   52MOL    N1610318   0.867   5.684   1.364 -0.1544 -0.4070 -0.3312
   52MOL    H1710319   1.226   5.799   1.402 -0.4814 -1.3218  0.2776
   52MOL    H1810320   1.190   5.948   1.471 -0.0187 -0.0046  0.6245
   52MOL    H1910321   0.945   5.922   1.434 -1.3771  0.6713 -0.6482
   52MOL    H2010322   0.824   5.703   1.453  0.3099 -2.1710  0.3042
   52MOL    H2110323   0.820   5.606   1.320 -0.4459 -0.0498 -0.6568
   52MOL    C2210324   1.066   5.991   1.258  0.2338  0.3910 -0.6326
   52MOL    C2310325   0.939   6.054   1.176 -0.6247 -0.4075 -0.8091
   52MOL    C2410326   0.996   6.145   1.067 -0.3409  0.4492  0.8461
   52MOL    O2510327   1.076   6.240   1.090 -0.5397  0.4541  0.6629
   52MOL    N2610328   0.959   6.131   0.940 -0.1539 -0.4482 -0.0800
   52MOL    H2710329   1.138   5.958   1.183  0.1780 -0.2157 -0.4227
   52MOL    H2810330   1.107   6.083   1.300  3.3109 -1.4114  0.4608
   52MOL    H2910331   0.889   5.969   1.129 -0.7757 -1.0706  0.5238
   52MOL    H3010332   0.886   6.063   0.921 -1.6957  0.4518  2.3357
   52MOL    H3110333   0.991   6.194   0.868  0.8098 -1.9745 -1.0241
   52MOL    C3210334   0.821   6.118   1.248 -0.6715 -0.1462  0.5322
   52MOL    C3310335   0.687   6.120   1.177  0.2408 -0.0620  1.0407
   52MOL    C3410336   0.630   6.257   1.165 -0.2239 -0.5837 -0.4759
   52MOL    O3510337   0.599   6.319   1.266  0.0235  0.7543  0.5926
   52MOL    N3610338   0.620   6.315   1.043  0.2939 -0.3842  0.0020
   52MOL    H3710339   0.847   6.213   1.294 -1.3155 -0.0356  0.6698
   52MOL    H3810340   0.799   6.066   1.341 -1.2847 -1.5133 -0.3656
   52MOL    H3910341   0.708   6.090   1.075 -2.3391 -2.1783  1.1000
   52MOL    H4010342   0.620   6.251   0.965 -0.9779 -0.4517  0.0486
   52MOL    H4110343   0.608   6.415   1.034  0.4515  0.0830  3.7812
   52MOL    C4210344   0.593   6.007   1.218  0.3891  0.2721 -0.0596
   52MOL    C4310345   0.543   6.011   1.369 -0.3881 -0.0941 -0.0994
   52MOL    C4410346   0.607   5.902   1.457  0.8889 -0.9167 -0.0514
   52MOL    O4510347   0.590   5.784   1.421  0.0230  0.1230  0.1958
   52MOL    N4610348   0.682   5.938   1.564 -0.2381 -0.6548  0.5281
   52MOL    H4710349   0.635   5.909   1.193  1.4262  0.5693  0.4799
   52MOL    H4810350   0.509   6.008   1.149  0.8814  1.5889 -0.6522
   52MOL    H4910351   0.569   6.103   1.421 -3.3350 -0.3302  1.9327
   52MOL    H5010352   0.722   5.858   1.613 -1.4248 -0.6543  1.5098
   52MOL    H5110353   0.711   6.031   1.589 -2.5577  0.3020 -0.2608
   52MOL    C5210354   0.389   5.996   1.376  0.3678 -0.3331  0.2229
   52MOL    C5310355   0.311   6.126   1.331 -0.9751 -0.3594 -1.1899
   52MOL    C5410356   0.305   6.233   1.446 -0.0521  0.6983 -0.2254
   52MOL    O5510357   0.198   6.264   1.489  0.1591 -0.0441 -0.0106
   52MOL    N5610358   0.416   6.287   1.500  0.0099  0.3143  0.1301
   52MOL    H5710359   0.354   5.968   1.475  0.2250  3.4461  1.3225
   52MOL    H5810360   0.366   5.910   1.313 -0.8473  0.6353 -0.6851
   52MOL    H5910361   0.369   6.166   1.249  0.3016 -2.5472 -1.4048
   52MOL    H6010362   0.402   6.371   1.555 -1.1914  0.7874 -0.8820
   52MOL    H6110363   0.495   6.287   1.437  0.6955 -1.7786  0.9556
   52MOL    C6210364   0.168   6.068   1.294 -0.3785  0.6809  0.1254
   52MOL    C6310365   0.093   6.159   1.198 -0.0142  0.7079 -0.5050
   52MOL    C6410366   7.609   6.212   1.257 -0.5536  0.0208 -0.4287
   52MOL    O6510367   7.499   6.164   1.224 -0.0785  0.3353 -0.3097
   52MOL    N6610368   7.623   6.324   1.328 -0.1394  0.7438  0.3778
   52MOL    H6710369   0.112   6.051   1.386 -0.3599  2.3571  0.4647
   52MOL    H6810370   0.188   5.971   1.250  0.5350  1.3392 -0.9427
   52MOL    H6910371   0.152   6.251   1.204 -1.6932  1.7120  0.8620
   52MOL    H7010372   0.056   6.354   1.364  1.9054 -1.8065 -2.3356
   52MOL    H7110373   7.544   6.385   1.340  0.8745  2.3422 -0.7494
   52MOL    C7210374   0.077   6.100   1.050 -0.4189 -0.3923 -0.4609
   52MOL    C7310375   0.130   6.195   0.932  0.0517  0.2842  0.4121
   52MOL    C7410376   0.278   6.226   0.941 -0.1779  0.4028 -0.3707
   52MOL    O7510377   0.356   6.133   0.945  0.2089  0.7718 -0.1373
   52MOL    N7610378   0.327   6.347   0.956 -0.0656 -0.0834  0.7230
   52MOL    H7710379   7.633   6.060   1.046 -1.6577  2.5635 -0.5468
   52MOL    H7810380   0.149   6.019   1.040 -2.1520 -2.1337  0.8439
   52MOL    H7910381   0.124   6.137   0.841 -1.6591 -1.2256  1.4510
   52MOL    H8010382   0.426   6.367   0.960  0.4062 -2.0143 -0.6576
   52MOL    H8110383   0.259   6.420   0.966 -0.2404 -0.1915  0.3438
   52MOL    C8210384   0.035   6.318   0.912  0.9509 -0.3617 -0.0791
   52MOL    C8310385   7.576   6.316   0.806  0.4491 -0.1741  0.3814
   52MOL    C8410386   7.632   6.369   0.669 -0.9261  0.3920  0.6808
   52MOL    O8510387   0.093   6.347   0.633 -0.0980  0.0891 -0.3876
   52MOL    N8610388   7.559   6.445   0.589  0.0928 -0.1820  0.0816
   52MOL    H8710389   0.090   6.410   0.891  0.8588 -0.8196 -2.5299
   52MOL    H8810390   7.645   6.348   1.006 -1.0786 -0.4269 -1.0383
   52MOL    H8910391   7.540   6.214   0.795 -1.9979  0.7714 -0.8992
   52MOL    H9010392   7.591   6.479   0.499 -1.5483  1.5115  0.1013
   52MOL    H9110393   7.466   6.472   0.618  0.1784  0.0379  0.1479
   52MOL    C9210394   7.458   6.413   0.853  0.0736 -0.1636  0.2052
   52MOL    C9310395   7.353   6.358   0.952  0.2751 -0.2763 -0.2312
   52MOL    C9410396   7.301   6.221   0.913 -0.1727  0.5113  0.0273
   52MOL    O9510397   7.230   6.206   0.817 -0.3259 -0.0549  0.4374
   52MOL    N9610398   7.321   6.119   0.999 -0.0519 -0.3608  0.2943
   52MOL    H9710399   7.400   6.453   0.769 -0.3388  1.3899  1.2012
   52MOL    H9810400   7.506   6.503   0.892  0.1497 -0.6553  1.2684
   52MOL    H9910401   7.387   6.365   1.055 -2.2334 -0.9478  0.6704
   52MOL   H10010402   7.264   6.036   0.987  2.1692 -2.1110  1.3022
   52MOL   H10110403   7.384   6.128   1.078  2.8504 -1.4408 -1.7894
   52MOL   C10210404   7.236   6.459   0.952  0.2628  0.1780 -0.3589
   52MOL   C10310405   7.115   6.411   1.044 -0.1934 -0.5720  0.3250
   52MOL   C10410406   6.999   6.498   1.025  0.2019  0.0837  0.1088
   52MOL   O10510407   7.004   6.610   0.984 -0.2291  0.2572  1.0129
   52MOL   N10610408   6.878   6.446   1.055 -0.1198 -0.7838 -0.7323
   52MOL   H10710409   7.201   6.475   0.850  0.1427  0.0539 -0.3379
   52MOL   H10810410   7.279   6.553   0.987 -2.6642  0.9274  1.3474
   52MOL   H10910411   7.090   6.308   1.016 -1.6807 -0.2714  0.5245
   52MOL   H11010412   6.879   6.359   1.108 -0.2324 -1.0540 -1.1740
   52MOL   H11110413   6.794   6.501   1.051  0.3079 -0.2422 -2.5052
   52MOL   C11210414   7.152   6.412   1.189 -0.1580  1.4718 -0.2281
   52MOL   C11310415   7.148   6.543   1.276 -0.1424  0.0413  0.3669
   52MOL   C11410416   7.281   6.617   1.245 -0.4778  0.6697  0.8932
   52MOL   O11510417   7.392   6.560   1.246  0.4333  0.2461 -0.2339
   52MOL   N11610418   7.271   6.746   1.218 -0.2896  0.1736 -0.3524
   52MOL   H11710419   7.243   6.358   1.216 -0.1127  0.6462 -1.9335
   52MOL   H11810420   7.074   6.351   1.234  1.1490  0.7625  1.1344
   52MOL   H11910421   7.063   6.606   1.253 -0.5911 -0.2846  1.1531
   52MOL   H12010422   7.177   6.780   1.204 -0.2429  0.7535  0.7005
   52MOL   H12110423   7.347   6.794   1.172 -0.8986  1.9499  0.4349
   52MOL   C12210424   7.146   6.503   1.423  0.3116 -0.3399  0.3727
   52MOL   C12310425   7.012   6.480   1.492 -0.4901  0.1356 -0.1587
   52MOL   C12410426   6.920   6.598   1.480 -0.3464  0.6174 -0.0387
   52MOL   O12510427   6.959   6.709   1.521 -0.1050  0.5194 -0.0840
   52MOL   N12610428   6.799   6.581   1.424  0.2166  0.6557  0.2963
   52MOL   H12710429   7.202   6.582   1.474 -0.3630  0.0950  0.4402
   52MOL   H12810430   7.218   6.421   1.433  0.8387  0.2423  1.3960
   52MOL   H12910431   6.967   6.395   1.439  0.8538 -1.1743  0.7546
   52MOL   H13010432   6.740   6.663   1.414 -0.1624  0.5670  1.7170
   52MOL   H13110433   6.762   6.496   1.385 -2.0852  1.6914  0.1351
   52MOL   C13210434   7.036   6.444   1.648 -0.3924 -0.0725 -0.5914
   52MOL   C13310435   6.913   6.406   1.735 -0.1122  0.2338 -0.2315
   52MOL   C13410436   6.942   6.408   1.886 -0.3102  0.3194 -0.3124
   52MOL   O13510437   7.044   6.454   1.931 -0.4091 -0.2938  0.1939
   52MOL   N13610438   6.853   6.348   1.963  0.2163 -0.0711  0.2976
   52MOL   H13710439   7.096   6.521   1.698  0.6242 -1.8018  0.9377
   52MOL   H13810440   7.103   6.358   1.644  0.9670  0.8452  1.3596
   52MOL   H13910441   6.848   6.494   1.731 -0.2280  0.1064 -1.3181
   52MOL   H14010442   6.865   6.361   2.063  1.8835 -1.2980  0.2687
   52MOL   H14110443   6.765   6.313   1.927  2.5787 -4.8377 -1.1775
   52MOL   C14210444   6.854   6.267   1.685 -0.1767 -0.2927 -0.1570
   52MOL   C14310445   6.714   6.284   1.621  0.0272  0.0908  0.8270
   52MOL   C14410446   6.610   6.324   1.727 -0.0473  0.2303  0.4009
   52MOL   O14510447   6.617   6.289   1.847 -0.4681 -0.4476 -0.2280
   52MOL   N14610448   6.517   6.401   1.691  0.1890  0.1226  0.0882
   52MOL   H14710449   6.849   6.201   1.771 -2.0141  0.8863  0.6774
   52MOL   H14810450   6.914   6.212   1.613 -1.0908 -0.1942 -1.0169
   52MOL   H14910451   6.714   6.361   1.544 -2.4752 -0.8665 -0.1631
   52MOL   H15010452   6.527   6.449   1.603 -0.8134 -1.1488 -0.7450
   52MOL   H15110453   6.439   6.436   1.745  0.0296  0.0650 -0.1044
   52MOL   C15210454   6.677   6.151   1.548  0.1538  0.4280 -0.2002
   52MOL   C15310455   6.740   6.120   1.412 -0.4876  0.0690  0.0944
   52MOL   C15410456   6.655   6.161   1.298 -0.5451 -0.5354 -0.0617
   52MOL   O15510457   6.688   6.255   1.221  0.0347  0.7862  0.2361
   52MOL   N15610458   6.547   6.098   1.270  0.0075 -0.5867  0.8541
   52MOL   H15710459   6.569   6.136   1.550  0.1586  0.2227 -1.4996
   52MOL   H15810460   6.714   6.074   1.616  0.9264  0.1789 -0.9015
   52MOL   H15910461   6.832   6.179   1.411 -1.3666  1.4453 -0.2547
   52MOL   H16010462   6.502   6.030   1.331 -0.6567 -1.2771 -0.3734
   52MOL   H16110463   6.511   6.118   1.178 -2.3531  0.0844  1.8826
   52MOL   C16210464   6.789   5.973   1.387  0.4261 -0.8966 -0.3331
   52MOL   C16310465   6.898   5.948   1.275  0.3517  0.2984  0.3928
   52MOL   C16410466   7.034   6.007   1.322 -0.5044  0.4533  0.3179
   52MOL   O16510467   7.056   6.029   1.439  0.3768 -0.0598 -0.0780
   52MOL   N16610468   7.130   6.046   1.231  0.1730  0.0540 -0.6325
   52MOL   H16710469   6.700   5.913   1.369 -0.4238  0.7831 -1.9258
   52MOL   H16810470   6.824   5.931   1.482  1.4580  2.1938  0.7188
   52MOL   H16910471   6.924   5.842   1.273  1.2434  0.5343 -1.1442
   52MOL   H17010472   7.218   6.085   1.261 -0.6324  1.3328  0.1009
   52MOL   H17110473   7.116   6.028   1.133 -2.1203 -0.4206 -0.2315
   52MOL   C17210474   6.858   5.974   1.127 -0.7475  0.2011 -0.1295
   52MOL   C17310475   6.921   5.854   1.034  0.4531  0.4255 -0.0265
   52MOL   C17410476   7.020   5.912   0.940  0.4025  0.4557 -0.7417
   52MOL   O17510477   7.138   5.899   0.959  0.0054  0.4591 -0.4793
   52MOL   N17610478   6.981   5.987   0.832 -0.2649  0.4114  0.2772
   52MOL   H17710479   6.904   6.069   1.097  0.2796 -0.0074  0.7479
   52MOL   H17810480   6.753   5.987   1.103 -0.9437 -0.4170  0.3940
   52MOL   H17910481   6.978   5.775   1.084 -0.4113 -1.0597 -1.3256
   52MOL   H18010482   7.046   6.004   0.757 -1.0358  1.0564 -0.2554
   52MOL   H18110483   6.886   5.977   0.800  0.2396  0.2002 -1.1703
   52MOL   C18210484   6.807   5.778   0.958 -0.6500 -0.4457 -0.2679
   52MOL   C18310485   6.709   5.702   1.046 -0.0352 -0.3791 -0.2909
   52MOL   C18410486   6.771   5.578   1.100 -0.6305  0.0426 -0.5883
   52MOL   O18510487   6.861   5.580   1.189 -0.1280 -0.1854 -0.0410
   52MOL   N18610488   6.730   5.460   1.059  0.4215  0.8929  0.0470
   52MOL   H18710489   6.850   5.712   0.883  0.8529  0.6620 -0.3990
   52MOL   H18810490   6.758   5.858   0.901  1.4810  0.5178 -0.7737
   52MOL   H18910491   6.677   5.772   1.123  1.1409  0.6141 -0.6877
   52MOL   H19010492   6.785   5.379   1.083  0.2321  0.2901 -1.4694
   52MOL   H19110493   6.673   5.459   0.975  1.7940  3.1806 -0.9642
   52MOL   C19210494   6.577   5.674   0.962 -0.1656 -0.0645 -0.2272
   52MOL   C19310495   6.459   5.604   1.030  0.2280  0.3685  0.1422
   52MOL   C19410496   6.436   5.460   0.980 -0.3510 -0.2175 -0.0092
   52MOL   O19510497   6.506   5.406   0.898  0.9205 -0.8144  0.6270
   52MOL   N19610498   6.346   5.389   1.041 -0.1020  0.1643  0.3906
   52MOL   H19710499   6.611   5.629   0.869  1.5845 -1.9616  1.2794
   52MOL   H19810500   6.535   5.769   0.930  1.0916  0.2466 -0.9745
   52MOL   H19910501   6.453   5.610   1.139 -1.9375 -1.7651  0.1722
   52MOL   H20010502   6.301   5.433   1.120 -0.7160 -1.8457  1.1910
   52MOL   H20110503   6.323   5.296   1.011 -3.5348 -0.0225  3.2312
   52MOL   H20210504   6.365   5.656   1.016  0.4575  0.8241  0.2722
   53MOL     C110505   1.857   3.929   0.804 -0.2013 -0.2041  0.4239
   53MOL     C210506   1.837   3.780   0.765  0.3013  0.0443  0.3324
   53MOL     C310507   1.804   3.786   0.611  0.1285  0.1629  0.3198
   53MOL     O410508   1.687   3.794   0.570  0.1267 -0.1753 -0.1893
   53MOL     N510509   1.907   3.777   0.529 -0.8566  0.3842  0.1158
   53MOL     H610510   1.881   3.939   0.909 -0.4174  0.2388  0.4322
   53MOL     H710511   1.946   3.968   0.755 -1.6534  0.8149 -1.4787
   53MOL     H810512   1.929   3.725   0.784 -0.5872 -1.2513  0.9830
   53MOL     H910513   1.882   3.758   0.433  0.7248 -1.6221  0.0580
   53MOL    H1010514   2.000   3.785   0.568 -0.7570  1.6300 -0.3444
   53MOL    H1110515   1.773   3.996   0.783  0.4352  0.4671  0.0120
   53MOL    C1210516   1.725   3.717   0.856  0.1180 -0.2089 -0.2857
   53MOL    C1310517   1.655   3.586   0.804 -0.4299 -0.1405 -0.3703
   53MOL    C1410518   1.522   3.577   0.884  0.5407 -0.1162 -1.2137
   53MOL    O1510519   1.508   3.616   0.999  0.7445 -0.7509  0.3064
   53MOL    N1610520   1.420   3.539   0.814 -0.3163  0.6443  0.5616
   53MOL    H1710521   1.653   3.799   0.861  0.1687 -0.2330  1.2040
   53MOL    H1810522   1.762   3.700   0.958 -2.2504  0.0430  0.6423
   53MOL    H1910523   1.629   3.595   0.699  0.4671  1.2302 -0.4854
   53MOL    H2010524   1.329   3.549   0.856 -0.5090  1.6599 -0.0609
   53MOL    H2110525   1.437   3.494   0.725  1.1821  0.1024  1.0957
   53MOL    C2210526   1.737   3.453   0.826  0.3712  0.3319 -0.7642
   53MOL    C2310527   1.814   3.403   0.703  0.1755  0.0446 -0.3353
   53MOL    C2410528   1.736   3.389   0.572 -0.2923 -0.0766 -0.9545
   53MOL    O2510529   1.644   3.311   0.560 -0.1923 -0.0275  0.2665
   53MOL    N2610530   1.767   3.472   0.472 -0.4734  0.1129  0.3945
   53MOL    H2710531   1.664   3.374   0.845  1.0623 -0.8628 -2.8309
   53MOL    H2810532   1.804   3.478   0.908 -1.5008 -1.0502  1.2432
   53MOL    H2910533   1.891   3.478   0.688 -1.6521  1.8295 -1.0377
   53MOL    H3010534   1.721   3.455   0.383 -0.8076  0.6665  0.4559
   53MOL    H3110535   1.839   3.542   0.482  1.8658 -1.5933 -3.2732
   53MOL    C3210536   1.882   3.269   0.745  0.3338 -0.3056  0.0895
   53MOL    C3310537   1.997   3.208   0.653  0.5105 -0.1391 -0.8003
   53MOL    C3410538   1.988   3.054   0.652 -0.5879 -0.2724 -0.3945
   53MOL    O3510539   1.985   2.986   0.756  0.5136 -0.3426 -0.0184
   53MOL    N3610540   1.989   2.997   0.538  0.2223 -0.3236 -0.0626
   53MOL    H3710541   1.802   3.197   0.765  1.3159 -1.4205  0.0725
   53MOL    H3810542   1.935   3.275   0.841  0.1665  1.5179  0.0868
   53MOL    H3910543   1.975   3.244   0.552 -0.1886  0.8453 -0.3127
   53MOL    H4010544   1.996   2.897   0.537 -1.7962 -0.4901  0.2565
   53MOL    H4110545   1.985   3.048   0.450 -0.1415 -0.0620  0.1035
   53MOL    C4210546   2.142   3.260   0.693  0.0740  0.2166 -0.0942
   53MOL    C4310547   2.178   3.403   0.651 -0.1521 -0.3910  0.2571
   53MOL    C4410548   2.177   3.427   0.501  0.0759  0.6233 -0.3945
   53MOL    O4510549   2.185   3.338   0.417 -0.0339 -0.2731  0.3349
   53MOL    N4610550   2.181   3.553   0.470  0.5035  0.2908  0.4069
   53MOL    H4710551   2.211   3.197   0.638 -0.4149  0.0742 -0.5552
   53MOL    H4810552   2.166   3.249   0.798 -0.7396  0.2937  0.1061
   53MOL    H4910553   2.095   3.467   0.683  0.0698 -0.7956  1.6876
   53MOL    H5010554   2.187   3.621   0.543  2.1764  0.0142  0.5553
   53MOL    H5110555   2.194   3.579   0.373 -1.2066  1.3570  0.4532
   53MOL    C5210556   2.312   3.446   0.717  0.0836 -0.6184 -1.4006
   53MOL    C5310557   2.319   3.467   0.867 -0.2617 -0.6275  0.0516
   53MOL    C5410558   2.222   3.575   0.914  0.3261  0.5484  0.4442
   53MOL    O5510559   2.192   3.666   0.840 -0.1416 -0.5611 -0.3862
   53MOL    N5610560   2.167   3.558   1.032  0.2109  0.5802  0.3790
   53MOL    H5710561   2.353   3.536   0.671 -2.8811  0.7067 -1.6161
   53MOL    H5810562   2.384   3.366   0.697  1.4968  0.5763 -1.1579
   53MOL    H5910563   2.291   3.373   0.914 -0.5548 -0.9540 -0.7726
   53MOL    H6010564   2.114   3.636   1.067 -1.5727 -0.7147  0.6527
   53MOL    H6110565   2.210   3.494   1.097 -0.9411  0.3172  0.8950
   53MOL    C6210566   2.466   3.496   0.912  0.0003 -0.6026 -0.2447
   53MOL    C6310567   2.496   3.519   1.054  0.2281  0.2090  0.4353
   53MOL    C6410568   2.447   3.411   1.145 -0.0520 -0.5052  0.0790
   53MOL    O6510569   2.335   3.424   1.192 -0.4551  0.1935  0.1220
   53MOL    N6610570   2.519   3.307   1.178 -0.2700  0.5202 -0.1128
   53MOL    H6710571   2.510   3.565   0.841  1.2603 -1.3593 -0.2112
   53MOL    H6810572   2.524   3.404   0.901 -1.4908 -2.0680  3.1407
   53MOL    H6910573   2.604   3.521   1.070  0.2096  2.0320  0.4375
   53MOL    H7010574   2.474   3.245   1.244 -0.7624  0.3160 -0.6397
   53MOL    H7110575   2.599   3.271   1.126 -0.1825 -1.2828  1.2188
   53MOL    C7210576   2.474   3.664   1.105  0.1570 -0.7062  0.4764
   53MOL    C7310577   2.574   3.735   1.198 -0.0459 -0.0658 -0.7535
   53MOL    C7410578   2.611   3.661   1.334 -0.2460  0.6925  0.1895
   53MOL    O7510579   2.542   3.681   1.434 -0.2213  1.1150  0.2791
   53MOL    N7610580   2.727   3.594   1.342 -0.1587  0.0525  0.0723
   53MOL    H7710581   2.376   3.666   1.153  0.6685  0.2105  1.4926
   53MOL    H7810582   2.471   3.724   1.014 -0.4545 -1.9368 -0.3307
   53MOL    H7910583   2.668   3.741   1.144  1.1430 -1.4592  1.1411
   53MOL    H8010584   2.750   3.553   1.431 -0.5432 -1.5416 -0.5349
   53MOL    H8110585   2.784   3.581   1.259  0.4333  0.2277  0.4443
   53MOL    C8210586   2.534   3.885   1.230 -0.0524 -1.0937  0.2065
   53MOL    C8310587   2.545   3.986   1.102  0.2416  0.4054  0.2040
   53MOL    C8410588   2.683   4.060   1.111 -0.2482 -0.1310 -0.4539
   53MOL    O8510589   2.718   4.125   1.214 -0.3689  0.1444 -0.1550
   53MOL    N8610590   2.758   4.059   1.009  0.4761  0.0109 -0.4578
   53MOL    H8710591   2.585   3.921   1.319 -0.6227 -0.1365  0.1455
   53MOL    H8810592   2.432   3.886   1.266  0.3858 -0.2044  1.4494
   53MOL    H8910593   2.563   3.926   1.012  0.7810  1.0579 -0.1313
   53MOL    H9010594   2.849   4.102   1.009  2.1871 -3.2936  2.3762
   53MOL    H9110595   2.731   4.001   0.930  2.7247 -0.6563 -0.7959
   53MOL    C9210596   2.429   4.088   1.095  0.4688 -0.1667  0.4969
   53MOL    C9310597   2.296   4.035   1.029 -0.6540  0.8746  0.2300
   53MOL    C9410598   2.283   4.055   0.877  0.2919 -0.4135 -0.3904
   53MOL    O9510599   2.319   4.154   0.815 -0.1069 -0.0886 -0.4136
   53MOL    N9610600   2.232   3.955   0.806 -0.3954  0.0633 -0.1242
   53MOL    H9710601   2.470   4.163   1.027  0.5116 -1.3908 -0.8512
   53MOL    H9810602   2.414   4.128   1.196 -1.1512  0.6415 -0.0616
   53MOL    H9910603   2.301   3.926   1.041 -0.5443  0.6614 -1.5645
   53MOL   H10010604   2.215   3.954   0.707  0.7485 -1.7673 -0.3163
   53MOL   H10110605   2.221   3.870   0.859 -2.0517  0.2169 -0.1955
   53MOL   C10210606   2.169   4.085   1.091 -0.4512 -0.3038  0.0598
   53MOL   C10310607   2.147   4.043   1.241 -0.3314 -0.3823  0.1178
   53MOL   C10410608   2.109   3.890   1.251  0.3023 -0.5828 -0.4621
   53MOL   O10510609   2.041   3.828   1.171 -0.0642 -0.2134  0.0570
   53MOL   N10610610   2.155   3.823   1.356  0.1654 -0.2746 -0.2164
   53MOL   H10710611   2.079   4.065   1.033 -2.1656 -0.5681  2.7149
   53MOL   H10810612   2.171   4.194   1.085 -0.1056 -0.3898 -1.8841
   53MOL   H10910613   2.243   4.057   1.292 -1.7349  1.0493  2.4535
   53MOL   H11010614   2.231   3.859   1.411  1.7236  1.6449 -3.4454
   53MOL   H11110615   2.143   3.723   1.358  0.2175 -0.2736  0.2323
   53MOL   C11210616   2.033   4.134   1.299 -0.3225  1.0590  0.3564
   53MOL   C11310617   2.067   4.261   1.389 -0.2774  0.0826  0.0865
   53MOL   C11410618   2.204   4.331   1.360 -0.0107 -0.1889  0.5631
   53MOL   O11510619   2.305   4.309   1.417 -0.4563  0.2379 -0.2506
   53MOL   N11610620   2.211   4.417   1.260 -0.1556  0.6900  0.2206
   53MOL   H11710621   1.957   4.075   1.350  0.0944 -1.4724 -1.8713
   53MOL   H11810622   1.979   4.177   1.214 -3.3148 -0.0542  1.6106
   53MOL   H11910623   1.990   4.337   1.373 -0.3131 -0.5202 -2.8901
   53MOL   H12010624   2.130   4.458   1.215 -1.6570 -1.7138  0.6540
   53MOL   H12110625   2.299   4.455   1.228 -1.0032  2.6066  0.1095
   53MOL   C12210626   2.071   4.217   1.540  0.2034 -1.3774  0.1416
   53MOL   C12310627   1.930   4.210   1.609  0.4017 -0.0692 -0.3943
   53MOL   C12410628   1.840   4.327   1.579 -0.0406  0.7796 -0.3797
   53MOL   O12510629   1.878   4.448   1.588  0.8142 -0.8065 -0.3354
   53MOL   N12610630   1.710   4.307   1.531 -0.2138  0.4856  0.1237
   53MOL   H12710631   2.136   4.277   1.603 -3.6144  2.9131  0.2551
   53MOL   H12810632   2.130   4.126   1.544  0.5389 -1.2327 -1.2960
   53MOL   H12910633   1.881   4.121   1.571  0.2253  1.6096 -4.3085
   53MOL   H13010634   1.682   4.211   1.518  0.2194  0.6083 -1.8851
   53MOL   H13110635   1.646   4.385   1.527 -0.6520  0.1226  0.0360
   53MOL   C13210636   1.949   4.198   1.765  0.8946  0.6709 -0.2851
   53MOL   C13310637   1.982   4.049   1.819 -0.3997  0.1536  0.0969
   53MOL   C13410638   1.877   3.945   1.782 -0.2215  0.8306  0.2223
   53MOL   O13510639   1.902   3.825   1.778 -0.1094 -0.1577 -0.1754
   53MOL   N13610640   1.746   3.978   1.780  0.4085 -0.0570 -0.0795
   53MOL   H13710641   1.850   4.215   1.808  1.7654  0.9630  1.6487
   53MOL   H13810642   2.012   4.276   1.807  0.8233  0.5458  0.0576
   53MOL   H13910643   2.078   4.031   1.771 -0.0642 -0.8512  1.0978
   53MOL   H14010644   1.714   4.073   1.764 -1.5509 -0.1405  3.0967
   53MOL   H14110645   1.678   3.903   1.780  0.2160  0.1130 -0.7116
   53MOL   C14210646   2.029   4.046   1.971 -0.6035 -0.0045 -0.0772
   53MOL   C14310647   2.114   3.923   2.020  0.0364  0.3201 -0.1312
   53MOL   C14410648   2.115   3.907   2.169 -0.2185  0.0726 -0.0706
   53MOL   O14510649   2.104   4.003   2.248  0.3371  0.3819  0.2514
   53MOL   N14610650   2.121   3.784   2.213  0.2754 -0.4300  0.4325
   53MOL   H14710651   1.934   4.047   2.024 -0.6082 -1.1904 -0.0439
   53MOL   H14810652   2.073   4.137   2.010 -0.6812  0.4898 -1.1217
   53MOL   H14910653   2.045   3.841   2.000  0.4994 -0.4840  1.4703
   53MOL   H15010654   2.111   3.762   2.311 -0.3045  0.7901  0.6592
   53MOL   H15110655   2.137   3.718   2.138  0.8432  0.6297 -0.3858
   53MOL   C15210656   2.253   3.897   1.952 -0.3813 -0.3161  0.0375
   53MOL   C15310657   2.259   3.795   1.835 -0.6002  0.2893  0.1882
   53MOL   C15410658   2.204   3.661   1.879 -0.1832 -0.8588 -0.7298
   53MOL   O15510659   2.220   3.620   1.996  0.5762 -0.5296  0.4391
   53MOL   N15610660   2.146   3.584   1.791  0.2560 -0.7218  0.0863
   53MOL   H15710661   2.316   3.854   2.029 -1.1363  0.0827  0.8878
   53MOL   H15810662   2.298   3.992   1.923 -0.5378 -0.6863 -1.4686
   53MOL   H15910663   2.206   3.834   1.748  1.5269  1.6040 -0.5363
   53MOL   H16010664   2.137   3.614   1.695 -2.0525  1.9820  1.0541
   53MOL   H16110665   2.112   3.494   1.822 -1.3604 -0.0078  0.4961
   53MOL   C16210666   2.411   3.774   1.789  0.4118 -0.1296  0.5821
   53MOL   C16310667   2.491   3.907   1.751  0.4573  0.1480 -0.3743
   53MOL   C16410668   2.420   3.987   1.641 -0.6162 -0.3994 -0.1855
   53MOL   O16510669   2.370   3.930   1.544 -0.0382  0.1339 -0.2186
   53MOL   N16610670   2.417   4.116   1.642 -0.2518 -0.2166  0.5786
   53MOL   H16710671   2.415   3.706   1.704 -2.3273  1.6535 -1.0431
   53MOL   H16810672   2.463   3.729   1.873  0.4930 -0.6965  0.2309
   53MOL   H16910673   2.510   3.970   1.839  1.7730 -1.7585  0.7315
   53MOL   H17010674   2.368   4.157   1.564  1.1755  0.5861  0.0752
   53MOL   H17110675   2.471   4.157   1.717  1.3044 -0.9714 -0.1043
   53MOL   C17210676   2.636   3.879   1.704  0.4731 -0.0307 -0.5114
   53MOL   C17310677   2.730   3.808   1.804 -0.2970 -0.1206 -0.1950
   53MOL   C17410678   2.760   3.887   1.926 -0.3053 -0.0980 -0.8355
   53MOL   O17510679   2.837   3.984   1.933 -0.5136  0.5111 -0.4485
   53MOL   N17610680   2.690   3.860   2.028  0.2367  0.2223  0.2166
   53MOL   H17710681   2.688   3.970   1.676 -0.3435  0.4974 -0.3327
   53MOL   H17810682   2.625   3.822   1.612 -3.0247  1.6303 -1.2058
   53MOL   H17910683   2.679   3.718   1.840 -1.9215  0.3047 -1.3823
   53MOL   H18010684   2.698   3.922   2.107  0.6168  3.0293 -1.9435
   53MOL   H18110685   2.634   3.776   2.030  0.0578  0.2480 -2.4702
   53MOL   C18210686   2.859   3.770   1.734  0.2597  0.7156  0.0788
   53MOL   C18310687   2.924   3.633   1.761 -0.5665 -0.3588 -0.4011
   53MOL   C18410688   2.839   3.516   1.696 -0.2140  0.3801  0.1531
   53MOL   O18510689   2.865   3.479   1.584  0.1932  0.1017  0.3645
   53MOL   N18610690   2.727   3.471   1.763  0.0936 -0.0479  0.6437
   53MOL   H18710691   2.935   3.848   1.740 -0.1098  1.0253  0.9085
   53MOL   H18810692   2.840   3.770   1.627 -2.0453  0.4249  0.4787
   53MOL   H18910693   3.016   3.642   1.702 -0.1514 -0.0199  0.2983
   53MOL   H19010694   2.657   3.428   1.704  0.3889 -0.0346  0.2785
   53MOL   H19110695   2.692   3.511   1.849 -0.6105 -0.0743  0.3726
   53MOL   C19210696   2.957   3.594   1.912 -0.5538  0.2613  0.8378
   53MOL   C19310697   3.063   3.669   1.985  0.5533  0.3006  0.3185
   53MOL   C19410698   3.032   3.706   2.135  0.0441  0.2151  0.2032
   53MOL   O19510699   3.040   3.626   2.224  0.6894 -0.1785 -0.5021
   53MOL   N19610700   2.996   3.830   2.163 -0.4762  0.1604  0.5699
   53MOL   H19710701   2.971   3.486   1.915 -0.1115  0.2353 -1.3856
   53MOL   H19810702   2.863   3.608   1.966  0.2339 -1.3337  2.7296
   53MOL   H19910703   3.157   3.615   1.984  0.2141 -0.3123  1.1644
   53MOL   H20010704   2.974   3.893   2.087  0.0106  2.4856  2.2797
   53MOL   H20110705   2.965   3.850   2.257 -0.0855  2.2153  0.2890
   53MOL   H20210706   3.081   3.765   1.936 -0.6692 -0.9091 -2.5860
   54MOL     C110707   2.186   4.900   4.945 -0.1781 -0.8537 -0.0482
   54MOL     C210708   2.221   5.047   4.978  0.2188  0.9147  0.0514
   54MOL     C310709   2.088   5.113   4.999 -0.0396 -0.1880  0.1666
   54MOL     O410710   2.048   5.134   5.110 -0.2703  0.0267  0.0806
   54MOL     N510711   2.017   5.137   4.891  0.5639 -0.1658  0.4065
   54MOL     H610712   2.270   4.831   4.952  0.9112  0.5772  1.2556
   54MOL     H710713   2.115   4.869   5.022  0.9495 -2.1405  0.4865
   54MOL     H810714   2.283   5.060   5.066 -0.1430 -2.4308  0.8935
   54MOL     H910715   1.927   5.183   4.896 -0.0603 -1.4097  0.9294
   54MOL    H1010716   2.060   5.121   4.801 -0.2430 -2.0915  0.3209
   54MOL    H1110717   2.130   4.883   4.853  1.7404  0.5679 -1.5257
   54MOL    C1210718   2.310   5.103   4.866 -0.2298 -0.5911  0.2468
   54MOL    C1310719   2.337   5.260   4.878 -0.4336 -0.1141  0.3701
   54MOL    C1410720   2.386   5.325   4.746  0.8445  0.5374 -0.4998
   54MOL    O1510721   2.480   5.276   4.675 -0.2860 -0.3137 -0.5645
   54MOL    N1610722   2.323   5.438   4.709 -0.2904  0.5777  0.2757
   54MOL    H1710723   2.263   5.081   4.770 -0.7842  0.2193  0.3226
   54MOL    H1810724   2.409   5.057   4.867 -1.1085 -2.5682 -1.1165
   54MOL    H1910725   2.242   5.307   4.900 -1.2547 -1.4717 -0.2199
   54MOL    H2010726   2.250   5.470   4.772  0.3036 -1.1197  1.8811
   54MOL    H2110727   2.361   5.482   4.627 -3.0664  1.7025 -0.4664
   54MOL    C2210728   2.447   5.295   4.985 -0.4494  0.0479  0.1863
   54MOL    C2310729   2.401   5.322   5.122  0.6007 -0.0406 -0.4039
   54MOL    C2410730   2.287   5.424   5.135  0.7810 -0.5458 -0.1947
   54MOL    O2510731   2.293   5.530   5.070 -0.0630  0.2521 -0.1204
   54MOL    N2610732   2.176   5.385   5.193  0.3687  0.5464 -0.8989
   54MOL    H2710733   2.514   5.378   4.960 -0.6976 -0.3709 -1.9447
   54MOL    H2810734   2.520   5.215   5.001  0.4156  0.8355  0.2539
   54MOL    H2910735   2.352   5.230   5.153  0.1029  0.5129  0.4821
   54MOL    H3010736   2.154   5.290   5.220  1.6042 -0.3309 -2.8058
   54MOL    H3110737   2.109   5.460   5.204 -0.7578 -0.2510 -2.1065
   54MOL    C3210738   2.520   5.349   5.223  0.6387 -0.4322  0.0046
   54MOL    C3310739   2.487   5.326   5.376 -0.3458  0.1994  0.5634
   54MOL    C3410740   2.527   5.445   5.466  0.4651 -0.3688 -0.6016
   54MOL    O3510741   2.620   5.512   5.434 -0.1972  0.3614 -0.2732
   54MOL    N3610742   2.463   5.461   5.586  0.2727 -0.0451  1.2739
   54MOL    H3710743   2.543   5.455   5.210 -0.6211  0.0821  1.7470
   54MOL    H3810744   2.610   5.300   5.188  2.0388  0.8367  1.7409
   54MOL    H3910745   2.379   5.319   5.386 -0.5649  2.8046  0.2181
   54MOL    H4010746   2.472   5.544   5.644  1.0319  1.0105 -0.3032
   54MOL    H4110747   2.388   5.399   5.612  0.2753 -0.2895  0.7101
   54MOL    C4210748   2.550   5.198   5.437 -0.0323 -0.8579  0.0704
   54MOL    C4310749   2.458   5.075   5.464 -0.2088  0.2634 -0.0112
   54MOL    C4410750   2.366   5.093   5.590 -0.0469 -0.2196  0.4567
   54MOL    O4510751   2.355   5.203   5.643 -0.0427 -0.0031  0.5145
   54MOL    N4610752   2.300   4.988   5.634  0.0237  0.0102  0.5492
   54MOL    H4710753   2.590   5.230   5.534  2.2347 -0.3734 -0.9955
   54MOL    H4810754   2.637   5.174   5.377 -0.1613 -0.3040 -0.3405
   54MOL    H4910755   2.386   5.074   5.383 -2.8674 -1.8632  2.2871
   54MOL    H5010756   2.317   4.898   5.591 -0.2571  0.5607 -0.7267
   54MOL    H5110757   2.252   4.983   5.723  2.6420  0.5777  2.0558
   54MOL    C5210758   2.534   4.943   5.467  0.6727 -0.8617  0.2397
   54MOL    C5310759   2.615   4.903   5.345 -0.0351  0.2647 -0.0586
   54MOL    C5410760   2.522   4.880   5.225 -0.5681  0.1115  0.1924
   54MOL    O5510761   2.400   4.888   5.226  0.1229  0.5756  0.5519
   54MOL    N5610762   2.585   4.868   5.106 -0.0617 -0.3564 -0.1979
   54MOL    H5710763   2.466   4.861   5.489  0.4482 -1.1252 -1.4052
   54MOL    H5810764   2.607   4.939   5.548  4.1898 -0.6408 -2.8074
   54MOL    H5910765   2.677   4.986   5.313  1.0111 -0.2640  0.5765
   54MOL    H6010766   2.685   4.869   5.094 -0.1409  1.1164 -0.7422
   54MOL    H6110767   2.525   4.856   5.026  0.3653 -1.6707 -0.3338
   54MOL    C6210768   2.703   4.777   5.360  0.0934 -0.1840 -0.2798
   54MOL    C6310769   2.856   4.803   5.330  0.0475 -0.1189 -0.2200
   54MOL    C6410770   2.878   4.832   5.179 -0.1064  0.4095 -0.3650
   54MOL    O6510771   2.852   4.744   5.098 -0.1092  0.1414  0.0768
   54MOL    N6610772   2.906   4.951   5.137 -0.9680  0.0366  0.2214
   54MOL    H6710773   2.662   4.702   5.292 -1.2919 -0.4030  0.7743
   54MOL    H6810774   2.681   4.734   5.458  1.2333  0.0764  0.1004
   54MOL    H6910775   2.889   4.887   5.391 -3.3811  0.5127  0.8797
   54MOL    H7010776   2.902   4.967   5.037  1.1267 -1.5127 -0.1431
   54MOL    H7110777   2.921   5.029   5.199 -0.1980 -1.2778  1.7472
   54MOL    C7210778   2.935   4.676   5.370 -1.2169  0.1470 -0.8204
   54MOL    C7310779   3.013   4.677   5.504 -0.2734  0.4362  0.4517
   54MOL    C7410780   3.140   4.770   5.491  0.5352  0.1431  0.1407
   54MOL    O7510781   3.238   4.732   5.421 -0.4640  0.2187  0.3936
   54MOL    N7610782   3.143   4.887   5.548 -0.2332 -0.1322  0.5827
   54MOL    H7710783   3.010   4.655   5.294 -2.2521 -1.3563 -1.4506
   54MOL    H7810784   2.864   4.594   5.363  0.2173 -1.0575 -1.5324
   54MOL    H7910785   2.950   4.728   5.577 -1.8847  0.4411 -0.9325
   54MOL    H8010786   3.058   4.919   5.591 -1.5230 -2.9367  0.2468
   54MOL    H8110787   3.227   4.942   5.547 -0.0169 -0.4543  0.9323
   54MOL    C8210788   3.039   4.533   5.544  0.6545 -0.1969  0.1737
   54MOL    C8310789   3.155   4.505   5.648 -0.2441  0.3025  0.6958
   54MOL    C8410790   3.178   4.353   5.668  0.1874  0.2944 -0.3294
   54MOL    O8510791   3.093   4.267   5.645 -0.0029 -0.2425  0.0250
   54MOL    N8610792   3.295   4.320   5.715 -0.1199  0.1545 -0.4397
   54MOL    H8710793   3.066   4.467   5.461  1.5130 -0.4761  0.6635
   54MOL    H8810794   2.944   4.492   5.579  0.0434 -0.8595 -2.1932
   54MOL    H8910795   3.248   4.538   5.602 -0.0850 -1.0500  0.0301
   54MOL    H9010796   3.316   4.221   5.719 -0.3875  0.0504 -1.3786
   54MOL    H9110797   3.355   4.399   5.730 -2.3431  1.9600 -0.7801
   54MOL    C9210798   3.122   4.573   5.787  0.0056 -0.5748  0.0727
   54MOL    C9310799   3.228   4.675   5.847 -0.6562 -0.1599 -0.2566
   54MOL    C9410800   3.376   4.619   5.828  0.2661 -0.4764 -0.1655
   54MOL    O9510801   3.418   4.522   5.894 -0.3373 -0.3371 -0.0739
   54MOL    N9610802   3.460   4.684   5.751  0.0283  0.0274 -0.1597
   54MOL    H9710803   3.094   4.495   5.858 -3.4933 -0.2072 -0.8098
   54MOL    H9810804   3.027   4.626   5.780  0.4244  0.0697 -0.8075
   54MOL    H9910805   3.218   4.775   5.805  0.8819 -0.3657 -1.1451
   54MOL   H10010806   3.552   4.652   5.726 -0.1003 -1.7430  1.4996
   54MOL   H10110807   3.423   4.771   5.716  2.6019  1.2534  0.0876
   54MOL   C10210808   3.204   4.688   5.999 -0.2484  0.6154 -0.2823
   54MOL   C10310809   3.263   4.806   6.084 -0.1133 -0.0486  0.0436
   54MOL   C10410810   3.177   4.933   6.062  0.3979 -0.3484 -0.1235
   54MOL   O10510811   3.190   5.013   5.972 -0.0565  0.6934  0.4085
   54MOL   N10610812   3.088   4.953   6.155  0.0465 -0.6382 -0.3141
   54MOL   H10710813   3.236   4.599   6.053 -1.6690  0.6723  0.6551
   54MOL   H10810814   3.097   4.678   6.015  0.0299 -0.0659  1.2377
   54MOL   H10910815   3.247   4.772   6.186  1.5528 -3.2438 -0.6932
   54MOL   H11010816   3.015   5.017   6.129 -0.4106  0.3091  3.0441
   54MOL   H11110817   3.072   4.885   6.228  1.6567 -0.4566  0.2273
   54MOL   C11210818   3.418   4.839   6.070  0.8131  1.3639  0.7426
   54MOL   C11310819   3.478   4.935   6.173 -0.2915  0.2042 -0.2988
   54MOL   C11410820   3.622   4.961   6.128  0.2032  0.7324 -0.5041
   54MOL   O11510821   3.711   4.886   6.148  0.5789  0.2049 -0.2271
   54MOL   N11610822   3.641   5.073   6.060  0.5606 -0.2235  0.8141
   54MOL   H11710823   3.431   4.880   5.970  1.4310  0.3968  0.4193
   54MOL   H11810824   3.482   4.751   6.066  1.8968  2.1691  0.2451
   54MOL   H11910825   3.420   5.025   6.152  1.5940  1.5885  0.1828
   54MOL   H12010826   3.558   5.130   6.051  1.1505  0.3835 -1.0925
   54MOL   H12110827   3.725   5.097   6.008  1.1362 -2.1179  0.8486
   54MOL   C12210828   3.463   4.887   6.322 -0.3837  0.8982 -0.6778
   54MOL   C12310829   3.470   4.994   6.433  0.0804  0.1569  0.3030
   54MOL   C12410830   3.452   4.935   6.575  0.0073 -0.9095 -0.9107
   54MOL   O12510831   3.350   4.890   6.610  0.1209  0.5323 -0.9789
   54MOL   N12610832   3.550   4.945   6.659 -0.0381  0.3108  0.5103
   54MOL   H12710833   3.534   4.808   6.347 -0.6805  0.8182 -0.0611
   54MOL   H12810834   3.364   4.844   6.334 -0.1555  0.0564 -1.7431
   54MOL   H12910835   3.565   5.044   6.413  0.2452  0.5521  1.9786
   54MOL   H13010836   3.637   4.967   6.612 -1.3229 -0.4474 -2.3576
   54MOL   H13110837   3.541   4.899   6.748  0.3947 -0.9872 -0.0992
   54MOL   C13210838   3.359   5.105   6.424 -0.3758 -0.4052  0.0666
   54MOL   C13310839   3.375   5.224   6.527  0.2789 -0.3025  0.3564
   54MOL   C13410840   3.251   5.231   6.620  0.6498 -0.8312  0.1399
   54MOL   O13510841   3.197   5.338   6.637  0.3415 -0.5454 -0.2689
   54MOL   N13610842   3.211   5.124   6.686 -0.4524 -0.0202  0.5239
   54MOL   H13710843   3.261   5.059   6.432 -1.0999  1.1444  0.2223
   54MOL   H13810844   3.365   5.148   6.324 -0.4967  0.9743  0.6356
   54MOL   H13910845   3.459   5.204   6.593 -0.4918 -0.1730  1.3876
   54MOL   H14010846   3.257   5.036   6.673 -0.7402 -0.1168  0.1429
   54MOL   H14110847   3.131   5.137   6.747 -0.4250  0.6858  0.4129
   54MOL   C14210848   3.410   5.351   6.453  0.1877 -0.0841  0.0638
   54MOL   C14310849   3.531   5.348   6.360  0.2676  0.3347 -0.3672
   54MOL   C14410850   3.662   5.328   6.439 -0.4821 -0.1188  0.6686
   54MOL   O14510851   3.682   5.387   6.543 -0.0391  0.0074  0.5550
   54MOL   N14610852   3.741   5.230   6.396 -0.4253 -0.4281 -0.6572
   54MOL   H14710853   3.428   5.421   6.535 -0.1831  2.1956 -1.7471
   54MOL   H14810854   3.321   5.378   6.397  0.6661  0.8169 -0.2711
   54MOL   H14910855   3.526   5.262   6.293 -0.2860  0.7732 -0.8855
   54MOL   H15010856   3.738   5.198   6.300 -0.3904  1.0960 -1.1829
   54MOL   H15110857   3.822   5.219   6.456 -1.0132 -1.1684 -0.0028
   54MOL   C15210858   3.544   5.477   6.274  0.2496 -0.0724 -0.0548
   54MOL   C15310859   3.424   5.493   6.171  0.0648  0.8914 -0.3983
   54MOL   C15410860   3.377   5.367   6.095 -0.4559 -0.0106  0.0605
   54MOL   O15510861   3.469   5.302   6.042 -0.0834  0.7311 -0.4969
   54MOL   N15610862   3.248   5.338   6.087  0.1246  0.1944  0.0670
   54MOL   H15710863   3.632   5.459   6.213  0.8102 -1.6797  1.1855
   54MOL   H15810864   3.555   5.569   6.331  1.6588 -0.6867  0.6945
   54MOL   H15910865   3.333   5.524   6.223  0.9619  2.1930  0.4519
   54MOL   H16010866   3.215   5.263   6.029  0.7222 -0.0969  0.1041
   54MOL   H16110867   3.177   5.385   6.142 -0.3883 -3.0228  2.2446
   54MOL   C16210868   3.454   5.603   6.067 -0.4898 -0.1696  0.7662
   54MOL   C16310869   3.327   5.687   6.020 -0.4071  0.1957 -0.4751
   54MOL   C16410870   3.321   5.723   5.870  0.0400 -0.2619  0.0544
   54MOL   O16510871   3.417   5.785   5.826 -0.1973 -0.7329  0.6704
   54MOL   N16610872   3.229   5.670   5.796  0.2044  0.0221  0.0078
   54MOL   H16710873   3.508   5.551   5.988  0.1310  0.6888  0.6143
   54MOL   H16810874   3.522   5.678   6.107  0.8426  0.0704 -1.8239
   54MOL   H16910875   3.238   5.627   6.041  0.0291 -0.4180 -0.3461
   54MOL   H17010876   3.231   5.699   5.700 -1.4805 -1.4385 -0.4937
   54MOL   H17110877   3.151   5.617   5.834  1.2683 -1.0507  0.7550
   54MOL   C17210878   3.316   5.819   6.101 -0.1556  0.2864 -0.1123
   54MOL   C17310879   3.176   5.874   6.138  0.2205  0.4594 -0.2002
   54MOL   C17410880   3.110   5.932   6.010  0.2986  0.3774  0.6190
   54MOL   O17510881   3.159   6.034   5.954  0.5775 -0.5540  0.3933
   54MOL   N17610882   3.013   5.865   5.955 -0.0161 -0.0663  0.3655
   54MOL   H17710883   3.389   5.896   6.076 -1.7794  2.3430  1.3836
   54MOL   H17810884   3.355   5.796   6.201  0.0827  2.1523  0.2379
   54MOL   H17910885   3.116   5.783   6.147 -0.9163  0.9435 -2.3317
   54MOL   H18010886   2.985   5.776   5.994 -0.4222 -0.2252 -0.2832
   54MOL   H18110887   2.949   5.910   5.891 -1.0421 -1.4340  0.4094
   54MOL   C18210888   3.158   5.950   6.273 -0.2177 -0.5549 -0.3578
   54MOL   C18310889   3.179   6.099   6.275 -0.2150  0.0550 -0.0189
   54MOL   C18410890   3.317   6.134   6.228  0.0848  0.2208  0.3500
   54MOL   O18510891   3.416   6.100   6.291  0.4996 -0.5399 -0.4379
   54MOL   N18610892   3.328   6.199   6.112 -0.1267  0.0313  0.6647
   54MOL   H18710893   3.207   5.898   6.355 -1.2387  0.3310  0.8420
   54MOL   H18810894   3.052   5.938   6.298 -0.5921  0.4271 -1.4418
   54MOL   H18910895   3.118   6.149   6.201  2.8628  1.1433 -1.9025
   54MOL   H19010896   3.418   6.213   6.069 -0.1408  3.0088  1.4892
   54MOL   H19110897   3.250   6.187   6.049  1.9327  0.0755 -1.9634
   54MOL   C19210898   3.136   6.156   6.411 -0.7158 -0.2613  0.1305
   54MOL   C19310899   3.053   6.291   6.407 -0.5018  0.6725  0.8950
   54MOL   C19410900   3.136   6.411   6.364 -0.5363 -0.0641  0.2998
   54MOL   O19510901   3.113   6.466   6.256  0.2034  0.1153  0.2170
   54MOL   N19610902   3.223   6.456   6.456 -0.2619  0.1308  0.1833
   54MOL   H19710903   3.218   6.165   6.482 -1.7842 -0.7447  1.4498
   54MOL   H19810904   3.079   6.082   6.467 -1.6248  0.4348  0.1476
   54MOL   H19910905   2.977   6.295   6.329 -2.5901  1.0263  2.8944
   54MOL   H20010906   3.229   6.397   6.538  2.6064  1.5674  1.0476
   54MOL   H20110907   3.293   6.525   6.434 -1.6413  1.4169 -0.2532
   54MOL   H20210908   3.004   6.319   6.500  0.2569  2.5823  0.7369
   55MOL     C110909   1.296   4.083   6.492 -0.0855 -0.3528 -0.2310
   55MOL     C210910   1.210   4.006   6.401 -0.2662 -0.2293 -0.3593
   55MOL     C310911   1.068   4.076   6.384 -0.0534  0.2552  0.3582
   55MOL     O410912   0.993   4.079   6.476  0.4200  0.3044 -0.3835
   55MOL     N510913   1.044   4.140   6.274  0.1501  0.2710 -0.4545
   55MOL     H610914   1.263   4.074   6.595  1.5526 -0.0248  0.3355
   55MOL     H710915   1.395   4.037   6.500 -0.5677 -1.8331 -2.1876
   55MOL     H810916   1.258   4.000   6.303 -2.6367  0.7120 -1.6207
   55MOL     H910917   0.956   4.189   6.265 -1.0657 -1.7071  0.1170
   55MOL    H1010918   1.104   4.130   6.194  0.1726  0.5095 -0.4664
   55MOL    H1110919   1.306   4.188   6.464  1.6161 -0.7893 -1.3912
   55MOL    C1210920   1.201   3.865   6.455  0.1554 -0.5629 -0.7170
   55MOL    C1310921   1.199   3.746   6.362 -0.0143  0.3509 -0.1308
   55MOL    C1410922   1.073   3.737   6.270 -0.1956  0.7730 -0.1255
   55MOL    O1510923   0.968   3.707   6.323 -0.1052  0.4703 -0.2615
   55MOL    N1610924   1.079   3.772   6.140 -0.5768 -0.6184  0.6174
   55MOL    H1710925   1.109   3.864   6.513  0.0001  1.4572 -0.8987
   55MOL    H1810926   1.285   3.846   6.522 -0.2102  0.0100 -0.1004
   55MOL    H1910927   1.278   3.765   6.289  0.0316 -0.3032 -0.2583
   55MOL    H2010928   1.170   3.798   6.104 -0.0454 -1.8140  1.0582
   55MOL    H2110929   1.002   3.783   6.077  0.7103 -1.6109 -1.1907
   55MOL    C2210930   1.193   3.608   6.439 -0.5528 -0.1598 -0.0643
   55MOL    C2310931   1.322   3.567   6.522  0.3580  0.6333 -0.3017
   55MOL    C2410932   1.348   3.417   6.520  0.0591  0.2598  0.3669
   55MOL    O2510933   1.276   3.334   6.585  0.3654 -0.1031 -0.6101
   55MOL    N2610934   1.445   3.374   6.440 -0.4128  1.1288  0.2587
   55MOL    H2710935   1.186   3.529   6.364  0.4638 -1.4549  1.1891
   55MOL    H2810936   1.103   3.591   6.498 -0.6580  2.2927  0.5227
   55MOL    H2910937   1.410   3.615   6.480  1.2091 -1.2427 -0.6830
   55MOL    H3010938   1.481   3.439   6.371  1.3998  0.3374  0.4372
   55MOL    H3110939   1.468   3.277   6.422 -1.9649  1.0318 -1.3400
   55MOL    C3210940   1.317   3.609   6.668  0.7116 -0.4075 -0.5830
   55MOL    C3310941   1.448   3.643   6.742 -0.1981  0.2555 -0.5561
   55MOL    C3410942   1.520   3.773   6.680  0.4348  0.2187 -0.5031
   55MOL    O3510943   1.595   3.763   6.582  0.4695  0.6885 -0.6588
   55MOL    N3610944   1.515   3.886   6.753  0.1632 -0.7814  0.3188
   55MOL    H3710945   1.266   3.539   6.735  0.8343  1.1507  1.1894
   55MOL    H3810946   1.257   3.699   6.681 -0.6083 -1.1750 -1.3106
   55MOL    H3910947   1.411   3.674   6.840  0.5871 -2.1734  0.5654
   55MOL    H4010948   1.555   3.975   6.724 -1.5935 -0.8369 -2.3896
   55MOL    H4110949   1.460   3.885   6.838 -0.3493 -0.8657 -0.0123
   55MOL    C4210950   1.557   3.536   6.772 -0.5068  0.0233  0.2113
   55MOL    C4310951   1.499   3.422   6.851  0.1252  0.7969  0.0793
   55MOL    C4410952   1.486   3.461   6.996 -0.1587  0.9037 -0.0079
   55MOL    O4510953   1.587   3.490   7.061  0.2033 -0.4067  0.2214
   55MOL    N4610954   1.365   3.456   7.048 -0.4226 -0.4635  0.4233
   55MOL    H4710955   1.643   3.574   6.828 -0.5029 -0.3666  0.4741
   55MOL    H4810956   1.603   3.503   6.679 -0.3201 -0.4514  0.4650
   55MOL    H4910957   1.402   3.391   6.813  0.1161  2.8373 -1.6575
   55MOL    H5010958   1.298   3.416   6.984  2.2312 -0.5913 -2.4623
   55MOL    H5110959   1.349   3.476   7.145 -0.9994 -0.6123  0.3590
   55MOL    C5210960   1.590   3.297   6.824 -0.2004 -0.3854 -0.0145
   55MOL    C5310961   1.564   3.169   6.903  0.4772 -0.3247  0.5676
   55MOL    C5410962   1.696   3.106   6.945  0.8633 -0.2464  0.6446
   55MOL    O5510963   1.770   3.069   6.856 -0.0294 -0.5239  0.0588
   55MOL    N5610964   1.728   3.097   7.074  0.1385  0.1989  0.3165
   55MOL    H5710965   1.694   3.330   6.821 -0.5430  0.6163 -1.5388
   55MOL    H5810966   1.577   3.280   6.717  2.2720 -0.2440 -0.3602
   55MOL    H5910967   1.513   3.190   6.997 -0.0157 -0.3895  0.3132
   55MOL    H6010968   1.817   3.054   7.093 -0.3432 -1.8985 -1.8593
   55MOL    H6110969   1.658   3.090   7.146  0.0352 -2.3463 -0.0131
   55MOL    C6210970   1.475   3.070   6.824  0.0963  0.5274 -0.0082
   55MOL    C6310971   1.419   2.957   6.908 -0.0888  0.2811  0.2137
   55MOL    C6410972   1.382   2.836   6.825 -0.2810  0.5897 -0.0131
   55MOL    O6510973   1.337   2.845   6.713  0.0607 -0.0781  0.2279
   55MOL    N6610974   1.421   2.718   6.867  0.6634  0.9398 -0.1299
   55MOL    H6710975   1.527   3.020   6.742  1.0791 -0.4044  1.1409
   55MOL    H6810976   1.400   3.134   6.778  0.1976  2.2516  2.1324
   55MOL    H6910977   1.499   2.929   6.976 -0.3616 -1.6712 -0.2489
   55MOL    H7010978   1.460   2.701   6.959 -2.5059  1.2164  1.3202
   55MOL    H7110979   1.423   2.643   6.800 -0.7798  1.9376 -1.3350
   55MOL    C7210980   1.292   3.007   6.980 -0.0786 -0.2781  0.2242
   55MOL    C7310981   1.162   3.035   6.901  0.5709 -1.2010 -0.1091
   55MOL    C7410982   1.106   3.183   6.914 -0.3902 -0.1886 -0.1364
   55MOL    O7510983   1.146   3.262   7.000 -0.0288  0.2073 -0.1412
   55MOL    N7610984   1.022   3.222   6.825 -0.2214  0.1787  0.0531
   55MOL    H7710985   1.340   3.096   7.022  0.2876 -0.1512 -0.4475
   55MOL    H7810986   1.273   2.943   7.066 -1.2314  0.1973  0.3338
   55MOL    H7910987   1.175   3.022   6.794 -0.5096  1.1416 -0.5675
   55MOL    H8010988   0.986   3.316   6.821  1.6733  0.8676 -1.6187
   55MOL    H8110989   1.002   3.158   6.750  2.0562  1.4373 -1.7198
   55MOL    C8210990   1.052   2.936   6.942  0.2291 -0.8368 -0.2609
   55MOL    C8310991   0.915   2.922   6.874 -0.1733  0.8050 -0.4220
   55MOL    C8410992   0.803   2.983   6.958  1.0830 -0.5194  0.2211
   55MOL    O8510993   0.770   2.939   7.066 -0.0656 -0.4999  0.0274
   55MOL    N8610994   0.724   3.081   6.910  0.1215 -0.5252 -0.2835
   55MOL    H8710995   1.034   2.942   7.050  0.9452  2.4654 -0.2971
   55MOL    H8810996   1.105   2.841   6.931  1.2591 -0.1198 -1.5406
   55MOL    H8910997   0.913   2.969   6.775 -1.1022  0.7370 -0.4478
   55MOL    H9010998   0.642   3.105   6.964  1.3112 -1.1089  1.8286
   55MOL    H9110999   0.747   3.132   6.826  2.6919  1.6569  1.6459
   55MOL    C9211000   0.881   2.773   6.856 -0.0082  0.0597 -0.5065
   55MOL    C9311001   0.968   2.684   6.767 -0.1954  0.3995  0.1036
   55MOL    C9411002   0.966   2.726   6.619 -0.3630 -0.5568  0.3517
   55MOL    O9511003   0.864   2.724   6.553  0.0172 -0.6492  0.3312
   55MOL    N9611004   1.084   2.765   6.568 -0.1776  0.5410  0.6452
   55MOL    H9711005   0.775   2.755   6.834 -0.9419  0.5964  3.2402
   55MOL    H9811006   0.890   2.729   6.955 -0.9760 -0.6901 -0.7369
   55MOL    H9911007   1.071   2.679   6.802 -0.6165  0.6290  1.3799
   55MOL   H10011008   1.099   2.776   6.469  1.8062 -0.8344  0.7819
   55MOL   H10111009   1.159   2.780   6.634  1.3961 -1.0633 -0.7209
   55MOL   C10211010   0.933   2.533   6.792  0.7255 -0.2316 -0.5867
   55MOL   C10311011   1.037   2.428   6.756  0.5666  0.7014  0.5954
   55MOL   C10411012   0.963   2.295   6.764  0.0263 -0.4186  0.5341
   55MOL   O10511013   0.928   2.250   6.877  0.3788  0.0810 -0.6049
   55MOL   N10611014   0.933   2.220   6.652 -0.1172  0.1378 -0.1665
   55MOL   H10711015   0.831   2.510   6.763  0.1101  1.9886 -0.2753
   55MOL   H10811016   0.929   2.535   6.901 -1.3794  4.5931 -0.6163
   55MOL   H10911017   1.068   2.432   6.651 -0.7183  0.8781  0.2110
   55MOL   H11011018   0.883   2.132   6.652 -0.8252  0.5251 -2.1293
   55MOL   H11111019   0.969   2.251   6.563  0.8089  0.8829  0.4545
   55MOL   C11211020   1.155   2.421   6.855 -0.2708  0.4725  0.2180
   55MOL   C11311021   1.243   2.291   6.877  0.0835  0.3334 -0.3635
   55MOL   C11411022   1.351   2.333   6.985  0.0566  0.2061 -0.7308
   55MOL   O11511023   1.354   2.290   7.100 -0.2252  0.6530  0.1490
   55MOL   N11611024   1.451   2.407   6.940  0.2285  0.7035  0.8356
   55MOL   H11711025   1.109   2.438   6.952 -0.4603  1.2098  0.0032
   55MOL   H11811026   1.213   2.513   6.850 -0.9151  0.9191  0.8431
   55MOL   H11911027   1.181   2.214   6.923 -0.5550  0.6677 -0.6717
   55MOL   H12011028   1.525   2.446   6.997  1.9253  1.7010 -1.9209
   55MOL   H12111029   1.463   2.425   6.841 -0.7082  2.1862  0.9853
   55MOL   C12211030   1.304   2.230   6.748 -0.3844  1.4911  0.1805
   55MOL   C12311031   1.380   2.097   6.770  0.9351  0.7219  0.2957
   55MOL   C12411032   1.520   2.106   6.713 -0.0257  0.0463 -0.3695
   55MOL   O12511033   1.533   2.112   6.591 -0.1169  0.3058  0.7067
   55MOL   N12611034   1.620   2.091   6.796 -0.5692 -0.4511 -0.1740
   55MOL   H12711035   1.363   2.297   6.686 -1.8441  1.9337 -0.7330
   55MOL   H12811036   1.216   2.206   6.689 -0.2727 -2.3942  1.4365
   55MOL   H12911037   1.386   2.066   6.875  1.8985 -1.2077 -0.3016
   55MOL   H13011038   1.595   2.053   6.886  0.4308 -1.4406 -0.3051
   55MOL   H13111039   1.713   2.125   6.774  1.2044 -1.8433  4.4803
   55MOL   C13211040   1.301   1.988   6.691 -1.2896  0.5641  0.5130
   55MOL   C13311041   1.352   1.844   6.719  0.7033 -0.1060 -0.8387
   55MOL   C13411042   1.374   1.753   6.596 -0.5955  0.1857  0.0430
   55MOL   O13511043   1.320   1.643   6.571  0.6307 -0.0537 -0.0516
   55MOL   N13611044   1.446   1.814   6.498 -0.2034 -0.1565  0.1281
   55MOL   H13711045   1.303   2.020   6.587 -2.0003 -0.7702  0.0799
   55MOL   H13811046   1.196   1.999   6.715 -1.7472  0.8608 -1.5336
   55MOL   H13911047   1.449   1.853   6.769  0.6008  1.3640 -0.8870
   55MOL   H14011048   1.490   1.903   6.515 -0.8949  0.4572 -1.2591
   55MOL   H14111049   1.468   1.765   6.413 -0.9597  0.7631 -0.6081
   55MOL   C14211050   1.266   1.778   6.828  0.3533  0.9216 -0.3615
   55MOL   C14311051   1.329   1.670   6.917 -0.1858 -0.3915 -1.2750
   55MOL   C14411052   1.220   1.573   6.968  0.0403 -0.1043  0.0973
   55MOL   O14511053   1.117   1.614   7.014  0.7559  0.1137 -0.2675
   55MOL   N14611054   1.230   1.448   6.919  0.1861  0.0025  0.7932
   55MOL   H14711055   1.185   1.733   6.771  0.3592  0.5093 -0.0451
   55MOL   H14811056   1.209   1.846   6.891  1.6540  0.5607  1.2510
   55MOL   H14911057   1.392   1.602   6.860 -0.3930 -0.9895 -0.7973
   55MOL   H15011058   1.301   1.427   6.851  1.6522 -0.5347  2.4511
   55MOL   H15111059   1.159   1.382   6.947 -0.2255  0.0691 -0.0862
   55MOL   C15211060   1.424   1.740   7.022 -0.1984  0.1195  0.1932
   55MOL   C15311061   1.473   1.672   7.153  0.2606 -0.1404  0.0367
   55MOL   C15411062   1.375   1.668   7.271  0.4520  0.1781  0.4940
   55MOL   O15511063   1.309   1.762   7.297 -0.6373 -0.0765 -0.5266
   55MOL   N15611064   1.351   1.551   7.330 -0.2201  0.1823  0.6531
   55MOL   H15711065   1.360   1.823   7.053  0.0260  0.3080  0.1543
   55MOL   H15811066   1.510   1.781   6.969 -1.2788  1.5392 -0.5052
   55MOL   H15911067   1.490   1.568   7.124 -0.6356 -0.0372 -0.8853
   55MOL   H16011068   1.263   1.539   7.379  0.7466  0.4057  2.4848
   55MOL   H16111069   1.418   1.478   7.314  0.9664  1.8670 -2.6262
   55MOL   C16211070   1.617   1.731   7.194 -0.4449 -0.1861  0.0272
   55MOL   C16311071   1.627   1.870   7.275 -0.3337 -0.2632 -0.1386
   55MOL   C16411072   1.562   1.983   7.187  0.0319  0.6648 -0.2270
   55MOL   O16511073   1.605   2.008   7.074 -0.1615  0.3651 -0.5796
   55MOL   N16611074   1.474   2.060   7.249 -0.4068 -0.3695  0.4369
   55MOL   H16711075   1.682   1.739   7.107  2.2798 -2.5580  1.7803
   55MOL   H16811076   1.659   1.658   7.263 -0.2882 -1.0161 -0.9318
   55MOL   H16911077   1.578   1.863   7.372 -0.2044 -0.1340 -0.0649
   55MOL   H17011078   1.413   2.034   7.324  0.3928 -0.5450  1.0393
   55MOL   H17111079   1.444   2.135   7.189  0.5806 -0.7372 -0.5415
   55MOL   C17211080   1.780   1.905   7.305 -0.5429 -0.8931  0.6114
   55MOL   C17311081   1.808   1.977   7.441  0.6097 -0.4598  0.6216
   55MOL   C17411082   1.758   2.123   7.444 -0.2484  0.6667 -0.8248
   55MOL   O17511083   1.803   2.202   7.365 -0.2648  0.1382  0.2602
   55MOL   N17611084   1.674   2.166   7.538  0.0274  0.2493  0.0964
   55MOL   H17711085   1.817   1.964   7.221 -1.0822  0.3509  1.2271
   55MOL   H17811086   1.831   1.810   7.293  1.1740  0.2112 -1.1739
   55MOL   H17911087   1.746   1.928   7.515 -2.2393  0.1381 -1.2727
   55MOL   H18011088   1.651   2.113   7.621 -0.0057 -0.9585 -0.6782
   55MOL   H18111089   1.638   2.261   7.538  1.8659  0.9765  1.2830
   55MOL   C18211090   1.957   1.984   7.478  1.2576  1.0877  0.2624
   55MOL   C18311091   2.038   1.846   7.470 -0.7758 -0.5945 -0.2963
   55MOL   C18411092   1.970   1.727   7.535  0.2736  0.7590 -0.2704
   55MOL   O18511093   1.931   1.732   7.651  0.0462 -0.4677 -1.0548
   55MOL   N18611094   1.949   1.626   7.450  0.3207  0.0979  0.0464
   55MOL   H18711095   1.968   2.028   7.577  1.5061 -3.1582  2.2370
   55MOL   H18811096   2.016   2.054   7.419  1.7680 -0.1388 -0.7076
   55MOL   H18911097   2.057   1.829   7.364 -0.5327  1.1174 -0.5519
   55MOL   H19011098   1.895   1.548   7.482  0.3100 -0.9593 -2.4192
   55MOL   H19111099   1.976   1.633   7.352 -0.8271  0.3454 -0.2637
   55MOL   C19211100   2.182   1.860   7.525  0.0650  0.5436  1.1243
   55MOL   C19311101   2.208   1.831   0.017  0.0701 -0.5138 -0.1714
   55MOL   C19411102   2.174   1.952   0.111  0.5068  0.8353  0.7128
   55MOL   O19511103   2.239   2.061   0.113  0.1667  0.1450 -0.1920
   55MOL   N19611104   2.059   1.933   0.177  0.1473 -0.3356  0.2688
   55MOL   H19711105   2.210   1.964   7.509 -1.3178  0.6870 -0.5989
   55MOL   H19811106   2.246   1.795   7.465  0.4917  1.0397  1.0445
   55MOL   H19911107   2.161   1.741   0.055 -1.4615 -0.6815 -2.3821
   55MOL   H20011108   2.016   2.008   0.230  1.7916  0.6333  0.2769
   55MOL   H20111109   2.000   1.851   0.167  0.0200 -0.2803  0.5527
   55MOL   H20211110   2.316   1.829   0.031 -0.0318  1.8897  1.4084
   56MOL     C111111   3.302   0.350   0.628 -0.3359  0.2317  0.0343
   56MOL     C211112   3.391   0.224   0.608  0.9861 -0.8175 -0.0166
   56MOL     C311113   3.526   0.269   0.550 -0.0753 -0.1577 -0.0161
   56MOL     O411114   3.527   0.330   0.444  0.2191 -0.1627  0.1839
   56MOL     N511115   3.641   0.252   0.617  0.3324 -0.2063 -0.2411
   56MOL     H611116   3.252   0.379   0.535 -0.3246 -0.8993 -0.3261
   56MOL     H711117   3.221   0.338   0.699  0.4173  1.0929  1.0505
   56MOL     H811118   3.404   0.167   0.700 -1.4423 -0.8396  0.3558
   56MOL     H911119   3.645   0.215   0.711 -0.7358 -0.8100 -0.4191
   56MOL    H1011120   3.725   0.288   0.575  0.6102  1.6747  1.8549
   56MOL    H1111121   3.363   0.435   0.662 -0.8952 -0.0292  1.7127
   56MOL    C1211122   3.318   0.128   0.510  0.1685  0.4598  0.1569
   56MOL    C1311123   3.372   7.639   0.517 -0.3733 -0.7616 -0.1970
   56MOL    C1411124   3.341   7.573   0.652  0.7487 -0.2244  0.4893
   56MOL    O1511125   3.429   7.542   0.730 -0.5185 -0.1551 -0.3006
   56MOL    N1611126   3.210   7.541   0.665  0.7079 -0.4535 -0.8348
   56MOL    H1711127   3.314   0.174   0.411  4.3290  0.1464 -0.2523
   56MOL    H1811128   3.212   0.124   0.534  0.0055 -0.3201 -0.6588
   56MOL    H1911129   3.310   7.576   0.452  0.5048 -0.9182 -0.9049
   56MOL    H2011130   3.151   7.561   0.586 -0.8804 -3.4601 -0.4649
   56MOL    H2111131   3.171   7.523   0.756 -0.9200  1.8632 -1.0567
   56MOL    C2211132   3.515   7.609   0.465  0.5352 -0.3200  0.7186
   56MOL    C2311133   3.539   0.005   0.319  0.2702  0.0640  0.1712
   56MOL    C2411134   3.465   7.570   0.216 -0.1819  0.2845  1.1111
   56MOL    O2511135   3.505   7.457   0.193 -0.1212 -0.7173 -0.2240
   56MOL    N2611136   3.370   7.621   0.145  0.7407 -1.3438  0.0667
   56MOL    H2711137   3.533   7.501   0.472 -0.4027 -0.3867  2.4189
   56MOL    H2811138   3.585   0.000   0.534  0.4434  1.4788 -0.4171
   56MOL    H2911139   3.496   0.105   0.314  1.5784  0.6344 -0.0864
   56MOL    H3011140   3.312   7.565   0.084  0.1538 -1.4861  0.7447
   56MOL    H3111141   3.332   0.056   0.159 -0.6601 -2.3245  2.9027
   56MOL    C3211142   3.694   0.015   0.297 -0.2464 -0.6170 -0.0372
   56MOL    C3311143   3.751   0.040   0.149 -0.3562  0.2374  0.1927
   56MOL    C3411144   3.835   7.580   0.097  0.0201  0.1923 -0.0664
   56MOL    O3511145   3.937   7.533   0.143 -0.0393 -0.1323  0.2459
   56MOL    N3611146   3.786   7.522   7.653  0.2999 -0.1790 -0.2890
   56MOL    H3711147   3.753   7.596   0.350  0.9095  0.1044 -0.2711
   56MOL    H3811148   3.728   0.103   0.350 -0.9388 -0.5822  0.3557
   56MOL    H3911149   3.667   0.061   0.083  0.0332  0.8860 -0.1000
   56MOL    H4011150   3.824   7.433   7.624 -0.3913  0.2013 -2.4694
   56MOL    H4111151   3.699   7.561   7.620  0.1997  0.7966  1.1185
   56MOL    C4211152   3.842   0.170   0.136  0.4817 -0.3981 -0.1694
   56MOL    C4311153   3.776   0.310   0.153 -0.2241  0.4494  0.3765
   56MOL    C4411154   3.664   0.340   0.046  0.2033  0.8077  0.3910
   56MOL    O4511155   3.696   0.370   7.583 -0.1997 -0.1209 -0.1206
   56MOL    N4611156   3.538   0.318   0.083 -0.2258  0.4588 -0.2822
   56MOL    H4711157   3.884   0.162   0.035  1.4178 -1.5428  0.3085
   56MOL    H4811158   3.926   0.167   0.206 -0.5903 -0.1513  1.1411
   56MOL    H4911159   3.722   0.310   0.248 -1.9117  1.8761 -0.5640
   56MOL    H5011160   3.463   0.345   0.020 -0.7045 -0.1119  0.0435
   56MOL    H5111161   3.513   0.310   0.180  0.4563  1.2382 -0.0404
   56MOL    C5211162   3.884   0.424   0.157 -0.0115  0.5586  0.4415
   56MOL    C5311163   3.949   0.461   0.297  0.2297  0.4880  0.8168
   56MOL    C5411164   3.846   0.489   0.409  0.6619 -0.1948 -0.3625
   56MOL    O5511165   3.850   0.424   0.517 -0.1269 -0.7082 -0.1481
   56MOL    N5611166   3.749   0.575   0.386  0.3618  0.3198  0.4199
   56MOL    H5711167   3.839   0.520   0.129 -2.4264  0.5551  3.9918
   56MOL    H5811168   3.957   0.400   0.079  0.1906 -0.4245  0.9234
   56MOL    H5911169   3.994   0.369   0.334  1.2614  0.9304  0.6833
   56MOL    H6011170   3.740   0.601   0.289  0.5855 -0.3535  0.2228
   56MOL    H6111171   3.694   0.601   0.467 -0.7749  1.4193 -0.6650
   56MOL    C6211172   4.060   0.570   0.283 -0.8434 -0.0787  0.6206
   56MOL    C6311173   4.024   0.724   0.240 -0.5800 -0.7667 -0.1721
   56MOL    C6411174   4.111   0.780   0.128 -0.3640  0.5068  0.3375
   56MOL    O6511175   4.056   0.834   0.037  0.3452 -0.3416  0.0908
   56MOL    N6611176   4.237   0.746   0.124  0.2376 -0.2599  0.3809
   56MOL    H6711177   4.133   0.524   0.217 -1.6694 -1.1486  0.4369
   56MOL    H6811178   4.106   0.576   0.382 -0.2652 -0.6753  0.3849
   56MOL    H6911179   3.927   0.734   0.191 -0.3720  1.9727 -0.0768
   56MOL    H7011180   4.282   0.709   0.207  1.1353 -1.8924 -0.7945
   56MOL    H7111181   4.280   0.759   0.033  0.3346  1.3690  0.6546
   56MOL    C7211182   4.009   0.822   0.359 -0.2687  0.0112 -0.3689
   56MOL    C7311183   3.936   0.949   0.329  0.1709 -0.2724  1.0283
   56MOL    C7411184   3.976   1.062   0.431  0.3372 -0.2129 -0.2982
   56MOL    O7511185   3.927   1.068   0.542  0.3403  0.0038 -0.0171
   56MOL    N7611186   4.066   1.144   0.388 -0.9973  0.2913 -0.3481
   56MOL    H7711187   4.104   0.842   0.407 -1.4438 -0.4103  2.2218
   56MOL    H7811188   3.955   0.764   0.434  2.6687 -0.1708  1.6446
   56MOL    H7911189   3.970   0.980   0.230  0.3842 -4.7121 -0.4028
   56MOL    H8011190   4.077   1.214   0.459 -1.1654 -0.2624  0.2255
   56MOL    H8111191   4.110   1.149   0.297  1.7679  1.1552  0.9761
   56MOL    C8211192   3.774   0.931   0.328 -0.8094  0.3319  0.3340
   56MOL    C8311193   3.685   1.039   0.258 -0.5425  0.2001 -0.1442
   56MOL    C8411194   3.555   1.062   0.324 -0.3173  0.2330 -0.0473
   56MOL    O8511195   3.513   1.168   0.352  0.4723  0.1779 -0.0699
   56MOL    N8611196   3.481   0.957   0.357 -0.1398  0.6854 -0.1449
   56MOL    H8711197   3.754   0.942   0.434  2.5520 -0.6633  1.1175
   56MOL    H8811198   3.737   0.831   0.303 -1.5570  0.2761  1.6497
   56MOL    H8911199   3.733   1.136   0.253 -0.3727  0.0398 -2.1780
   56MOL    H9011200   3.382   0.958   0.380  0.1206 -2.0781  1.3636
   56MOL    H9111201   3.529   0.870   0.340  1.1008  1.7027 -2.0267
   56MOL    C9211202   3.654   1.004   0.117  0.1977 -0.0849 -0.3153
   56MOL    C9311203   3.770   0.998   0.009 -0.4151 -0.5234  0.6119
   56MOL    C9411204   3.857   1.123   7.655 -0.6048  0.2170  0.5003
   56MOL    O9511205   3.810   1.232   7.650 -0.4705  0.7485  0.0466
   56MOL    N9611206   3.984   1.105   7.653 -0.2445  0.2022 -0.4768
   56MOL    H9711207   3.589   1.076   0.067  1.0212  2.5968  2.3892
   56MOL    H9811208   3.611   0.903   0.116 -2.8888  1.1699 -0.3611
   56MOL    H9911209   3.840   0.915   0.021 -0.2647 -0.6332 -0.9188
   56MOL   H10011210   4.049   1.182   7.647  1.3464 -0.9285  1.4748
   56MOL   H10111211   4.015   1.008   7.650  2.2814  0.9331  0.6451
   56MOL   C10211212   3.692   0.979   7.528  0.0260  0.2109 -0.0888
   56MOL   C10311213   3.783   0.943   7.408  0.1352 -0.2380 -0.1242
   56MOL   C10411214   3.709   0.966   7.281 -0.5404 -0.4737  0.1260
   56MOL   O10511215   3.642   0.876   7.227  0.4220  0.3020 -0.8493
   56MOL   N10611216   3.722   1.088   7.229 -0.3548  0.1831 -0.7120
   56MOL   H10711217   3.636   1.065   7.491 -0.7309  0.1772  0.9631
   56MOL   H10811218   3.611   0.907   7.545  1.1982 -1.1293 -0.1039
   56MOL   H10911219   3.870   1.008   7.414  0.0276  0.0612 -1.6078
   56MOL   H11011220   3.696   1.103   7.132  2.0056  2.1190 -1.0767
   56MOL   H11111221   3.784   1.158   7.267 -0.2031  0.3484 -1.2639
   56MOL   C11211222   3.827   0.794   7.411 -0.1574  0.1412  0.5791
   56MOL   C11311223   3.971   0.761   7.376  0.0966 -0.1065 -0.2905
   56MOL   C11411224   4.004   0.771   7.224  0.3922 -0.0334 -0.9210
   56MOL   O11511225   4.117   0.804   7.187  0.0716 -0.0508 -0.0969
   56MOL   N11611226   3.907   0.739   7.139 -0.5445 -0.0353 -0.3590
   56MOL   H11711227   3.756   0.725   7.364  0.4667  0.7980 -1.3920
   56MOL   H11811228   3.819   0.766   7.516 -0.3585  1.8856  1.0303
   56MOL   H11911229   4.037   0.838   7.415 -0.6240 -0.0138  0.7673
   56MOL   H12011230   3.812   0.742   7.172  0.0157 -1.4868  1.4863
   56MOL   H12111231   3.924   0.728   7.040 -1.2750 -0.1691 -0.4763
   56MOL   C12211232   4.002   0.615   7.437  1.0554 -0.8111  1.1629
   56MOL   C12311233   4.147   0.553   7.422  0.1685 -0.2688  0.2024
   56MOL   C12411234   4.146   0.472   7.288  0.2472  0.6557  0.2027
   56MOL   O12511235   4.048   0.396   7.256  0.8591  0.2823  0.6129
   56MOL   N12611236   4.257   0.483   7.213 -0.6575  0.7086  0.3254
   56MOL   H12711237   3.926   0.541   7.412  0.6781 -0.4141  1.1094
   56MOL   H12811238   3.992   0.618   7.545  2.3942  0.9589  1.2704
   56MOL   H12911239   4.233   0.619   7.419  0.6591 -0.8896  0.5977
   56MOL   H13011240   4.268   0.433   7.126 -0.5884 -1.7778  1.7226
   56MOL   H13111241   4.324   0.557   7.231  0.0937  0.1632 -0.1899
   56MOL   C13211242   4.174   0.459   7.540 -0.0324 -0.2494  0.3571
   56MOL   C13311243   4.308   0.383   7.547  0.1091  0.3851 -0.7225
   56MOL   C13411244   4.429   0.481   7.543 -0.2682  0.1568 -0.4519
   56MOL   O13511245   4.442   0.569   7.628  0.0196 -0.2770 -0.2737
   56MOL   N13611246   4.518   0.470   7.450  0.5154  0.7534 -0.1672
   56MOL   H13711247   4.088   0.393   7.553 -0.6999  0.6481  0.5055
   56MOL   H13811248   4.170   0.540   7.613 -3.4749  1.8187 -1.9536
   56MOL   H13911249   4.310   0.337   7.645  1.9948  1.0750 -0.4194
   56MOL   H14011250   4.525   0.385   7.395 -1.5802 -0.1880  0.9755
   56MOL   H14111251   4.566   0.557   7.432  2.5348 -0.1021  0.9444
   56MOL   C14211252   4.323   0.251   7.449  0.3362 -0.3361 -0.4007
   56MOL   C14311253   4.219   0.142   7.478 -0.0533  0.3759 -0.7712
   56MOL   C14411254   4.252   0.071   7.608  0.3249 -0.5635  0.2639
   56MOL   O14511255   4.356   0.010   7.623  0.0893  0.6081  0.3789
   56MOL   N14611256   4.156   0.078   0.038 -0.5923 -0.7041 -0.5132
   56MOL   H14711257   4.423   0.210   7.463  0.0073 -0.9045  0.3778
   56MOL   H14811258   4.310   0.270   7.343 -0.2130 -1.0266 -0.4582
   56MOL   H14911259   4.122   0.190   7.485 -1.0069 -1.7819  1.1079
   56MOL   H15011260   4.159   0.021   0.121 -1.3978 -0.0709 -0.0333
   56MOL   H15111261   4.069   0.122   0.008 -0.0527  1.1921  0.6080
   56MOL   C15211262   4.218   0.032   7.367  0.2760 -0.1322 -0.4566
   56MOL   C15311263   4.093   0.021   7.282 -0.5313  0.3514 -0.4490
   56MOL   C15411264   3.982   7.619   7.371  0.3319  0.2015 -0.0970
   56MOL   O15511265   4.002   7.512   7.429  0.6979  0.5692 -0.8204
   56MOL   N15611266   3.868   0.022   7.397  1.1536  0.2230  0.7451
   56MOL   H15711267   4.242   7.592   7.410  1.3857  0.0870 -0.5680
   56MOL   H15811268   4.312   0.044   7.313  0.9322  3.9950  1.3480
   56MOL   H15911269   4.071   0.122   7.249  2.2355  1.0947 -0.1471
   56MOL   H16011270   3.845   0.109   7.351  0.8098 -1.1788 -1.8326
   56MOL   H16111271   3.796   7.639   7.456 -0.8722  3.0642  0.2971
   56MOL   C16211272   4.098   7.570   7.163  0.7373  0.2337 -0.1016
   56MOL   C16311273   4.197   7.590   7.050 -0.0672  0.1452  0.2347
   56MOL   C16411274   4.185   0.081   6.999  0.3731  0.6923  0.2295
   56MOL   O16511275   4.077   0.124   6.947  0.4044 -0.1605 -0.0947
   56MOL   N16611276   4.277   0.168   7.030 -0.3271 -0.5716  0.5210
   56MOL   H16711277   3.997   7.566   7.124  0.8214 -2.3920 -0.1637
   56MOL   H16811278   4.105   7.466   7.196 -0.8360 -0.1478 -0.9411
   56MOL   H16911279   4.299   7.565   7.078 -0.3499 -0.6232  0.5789
   56MOL   H17011280   4.361   0.150   7.083 -0.1476 -0.6048  0.2315
   56MOL   H17111281   4.261   0.259   6.991  0.1472 -1.0697 -0.8866
   56MOL   C17211282   4.154   7.486   6.943  0.0169 -0.7292 -0.2325
   56MOL   C17311283   4.268   7.431   6.859  0.4506  0.0987  0.2884
   56MOL   C17411284   4.321   7.545   6.774 -0.4851 -0.3783  0.3708
   56MOL   O17511285   4.256   7.589   6.678 -0.0962 -0.2096 -0.2075
   56MOL   N17611286   4.436   7.595   6.825 -0.6692  0.4929  0.0486
   56MOL   H17711287   4.082   7.534   6.877 -0.2015 -1.4774 -0.5426
   56MOL   H17811288   4.102   7.402   6.988  0.5589 -1.2962 -0.6495
   56MOL   H17911289   4.342   7.405   6.934  0.2180 -1.2988  0.0342
   56MOL   H18011290   4.485   0.012   6.776  0.6389 -0.6329 -0.3711
   56MOL   H18111291   4.467   7.552   6.911  3.1526  1.1570 -0.9328
   56MOL   C18211292   4.231   7.308   6.767 -0.4959  0.0346 -0.1247
   56MOL   C18311293   4.337   7.186   6.769  0.7803 -0.5340  0.0607
   56MOL   C18411294   4.316   7.087   6.660 -0.0527 -0.2885  0.6274
   56MOL   O18511295   4.209   7.036   6.637 -0.0100  0.3243  0.2249
   56MOL   N18611296   4.424   7.070   6.583 -0.1280  0.4124  0.2786
   56MOL   H18711297   4.206   7.331   6.664 -2.5444 -2.1492 -0.1277
   56MOL   H18811298   4.137   7.270   6.806 -2.1101  0.7111 -3.2198
   56MOL   H18911299   4.429   7.242   6.758 -0.0356  0.9169  0.4695
   56MOL   H19011300   4.423   7.002   6.508 -1.3448 -0.1757  0.8052
   56MOL   H19111301   4.515   7.111   6.597 -0.2254  0.7135  0.0313
   56MOL   C19211302   4.348   7.114   6.910 -0.6063 -0.0339 -0.4368
   56MOL   C19311303   4.423   6.982   6.909 -0.5073 -0.0246  0.2537
   56MOL   C19411304   4.477   6.936   7.046 -0.2530  0.2715  0.1740
   56MOL   O19511305   4.399   6.928   7.144 -0.5484  0.3730 -0.1845
   56MOL   N19611306   4.608   6.902   7.048 -0.5800 -0.2884 -0.5804
   56MOL   H19711307   4.251   7.084   6.951 -1.4575  2.1083 -0.7824
   56MOL   H19811308   4.387   7.179   6.988  0.2986 -0.4987 -0.5064
   56MOL   H19911309   4.360   6.906   6.864 -0.6600  1.0431 -1.3613
   56MOL   H20011310   4.667   6.902   6.966  0.8377  1.8010  0.3848
   56MOL   H20111311   4.640   6.865   7.136 -3.0794 -1.2865 -0.0549
   56MOL   H20211312   4.508   7.001   6.843 -1.6084  0.7203 -0.9689
   57MOL     C111313   2.068   0.761   1.942 -0.5897 -0.4502  0.5615
   57MOL     C211314   1.999   0.856   1.837 -0.4458 -0.3603 -0.5560
   57MOL     C311315   1.862   0.799   1.786  0.0015  0.0297  0.6476
   57MOL     O411316   1.844   0.681   1.757  0.5928 -0.4771 -0.8318
   57MOL     N511317   1.761   0.882   1.779 -0.2601  0.5608 -0.2044
   57MOL     H611318   2.145   0.824   1.988  0.8838  0.5991 -3.1869
   57MOL     H711319   1.997   0.719   2.013  3.1032 -0.9337  4.1596
   57MOL     H811320   1.972   0.949   1.886  2.5457 -0.0706  0.6643
   57MOL     H911321   1.766   0.979   1.810  0.6965  0.2474  0.6592
   57MOL    H1011322   1.674   0.847   1.742  0.1154  1.5617 -2.0970
   57MOL    H1111323   2.116   0.678   1.891  0.6395  0.2416  0.5620
   57MOL    C1211324   2.098   0.888   1.717 -0.4424 -0.3363 -0.5377
   57MOL    C1311325   2.055   1.005   1.623 -0.2143  0.6222 -0.3122
   57MOL    C1411326   2.022   0.951   1.482 -0.3552  0.5698  0.3957
   57MOL    O1511327   2.120   0.926   1.408  0.4534  0.4267 -0.4215
   57MOL    N1611328   1.895   0.933   1.435 -0.0518 -0.3818  0.6875
   57MOL    H1711329   2.126   0.805   1.652  1.8481 -0.6565  0.8037
   57MOL    H1811330   2.189   0.929   1.763 -1.4834  0.2567  1.0301
   57MOL    H1911331   1.957   1.044   1.651 -0.7799  0.5954 -2.1738
   57MOL    H2011332   1.817   0.951   1.497  1.3180  2.3849  1.6783
   57MOL    H2111333   1.876   0.914   1.337 -0.1718 -2.1878  1.0401
   57MOL    C2211334   2.159   1.119   1.623  0.4445 -0.2964 -0.3012
   57MOL    C2311335   2.157   1.229   1.510 -0.5835  0.0528  0.6468
   57MOL    C2411336   2.301   1.231   1.441  0.1642 -0.0474 -0.1820
   57MOL    O2511337   2.375   1.333   1.449  0.0806 -0.3281 -0.0927
   57MOL    N2611338   2.350   1.130   1.374  0.7481  0.2346 -0.2061
   57MOL    H2711339   2.257   1.072   1.633  1.5488  2.5098  3.4548
   57MOL    H2811340   2.149   1.166   1.721  1.5608 -2.7180  0.9964
   57MOL    H2911341   2.079   1.206   1.438 -1.3306  0.4993  1.2930
   57MOL    H3011342   2.290   1.051   1.357  0.7281  0.2307 -0.1194
   57MOL    H3111343   2.435   1.128   1.319  0.0364 -2.5465 -1.2583
   57MOL    C3211344   2.118   1.365   1.557  0.1897  0.3105 -0.1141
   57MOL    C3311345   2.078   1.466   1.445 -0.3494  0.0370 -1.0590
   57MOL    C3411346   2.138   1.603   1.470  0.8242 -0.1287 -0.5551
   57MOL    O3511347   2.087   1.685   1.546  0.7323  0.2829  0.2735
   57MOL    N3611348   2.250   1.634   1.411  0.3295  0.4110 -0.3588
   57MOL    H3711349   2.190   1.410   1.625 -0.7581  0.2941  0.9110
   57MOL    H3811350   2.034   1.350   1.625 -0.1536 -0.1243 -0.6314
   57MOL    H3911351   2.137   1.442   1.356 -0.8466  1.8753 -1.9031
   57MOL    H4011352   2.299   1.557   1.368 -1.2765 -1.3461  0.9004
   57MOL    H4111353   2.277   1.731   1.409  0.0471  0.6116  3.3772
   57MOL    C4211354   1.928   1.462   1.410  0.3312  0.4565  0.6803
   57MOL    C4311355   1.878   1.583   1.317  0.2385 -0.1261  0.5469
   57MOL    C4411356   1.724   1.583   1.331 -0.0918 -0.6253  0.2229
   57MOL    O4511357   1.658   1.515   1.413 -0.4722 -0.2708  0.2409
   57MOL    N4611358   1.658   1.675   1.256  0.2543 -0.4231 -0.3888
   57MOL    H4711359   1.871   1.461   1.503 -0.0934 -0.4143  0.4139
   57MOL    H4811360   1.914   1.360   1.377  0.6595  0.1138  1.5697
   57MOL    H4911361   1.912   1.678   1.357  3.4812 -1.3202  0.7949
   57MOL    H5011362   1.715   1.717   1.183 -1.3937 -0.6954 -1.8664
   57MOL    H5111363   1.558   1.680   1.245  0.5164  1.5561 -2.2096
   57MOL    C5211364   1.929   1.563   1.176  0.0600 -0.3050  0.1305
   57MOL    C5311365   2.020   1.667   1.112  0.3424  0.7392 -0.9729
   57MOL    C5411366   1.952   1.800   1.096  0.3339  0.0754 -0.2623
   57MOL    O5511367   1.843   1.811   1.040  0.0305  0.4838  0.6756
   57MOL    N5611368   2.004   1.906   1.152  0.1779 -0.1282  0.3878
   57MOL    H5711369   1.847   1.560   1.104 -0.3603  1.0298  0.5338
   57MOL    H5811370   1.975   1.466   1.160  1.2839  0.0720  1.3211
   57MOL    H5911371   2.101   1.682   1.183  0.4629 -0.2358 -0.8966
   57MOL    H6011372   1.965   1.999   1.150  1.6516  0.5421  2.0136
   57MOL    H6111373   2.079   1.903   1.219 -0.3975  1.5316  1.1389
   57MOL    C6211374   2.091   1.618   0.984  0.2803 -0.5293 -0.1510
   57MOL    C6311375   2.244   1.653   0.960 -0.5546  0.1278  0.4815
   57MOL    C6411376   2.360   1.563   1.014  0.4962 -0.3120 -0.0258
   57MOL    O6511377   2.351   1.511   1.125  0.0963 -0.3245 -0.3609
   57MOL    N6611378   2.469   1.557   0.938  0.6751 -0.1421  0.6456
   57MOL    H6711379   2.031   1.650   0.899  0.9606 -2.2951 -1.3195
   57MOL    H6811380   2.072   1.511   0.971  0.1561 -0.2042 -2.9739
   57MOL    H6911381   2.260   1.638   0.853 -0.8065  2.1443  0.1408
   57MOL    H7011382   2.552   1.528   0.987  0.5848  1.1542  1.5927
   57MOL    H7111383   2.470   1.590   0.842  0.1609 -0.1447  0.6378
   57MOL    C7211384   2.276   1.808   0.991 -0.2035 -0.2144  0.4498
   57MOL    C7311385   2.368   1.889   0.901 -0.3167  0.7135  0.4520
   57MOL    C7411386   2.476   1.953   0.980 -0.3382  0.1605  0.1703
   57MOL    O7511387   2.453   2.059   1.036 -0.4071 -0.2061  0.1391
   57MOL    N7611388   2.596   1.899   0.987 -0.5987  0.3671  0.2958
   57MOL    H7711389   2.307   1.812   1.095 -0.3588  1.5485  0.4466
   57MOL    H7811390   2.187   1.870   0.990 -0.3114 -0.3205  2.5843
   57MOL    H7911391   2.417   1.817   0.836 -0.0124  0.5767  0.8353
   57MOL    H8011392   2.615   1.819   0.929 -1.1387  1.0053 -0.7651
   57MOL    H8111393   2.672   1.933   1.044 -0.2439  0.2488 -0.1039
   57MOL    C8211394   2.306   1.986   0.804 -0.2896  0.2987  0.1284
   57MOL    C8311395   2.228   1.920   0.688 -0.0299  1.6368  0.4001
   57MOL    C8411396   2.255   2.004   0.560 -0.2982 -0.3761 -0.3182
   57MOL    O8511397   2.199   2.114   0.550  0.1408 -0.3495 -0.0831
   57MOL    N8611398   2.334   1.951   0.466 -0.3643 -0.0934  0.2026
   57MOL    H8711399   2.377   2.058   0.764 -2.8471  1.7654 -1.9377
   57MOL    H8811400   2.241   2.060   0.851 -2.1493 -2.0999  1.4571
   57MOL    H8911401   2.266   1.819   0.671  1.1023  0.7815  6.5400
   57MOL    H9011402   2.384   1.865   0.482  0.8981  0.3279 -1.2501
   57MOL    H9111403   2.373   2.010   0.394 -1.6283 -1.6362 -1.8037
   57MOL    C9211404   2.074   1.905   0.714 -0.7718 -0.0597 -0.3235
   57MOL    C9311405   1.981   1.849   0.599 -0.3876  0.1171  0.0714
   57MOL    C9411406   1.838   1.904   0.633 -0.8423 -0.6167  0.1238
   57MOL    O9511407   1.759   1.829   0.694 -0.0700 -0.3265  0.3321
   57MOL    N9611408   1.806   2.028   0.616  0.5239 -0.6498  0.1047
   57MOL    H9711409   2.035   2.003   0.740  1.5877  0.7327  0.4285
   57MOL    H9811410   2.044   1.851   0.804  0.2824 -2.8393 -1.5797
   57MOL    H9911411   2.017   1.894   0.506  0.5150  0.4416  0.5718
   57MOL   H10011412   1.725   2.072   0.657  0.2727 -1.4217  0.4425
   57MOL   H10111413   1.880   2.083   0.575 -1.0238  2.5971  1.5371
   57MOL   C10211414   1.987   1.693   0.596  0.2259 -0.1280  0.1131
   57MOL   C10311415   2.105   1.614   0.529 -0.1639  0.5703  0.6975
   57MOL   C10411416   2.114   1.650   0.379 -0.5354  0.1409 -0.3732
   57MOL   O10511417   2.016   1.616   0.311  0.5190  0.1902 -0.8605
   57MOL   N10611418   2.227   1.696   0.326 -0.0365 -0.3062  0.1189
   57MOL   H10711419   1.894   1.656   0.553 -1.7008  3.0898  1.3743
   57MOL   H10811420   1.987   1.665   0.702 -3.7004  1.2119  0.5274
   57MOL   H10911421   2.196   1.644   0.581 -1.7323  1.6456  2.8869
   57MOL   H11011422   2.308   1.696   0.385  0.0845  1.0895 -0.0406
   57MOL   H11111423   2.236   1.696   0.225  0.0428  2.0989  0.1066
   57MOL   C11211424   2.066   1.459   0.534  0.2085  0.0179 -0.5675
   57MOL   C11311425   2.098   1.398   0.674 -0.6034  0.3341  0.1819
   57MOL   C11411426   2.246   1.365   0.688 -0.1470  0.4517 -0.5315
   57MOL   O11511427   2.333   1.452   0.714 -0.3945  0.1911 -0.2651
   57MOL   N11611428   2.282   1.240   0.672 -0.1671 -0.4190  0.0566
   57MOL   H11711429   2.122   1.414   0.452 -0.2483  2.3653 -2.2190
   57MOL   H11811430   1.964   1.442   0.500  0.8654 -0.0861 -2.5084
   57MOL   H11911431   2.083   1.473   0.753 -3.3724  0.2133 -0.1862
   57MOL   H12011432   2.379   1.216   0.686 -0.1525 -1.0430 -1.0548
   57MOL   H12111433   2.212   1.168   0.658 -1.2084  0.6857 -0.5566
   57MOL   C12211434   2.008   1.276   0.706  0.0634  0.1753  0.9388
   57MOL   C12311435   1.855   1.292   0.723  0.4440 -0.1858  0.7459
   57MOL   C12411436   1.824   1.339   0.867 -0.2440 -0.6459  0.1014
   57MOL   O12511437   1.901   1.314   0.964  0.5082  0.5939  0.2204
   57MOL   N12611438   1.719   1.413   0.885  0.2718 -0.6026 -0.1077
   57MOL   H12711439   2.048   1.219   0.790  2.7353 -0.9176 -1.0145
   57MOL   H12811440   2.026   1.204   0.627  1.1925  0.3986  0.9779
   57MOL   H12911441   1.823   1.366   0.649 -0.4611 -1.9501 -0.6765
   57MOL   H13011442   1.660   1.439   0.807  0.3515  1.4593  0.4883
   57MOL   H13111443   1.712   1.455   0.976  0.0993 -2.1594  0.6213
   57MOL   C13211444   1.781   1.165   0.700 -0.2659 -0.1120 -0.0859
   57MOL   C13311445   1.783   1.104   0.558 -0.4932  0.2751  0.1595
   57MOL   C13411446   1.718   1.204   0.465 -1.0565 -0.4139  0.6291
   57MOL   O13511447   1.601   1.223   0.467 -0.6179 -0.4908  0.5651
   57MOL   N13611448   1.797   1.276   0.385  0.6615 -0.6557 -0.7492
   57MOL   H13711449   1.675   1.177   0.724 -0.4771  0.9658 -1.4516
   57MOL   H13811450   1.815   1.093   0.774 -0.3513  1.6232  1.6966
   57MOL   H13911451   1.885   1.080   0.526  0.0870  0.9367  1.4943
   57MOL   H14011452   1.752   1.347   0.329 -1.4437 -0.4250  1.1459
   57MOL   H14111453   1.897   1.279   0.396  0.5563 -0.3184  0.1764
   57MOL   C14211454   1.700   0.974   0.555  0.1465 -0.3885  0.6908
   57MOL   C14311455   1.700   0.917   0.411 -0.1713  0.7830 -0.0693
   57MOL   C14411456   1.571   0.834   0.409  0.0368  0.1599  0.3373
   57MOL   O14511457   1.557   0.737   0.485 -0.1764  0.0574 -0.3230
   57MOL   N14611458   1.473   0.867   0.327 -0.4982  0.0574  0.2473
   57MOL   H14711459   1.600   0.998   0.593 -0.8230 -1.3793 -1.1497
   57MOL   H14811460   1.737   0.898   0.624  0.2739  0.0975  1.1639
   57MOL   H14911461   1.686   0.996   0.337 -3.8215  2.0933  1.8905
   57MOL   H15011462   1.391   0.808   0.328 -1.5046  1.3575 -1.2750
   57MOL   H15111463   1.495   0.930   0.251  0.4096  1.0376  1.3028
   57MOL   C15211464   1.824   0.824   0.373  0.3016  0.0618  0.0288
   57MOL   C15311465   1.920   0.890   0.271  0.9822 -0.0408 -0.6020
   57MOL   C15411466   1.874   0.885   0.126  0.1846  0.2301  0.1622
   57MOL   O15511467   1.906   0.797   0.052 -0.1414 -0.1220  0.2621
   57MOL   N15611468   1.806   0.983   0.071  0.0325 -0.4331 -0.0335
   57MOL   H15711469   1.784   0.735   0.325  0.1174  0.0124  0.2760
   57MOL   H15811470   1.876   0.790   0.463  0.1225  0.5304  0.3116
   57MOL   H15911471   1.928   0.996   0.298 -1.3693 -0.5976  2.7241
   57MOL   H16011472   1.778   0.980   7.631 -0.4622  1.6846  0.0245
   57MOL   H16111473   1.774   1.066   0.119 -3.0725 -2.3400  1.3572
   57MOL   C16211474   2.062   0.826   0.276  0.1174 -0.4911  0.0425
   57MOL   C16311475   2.184   0.919   0.295 -0.6175 -0.6423 -0.6768
   57MOL   C16411476   2.212   0.954   0.443 -0.2707  0.6062  0.0483
   57MOL   O16511477   2.125   1.008   0.505  0.2162 -0.3725  0.1993
   57MOL   N16611478   2.330   0.922   0.494 -0.5757 -0.4455 -0.0875
   57MOL   H16711479   2.078   0.759   0.191  0.5090 -0.2696 -0.0556
   57MOL   H16811480   2.057   0.753   0.358 -0.8339  0.8681  1.2207
   57MOL   H16911481   2.269   0.855   0.269  0.5718  0.8628 -0.5313
   57MOL   H17011482   2.405   0.881   0.440 -2.6500 -1.1580 -2.5515
   57MOL   H17111483   2.339   0.940   0.593  1.8652 -1.4547 -0.1034
   57MOL   C17211484   2.199   1.037   0.195 -0.4470  1.1859 -0.8216
   57MOL   C17311485   2.238   1.001   0.045  0.3333  0.6379  0.0050
   57MOL   C17411486   2.386   0.958   0.021  0.1311  0.4332 -0.6908
   57MOL   O17511487   2.468   0.970   0.111 -1.4790  0.0240 -0.1096
   57MOL   N17611488   2.415   0.901   7.560  0.6903 -0.2993  0.3288
   57MOL   H17711489   2.271   1.108   0.237  0.5758 -0.6304  0.5328
   57MOL   H17811490   2.112   1.103   0.191 -0.6759  1.0362  1.1538
   57MOL   H17911491   2.181   0.908   0.040  0.1561  0.7993 -1.0154
   57MOL   H18011492   2.337   0.887   7.498 -1.4280 -1.9988  3.2653
   57MOL   H18111493   2.509   0.869   7.543  0.7036  0.1997 -0.5887
   57MOL   C18211494   2.186   1.101   7.601  0.2021 -1.3000  0.7020
   57MOL   C18311495   2.226   1.253   7.611  0.5607 -0.2458 -0.6775
   57MOL   C18411496   2.112   1.350   7.652 -0.2439  0.2585 -0.0802
   57MOL   O18511497   1.998   1.340   7.613 -0.1391  0.4899  0.7552
   57MOL   N18611498   2.157   1.462   0.062 -0.4430  0.6483 -0.3984
   57MOL   H18711499   2.078   1.088   7.608  0.1311 -0.4154  1.3100
   57MOL   H18811500   2.219   1.074   7.501 -3.4468  1.1809 -1.2759
   57MOL   H18911501   2.305   1.272   0.026 -0.3393  2.2836 -0.3301
   57MOL   H19011502   2.087   1.529   0.093  0.5227  1.7002 -0.4583
   57MOL   H19111503   2.254   1.489   0.058 -0.5302  0.6458 -3.4576
   57MOL   C19211504   2.287   1.300   7.475 -0.2274  0.0982 -0.0626
   57MOL   C19311505   2.433   1.265   7.442  0.4001 -0.0676 -0.1812
   57MOL   C19411506   2.469   1.282   7.291 -1.0495 -0.1232 -0.1792
   57MOL   O19511507   2.386   1.267   7.201 -0.3137  1.1811  0.1250
   57MOL   N19611508   2.600   1.320   7.261  0.3885 -0.2530  0.0334
   57MOL   H19711509   2.284   1.409   7.475 -2.2604  0.0622  0.2335
   57MOL   H19811510   2.220   1.268   7.396 -0.1673  3.4712 -1.5808
   57MOL   H19911511   2.488   1.323   7.516 -1.2800  2.2628 -0.6929
   57MOL   H20011512   2.629   1.328   7.164  1.9659  0.4725  0.5560
   57MOL   H20111513   2.658   1.370   7.327 -1.4155  0.7304  0.9105
   57MOL   H20211514   2.440   1.160   7.468 -0.8336  0.2448  1.5017
   58MOL     C111515   2.980   6.202   5.305 -0.6005 -0.1944 -0.1603
   58MOL     C211516   3.106   6.247   5.387 -0.3664 -0.1278 -0.9250
   58MOL     C311517   3.150   6.393   5.370 -0.1668  0.0831  0.0404
   58MOL     O411518   3.261   6.435   5.334  0.4333 -0.1941  0.2932
   58MOL     N511519   3.063   6.485   5.411  0.6004 -0.8087  0.2968
   58MOL     H611520   2.962   6.094   5.307 -0.2747 -0.2391  1.6131
   58MOL     H711521   2.885   6.253   5.309  1.2397  3.3752 -0.0964
   58MOL     H811522   3.080   6.241   5.493  0.3305 -0.8763 -0.7896
   58MOL     H911523   2.972   6.455   5.442  1.8557 -3.2434  1.7795
   58MOL    H1011524   3.087   6.582   5.422 -1.0270  0.0708 -3.2004
   58MOL    H1111525   2.987   6.227   5.199  1.2417  1.0490  0.2233
   58MOL    C1211526   3.228   6.154   5.364  0.7526 -0.4757 -0.1349
   58MOL    C1311527   3.208   6.025   5.439 -0.2371 -0.5088 -0.4578
   58MOL    C1411528   3.224   6.043   5.590 -0.5745  0.0545  0.0813
   58MOL    O1511529   3.327   6.094   5.631  0.2881  0.4573  0.1871
   58MOL    N1611530   3.120   6.007   5.668 -0.3856 -0.4308  0.0703
   58MOL    H1711531   3.327   6.190   5.391  1.2462 -1.9588  0.0695
   58MOL    H1811532   3.218   6.138   5.257 -0.1469 -0.5149 -0.0525
   58MOL    H1911533   3.103   5.998   5.423 -0.6638  2.1310 -2.4860
   58MOL    H2011534   3.128   6.011   5.768 -1.2122  1.0982  0.1015
   58MOL    H2111535   3.037   5.963   5.631  0.5476 -2.0700 -0.1057
   58MOL    C2211536   3.312   5.909   5.401  0.1259 -0.2715 -0.8909
   58MOL    C2311537   3.291   5.837   5.263 -0.1526  0.8240 -0.2431
   58MOL    C2411538   3.153   5.758   5.243  0.2954 -0.7261 -0.0667
   58MOL    O2511539   3.106   5.687   5.326 -0.2659  0.3049  0.7775
   58MOL    N2611540   3.098   5.779   5.126  0.0336  0.4394 -0.1555
   58MOL    H2711541   3.313   5.833   5.479  1.4117  0.7596  0.1155
   58MOL    H2811542   3.405   5.965   5.394  0.4604 -0.7835 -0.4939
   58MOL    H2911543   3.293   5.919   5.191 -1.2589  1.0429 -0.0250
   58MOL    H3011544   3.015   5.737   5.086  1.3967 -0.2119 -2.3640
   58MOL    H3111545   3.116   5.865   5.077  0.5414  0.0337 -0.6939
   58MOL    C3211546   3.412   5.741   5.233  0.4167 -0.4275 -0.5269
   58MOL    C3311547   3.487   5.763   5.102 -0.5295  0.4787  0.7520
   58MOL    C3411548   3.425   5.693   4.976  0.2662  0.1851 -0.7948
   58MOL    O3511549   3.323   5.627   4.984 -0.0031 -0.4804  0.0260
   58MOL    N3611550   3.481   5.722   4.857 -0.0847  0.4131  0.4474
   58MOL    H3711551   3.374   5.639   5.232 -0.2747 -0.1836  0.4753
   58MOL    H3811552   3.476   5.735   5.321 -2.2981 -1.7551  1.4521
   58MOL    H3911553   3.475   5.870   5.086  1.4321  0.7702  1.1127
   58MOL    H4011554   3.561   5.783   4.853 -1.1617  2.0065  2.0414
   58MOL    H4111555   3.443   5.681   4.773 -0.4012  0.5667  0.5147
   58MOL    C4211556   3.637   5.722   5.118 -0.0405  0.3889 -0.0005
   58MOL    C4311557   3.714   5.807   5.219  0.4029  0.6810 -0.5344
   58MOL    C4411558   3.834   5.877   5.150  0.8590 -0.5455  0.5682
   58MOL    O4511559   3.900   5.830   5.062 -0.1187 -0.1587 -0.1262
   58MOL    N4611560   3.865   5.998   5.190 -0.0566  0.4983  0.6775
   58MOL    H4711561   3.694   5.721   5.025  1.9121  1.1994  1.1608
   58MOL    H4811562   3.648   5.616   5.141 -1.0905 -0.1323 -1.7671
   58MOL    H4911563   3.650   5.886   5.258 -2.0593 -1.4689 -0.0069
   58MOL    H5011564   3.935   6.050   5.138 -1.3070  0.9996 -0.5407
   58MOL    H5111565   3.826   6.030   5.278 -0.7665  3.0482 -0.5195
   58MOL    C5211566   3.762   5.705   5.329  0.3777 -0.4343 -0.0622
   58MOL    C5311567   3.808   5.761   5.465 -0.0872  0.1093 -0.0953
   58MOL    C5411568   3.890   5.652   5.537 -0.2685 -0.1098 -0.0548
   58MOL    O5511569   3.835   5.563   5.597 -0.8966  0.3794  0.5508
   58MOL    N5611570   4.016   5.666   5.541 -0.2351 -0.1732 -0.1048
   58MOL    H5711571   3.846   5.647   5.291  1.3413  1.3295 -0.6683
   58MOL    H5811572   3.686   5.631   5.355 -0.9994 -0.1473 -2.9771
   58MOL    H5911573   3.871   5.848   5.448 -0.4439 -0.0013 -2.0034
   58MOL    H6011574   4.056   5.751   5.504 -0.8498  0.6143  1.0025
   58MOL    H6111575   4.076   5.598   5.586  0.6813  1.4175  1.1432
   58MOL    C6211576   3.676   5.804   5.544 -1.3189 -0.5040 -0.6368
   58MOL    C6311577   3.685   5.944   5.614 -0.1554  0.0137  0.1916
   58MOL    C6411578   3.678   6.056   5.515 -0.3809  0.3681  0.6695
   58MOL    O6511579   3.767   6.082   5.429 -0.2522  0.0794  0.0015
   58MOL    N6611580   3.573   6.132   5.513 -0.5076  0.4702 -0.5192
   58MOL    H6711581   3.646   5.726   5.614  0.4571 -0.4794  0.1896
   58MOL    H6811582   3.586   5.809   5.484 -1.8221 -1.7152  0.0005
   58MOL    H6911583   3.584   5.937   5.654  0.1321  1.3652  1.1840
   58MOL    H7011584   3.555   6.206   5.446  0.2156  0.0208 -1.2106
   58MOL    H7111585   3.511   6.125   5.593  1.1297 -2.0362  0.5695
   58MOL    C7211586   3.779   5.944   5.731  0.1336 -0.1718 -0.2659
   58MOL    C7311587   3.785   6.086   5.803  0.1654 -0.4685 -0.3282
   58MOL    C7411588   3.903   6.079   5.906 -0.2344  0.5785 -0.0826
   58MOL    O7511589   3.910   5.986   5.984 -0.7628 -0.1212 -0.0698
   58MOL    N7611590   3.998   6.173   5.895 -0.0752  0.4282 -0.4524
   58MOL    H7711591   3.876   5.914   5.691  1.0784  2.0936  0.2544
   58MOL    H7811592   3.753   5.857   5.792 -1.3650  1.8823  2.1211
   58MOL    H7911593   3.809   6.165   5.733 -1.4431 -0.3623 -0.7931
   58MOL    H8011594   4.076   6.173   5.960  1.2842  2.2909 -2.0017
   58MOL    H8111595   3.994   6.245   5.824 -2.1844  0.8210  0.0426
   58MOL    C8211596   3.649   6.126   5.876  0.1756 -0.9522  0.8219
   58MOL    C8311597   3.632   6.270   5.909  0.0538 -0.0473 -0.6262
   58MOL    C8411598   3.611   6.366   5.790  0.8728 -0.4780  0.4087
   58MOL    O8511599   3.705   6.428   5.740  0.3419 -0.0195  0.4637
   58MOL    N8611600   3.484   6.382   5.740 -0.4672 -0.7088 -0.4213
   58MOL    H8711601   3.643   6.076   5.973 -0.0979 -0.4865  1.0509
   58MOL    H8811602   3.562   6.102   5.815 -0.7616 -0.3903  1.9042
   58MOL    H8911603   3.534   6.266   5.957  1.3725 -0.9045  2.1220
   58MOL    H9011604   3.475   6.432   5.653 -0.0051 -0.7500 -0.4912
   58MOL    H9111605   3.400   6.344   5.782 -0.2314 -2.4325 -1.4854
   58MOL    C9211606   3.717   6.328   6.026 -0.5868  0.5769  0.7510
   58MOL    C9311607   3.653   6.406   6.143  0.0668 -0.0829  0.0817
   58MOL    C9411608   3.606   6.542   6.099 -0.4680  0.2901  0.3727
   58MOL    O9511609   3.669   6.644   6.126 -0.4276 -0.3306  0.9730
   58MOL    N9611610   3.485   6.558   6.047 -0.0560 -0.4038  0.0033
   58MOL    H9711611   3.802   6.377   5.978 -0.3265 -2.0793 -1.5959
   58MOL    H9811612   3.769   6.246   6.076  0.8444  1.1168  0.1695
   58MOL    H9911613   3.565   6.352   6.178 -0.0321 -0.8149 -1.3027
   58MOL   H10011614   3.432   6.643   6.038  0.7787  0.0870 -0.2762
   58MOL   H10111615   3.432   6.476   6.019 -0.3274 -0.8258  1.7026
   58MOL   C10211616   3.753   6.413   6.262  0.3369  0.4540  0.0407
   58MOL   C10311617   3.756   6.294   6.360  0.0089  0.5079  0.2891
   58MOL   C10411618   3.656   6.318   6.476  0.2465  0.0690  0.2367
   58MOL   O10511619   3.701   6.377   6.573  0.3526 -0.3785  0.6647
   58MOL   N10611620   3.537   6.265   6.470 -0.2375 -0.3646 -0.1868
   58MOL   H10711621   3.717   6.498   6.321 -0.1585  1.5642 -1.8214
   58MOL   H10811622   3.852   6.448   6.232  1.2282  1.7384  4.1379
   58MOL   H10911623   3.718   6.207   6.307 -1.1309  0.7447  0.7082
   58MOL   H11011624   3.479   6.277   6.551 -0.7456 -0.4723 -0.5316
   58MOL   H11111625   3.496   6.204   6.400 -0.8256 -0.9600  0.6768
   58MOL   C11211626   3.899   6.254   6.414 -0.6100 -0.0816  0.0423
   58MOL   C11311627   3.913   6.102   6.434 -0.0943  0.5234 -0.4426
   58MOL   C11411628   4.043   6.091   6.518 -0.3852 -1.3879 -0.0294
   58MOL   O11511629   4.152   6.094   6.464  0.4538  0.7957  0.3568
   58MOL   N11611630   4.033   6.100   6.650 -0.4276 -0.1374  0.2017
   58MOL   H11711631   3.937   6.301   6.504 -1.5755 -0.8317  0.8535
   58MOL   H11811632   3.963   6.283   6.330  0.8637  0.0679  1.2093
   58MOL   H11911633   3.837   6.065   6.503  1.1708  0.2912  0.8350
   58MOL   H12011634   3.942   6.128   6.685 -0.2046  0.5649  0.2278
   58MOL   H12111635   4.108   6.089   6.716 -0.8992  0.3301  0.8306
   58MOL   C12211636   3.922   6.020   6.307  0.2337  0.3949  0.2408
   58MOL   C12311637   3.887   5.869   6.297 -0.5757 -0.7291  0.0240
   58MOL   C12411638   3.747   5.847   6.361 -0.3834 -0.3819  0.0936
   58MOL   O12511639   3.736   5.818   6.481 -0.1099  0.4623  0.2990
   58MOL   N12611640   3.648   5.874   6.277 -0.0722  0.1879  0.0344
   58MOL   H12711641   4.014   6.034   6.251  0.0386 -1.6315 -0.6546
   58MOL   H12811642   3.851   6.065   6.238  2.2594  0.8745 -1.5712
   58MOL   H12911643   3.896   5.848   6.191  0.4843 -1.9523  0.3546
   58MOL   H13011644   3.555   5.879   6.316 -0.0754  0.7305 -0.0471
   58MOL   H13111645   3.663   5.900   6.181 -1.8070 -0.9516 -0.5659
   58MOL   C13211646   3.997   5.785   6.362  0.7885 -0.2857  0.5537
   58MOL   C13311647   3.983   5.633   6.358 -0.5995 -0.1523 -0.1535
   58MOL   C13411648   4.022   5.567   6.488 -0.1861  0.0212 -0.0386
   58MOL   O13511649   4.140   5.541   6.504 -0.2925 -0.7079  0.2150
   58MOL   N13611650   3.937   5.519   6.571  0.0981 -0.3825  0.6295
   58MOL   H13711651   4.019   5.818   6.464  3.8553  1.6173 -0.6442
   58MOL   H13811652   4.091   5.812   6.315  0.1195  1.7893  0.3908
   58MOL   H13911653   3.876   5.619   6.339 -0.4821 -0.2696 -0.7395
   58MOL   H14011654   3.840   5.527   6.542  0.1936  0.6481  0.5882
   58MOL   H14111655   3.962   5.454   6.644  2.3174 -0.9791 -0.6054
   58MOL   C14211656   4.050   5.568   6.233 -0.1304  0.1390  0.1380
   58MOL   C14311657   4.027   5.630   6.096  0.5358 -0.2480  0.0416
   58MOL   C14411658   3.887   5.603   6.040 -0.5314  0.8314  0.4233
   58MOL   O14511659   3.844   5.487   6.028 -0.3207 -0.5684  0.0981
   58MOL   N14611660   3.825   5.707   5.989 -0.1907 -0.1130 -0.1893
   58MOL   H14711661   4.019   5.464   6.224  0.4963 -0.1753  1.6088
   58MOL   H14811662   4.157   5.562   6.253  0.1097 -0.1995 -1.2002
   58MOL   H14911663   4.037   5.738   6.103  0.2143 -0.1742 -0.6437
   58MOL   H15011664   3.744   5.697   5.930 -0.1003  2.0404 -0.6969
   58MOL   H15111665   3.876   5.794   5.995  0.9681 -0.7692 -0.1978
   58MOL   C15211666   4.127   5.575   5.995 -0.1371 -0.1144  0.3988
   58MOL   C15311667   4.218   5.690   5.926  0.4906 -0.4997 -0.2892
   58MOL   C15411668   4.227   5.705   5.777 -0.0732 -0.0007  0.5850
   58MOL   O15511669   4.247   5.603   5.710 -0.7198 -0.7628  0.5251
   58MOL   N15611670   4.216   5.830   5.728 -0.1452 -0.3600 -0.0731
   58MOL   H15711671   4.075   5.521   5.916 -0.2542  0.0015  0.3967
   58MOL   H15811672   4.191   5.496   6.035 -0.2705 -2.0550 -3.0237
   58MOL   H15911673   4.177   5.787   5.955  1.1394 -0.4975  0.6361
   58MOL   H16011674   4.229   5.837   5.628 -0.0903  6.0754  0.1966
   58MOL   H16111675   4.196   5.902   5.795  1.1573 -0.6720  0.6538
   58MOL   C16211676   4.362   5.683   5.979 -0.0704  0.2578  0.0193
   58MOL   C16311677   4.387   5.761   6.110  0.5868 -0.2698 -0.2283
   58MOL   C16411678   4.362   5.908   6.094  0.4421 -0.2798  0.6059
   58MOL   O16511679   4.345   5.957   5.982 -0.7267 -0.3650  0.3443
   58MOL   N16611680   4.354   5.987   6.199 -0.9558  0.3482 -0.0900
   58MOL   H16711681   4.421   5.740   5.907  2.3745  0.6781  2.2598
   58MOL   H16811682   4.407   5.584   5.983 -0.4650  0.1080  1.0061
   58MOL   H16911683   4.303   5.737   6.175  1.1309 -1.4961  0.0218
   58MOL   H17011684   4.318   6.081   6.196 -0.2918  0.5398 -4.0854
   58MOL   H17111685   4.366   5.937   6.286 -1.0303 -1.1930 -0.9375
   58MOL   C17211686   4.536   5.726   6.155 -0.4923  0.1971 -0.1674
   58MOL   C17311687   4.544   5.595   6.233  0.1165  0.7070 -0.0909
   58MOL   C17411688   4.472   5.607   6.360  0.2479  0.1952  0.5045
   58MOL   O17511689   4.461   5.714   6.422  0.6779 -0.1948  0.0136
   58MOL   N17611690   4.416   5.503   6.410  0.9545 -0.0606  0.4817
   58MOL   H17711691   4.567   5.816   6.208  0.5652 -1.7721  2.6983
   58MOL   H17811692   4.594   5.724   6.063  0.9263 -0.1515  0.7063
   58MOL   H17911693   4.497   5.511   6.183  0.7918 -1.8223  3.3189
   58MOL   H18011694   4.438   5.418   6.359 -1.5013  0.6346 -1.8788
   58MOL   H18111695   4.336   5.507   6.471  0.1132 -1.3335 -0.5066
   58MOL   C18211696   4.688   5.558   6.248 -0.2597 -0.1110 -0.2693
   58MOL   C18311697   4.772   5.520   6.120 -0.8492  0.2847 -0.4418
   58MOL   C18411698   4.699   5.433   6.018 -0.8494  0.3626  0.0703
   58MOL   O18511699   4.683   5.465   5.898  0.5202  0.1900 -0.3564
   58MOL   N18611700   4.658   5.315   6.057  0.2875  0.0624  0.1665
   58MOL   H18711701   4.705   5.488   6.330  0.3872 -1.0651 -1.1950
   58MOL   H18811702   4.747   5.643   6.283 -0.2738  1.0234 -2.8615
   58MOL   H18911703   4.801   5.611   6.067 -1.0377 -0.3088 -1.5859
   58MOL   H19011704   4.603   5.254   5.999 -0.3805  0.6386  0.1927
   58MOL   H19111705   4.687   5.274   6.145  0.7224 -2.0834 -0.9450
   58MOL   C19211706   4.906   5.444   6.153 -1.0507  0.0764 -0.0524
   58MOL   C19311707   5.003   5.458   6.048 -0.1828 -0.4668  0.5221
   58MOL   C19411708   5.131   5.380   6.076  0.8448 -0.5159  0.1159
   58MOL   O19511709   5.161   5.347   6.188  0.0918  0.1776  0.7324
   58MOL   N19611710   5.219   5.374   5.972  0.2526 -0.3415 -0.6324
   58MOL   H19711711   4.891   5.338   6.172  2.5351 -0.6158 -0.6617
   58MOL   H19811712   4.951   5.488   6.243  0.6866 -1.4360 -0.1559
   58MOL   H19911713   4.969   5.417   5.953 -2.7386  1.5068  0.5476
   58MOL   H20011714   5.189   5.410   5.883  0.4124  0.0361 -0.5354
   58MOL   H20111715   5.315   5.345   5.985  1.2873  3.5418  1.4494
   58MOL   H20211716   5.030   5.560   6.020  1.3292 -1.3537 -1.4073
   59MOL     C111717   3.933   1.524   0.770  0.0086  0.0091  0.3686
   59MOL     C211718   3.975   1.437   0.653  0.0033  0.1853  0.2563
   59MOL     C311719   4.102   1.364   0.699  0.1726 -0.2929 -0.6634
   59MOL     O411720   4.209   1.428   0.711 -0.5558 -0.1287 -0.2029
   59MOL     N511721   4.099   1.232   0.718  0.0884 -0.7541 -0.3762
   59MOL     H611722   3.843   1.580   0.749 -0.1477 -0.0940  0.7685
   59MOL     H711723   3.910   1.464   0.858 -0.7490 -0.7824 -0.3669
   59MOL     H811724   3.900   1.366   0.618 -0.5572  0.2596  1.2893
   59MOL     H911725   4.015   1.189   0.683 -0.6869  1.0415 -0.8125
   59MOL    H1011726   4.179   1.179   0.750 -0.2468 -0.3326  1.1726
   59MOL    H1111727   3.995   1.603   0.812  1.6725 -1.6794  1.2122
   59MOL    C1211728   4.006   1.505   0.519  0.0899 -0.5859  0.5361
   59MOL    C1311729   3.886   1.548   0.434 -0.6776  0.8404 -0.2256
   59MOL    C1411730   3.828   1.426   0.361 -0.7067  0.0329  0.2110
   59MOL    O1511731   3.903   1.353   0.294  0.1898  0.0366  0.1691
   59MOL    N1611732   3.702   1.393   0.394  0.5672  0.0898  0.0426
   59MOL    H1711733   4.055   1.429   0.458  0.2289  0.0041 -0.0856
   59MOL    H1811734   4.084   1.581   0.523 -0.4390 -0.0232  0.1933
   59MOL    H1911735   3.814   1.593   0.503 -0.9401 -1.4863  1.0413
   59MOL    H2011736   3.658   1.438   0.473 -0.5368 -0.2968 -0.3507
   59MOL    H2111737   3.658   1.309   0.360  0.4088 -0.4331  1.4855
   59MOL    C2211738   3.932   1.647   0.327 -0.2243 -0.2880  0.2644
   59MOL    C2311739   3.859   1.676   0.191  0.5596  0.4333  0.0950
   59MOL    C2411740   3.908   1.582   0.079 -0.2690  0.4871 -0.5307
   59MOL    O2511741   4.023   1.587   0.029  0.0600  0.1613 -0.4938
   59MOL    N2611742   3.815   1.505   0.033  0.3714  0.5506  0.6033
   59MOL    H2711743   4.027   1.609   0.289  0.9504  2.0904  0.7455
   59MOL    H2811744   3.953   1.738   0.383  0.5299  0.2310 -0.8397
   59MOL    H2911745   3.751   1.673   0.203  0.6255  1.2263  0.9770
   59MOL    H3011746   3.724   1.508   0.077  0.6434  4.3657  1.1303
   59MOL    H3111747   3.852   1.433   7.629 -1.2728  0.0388  0.1810
   59MOL    C3211748   3.882   1.823   0.145  0.1682 -0.3709 -0.2481
   59MOL    C3311749   3.791   1.924   0.221  0.7761 -0.1769 -0.2430
   59MOL    C3411750   3.640   1.920   0.174 -0.3742 -0.5751 -0.0055
   59MOL    O3511751   3.608   1.880   0.063 -0.4200  0.1696 -0.4274
   59MOL    N3611752   3.547   1.966   0.256  0.7409 -0.3809  0.1182
   59MOL    H3711753   3.884   1.831   0.037 -0.3618 -0.4330 -0.2631
   59MOL    H3811754   3.985   1.840   0.177 -0.3168  2.1325  0.1474
   59MOL    H3911755   3.784   1.896   0.326  2.7192 -2.0116 -0.5796
   59MOL    H4011756   3.451   1.958   0.223  0.5270  1.4767  0.2313
   59MOL    H4111757   3.557   1.981   0.355 -2.3946 -1.2231  0.6189
   59MOL    C4211758   3.848   2.070   0.211  0.8528  0.2499  0.2347
   59MOL    C4311759   3.831   2.162   0.332 -0.2616 -0.6548 -0.3152
   59MOL    C4411760   3.854   2.307   0.292 -0.2771 -0.7258  0.1780
   59MOL    O4511761   3.968   2.339   0.260 -0.0502 -0.4909 -0.5373
   59MOL    N4611762   3.751   2.392   0.299 -0.6331  0.4864 -0.2059
   59MOL    H4711763   3.797   2.125   0.132 -2.5250 -2.1989  0.6010
   59MOL    H4811764   3.953   2.055   0.185  0.4733 -0.0845 -1.1739
   59MOL    H4911765   3.728   2.152   0.364 -0.1450  1.0761  0.6470
   59MOL    H5011766   3.658   2.374   0.334 -0.2441 -0.5731  0.3098
   59MOL    H5111767   3.775   2.490   0.287  2.0892  0.0173  0.9262
   59MOL    C5211768   3.921   2.110   0.450 -0.1632  0.2955 -0.6498
   59MOL    C5311769   3.865   2.147   0.591  0.3929  0.4540  1.1726
   59MOL    C5411770   3.917   2.274   0.664  0.2210  0.2747 -0.0210
   59MOL    O5511771   3.885   2.310   0.778 -0.0350 -0.6097  0.0533
   59MOL    N5611772   4.012   2.346   0.605  0.1297 -0.2023  0.6909
   59MOL    H5711773   4.026   2.134   0.436 -0.6201  1.7684 -1.7503
   59MOL    H5811774   3.929   2.002   0.441  1.4486  0.4164 -0.7191
   59MOL    H5911775   3.766   2.188   0.573  0.2213  0.3539  1.8732
   59MOL    H6011776   4.056   2.421   0.656 -0.0094 -1.0363  2.0856
   59MOL    H6111777   4.031   2.325   0.508  0.3892 -0.3646  0.7760
   59MOL    C6211778   3.866   2.025   0.683  0.0135  0.2307 -0.3631
   59MOL    C6311779   4.004   1.997   0.758  0.2633 -0.0952  0.2649
   59MOL    C6411780   4.103   1.922   0.667 -0.2038 -1.0837 -0.9771
   59MOL    O6511781   4.078   1.811   0.619 -0.1640 -0.2031  0.3364
   59MOL    N6611782   4.221   1.977   0.650 -0.4948 -0.1935  0.2879
   59MOL    H6711783   3.820   1.938   0.637  0.8662 -0.2774 -0.2669
   59MOL    H6811784   3.784   2.047   0.751  1.6111 -0.2918  1.7893
   59MOL    H6911785   4.052   2.092   0.782  2.5937 -1.1923  0.0919
   59MOL    H7011786   4.293   1.926   0.600  1.5430  2.8244  0.0689
   59MOL    H7111787   4.250   2.068   0.683 -0.5175 -0.8931  2.3264
   59MOL    C7211788   3.984   1.929   0.889 -0.0113 -0.1736  0.5469
   59MOL    C7311789   4.109   1.928   0.981  0.6643  0.4198 -0.1568
   59MOL    C7411790   4.150   1.781   0.996 -0.4231  0.3430 -0.2622
   59MOL    O7511791   4.091   1.709   1.081  0.7951 -0.6527 -0.4267
   59MOL    N7611792   4.237   1.739   0.908 -0.3828  0.2997  0.1561
   59MOL    H7711793   3.951   1.826   0.875  0.3460 -0.1436 -0.6153
   59MOL    H7811794   3.897   1.964   0.943 -1.6743 -0.9504 -1.5502
   59MOL    H7911795   4.193   1.976   0.932 -1.5539  3.9438 -0.6980
   59MOL    H8011796   4.261   1.796   0.829 -1.2273 -3.5545 -3.0553
   59MOL    H8111797   4.255   1.640   0.901  0.0833  0.5183 -2.0560
   59MOL    C8211798   4.089   1.995   1.116  0.1112  0.4443 -0.2831
   59MOL    C8311799   4.051   2.149   1.131  0.6544  0.0294  0.4783
   59MOL    C8411800   4.151   2.242   1.056  0.6830 -0.4542  0.3178
   59MOL    O8511801   4.263   2.262   1.109  0.1477  0.1483 -0.2820
   59MOL    N8611802   4.114   2.296   0.941  0.4993  0.1322  0.1181
   59MOL    H8711803   4.180   1.973   1.173  0.6718 -1.5213 -1.8736
   59MOL    H8811804   4.009   1.939   1.165 -0.9341  1.3026 -1.0009
   59MOL    H8911805   3.957   2.147   1.075  1.2444 -0.9715 -0.5172
   59MOL    H9011806   4.021   2.280   0.904  1.6060  2.2359 -3.8852
   59MOL    H9111807   4.178   2.352   0.886  1.9859  0.4978  2.1693
   59MOL    C9211808   4.031   2.214   1.266 -0.2152  0.1089 -0.1795
   59MOL    C9311809   4.098   2.143   1.389  0.1041 -0.1543 -0.0654
   59MOL    C9411810   4.019   2.012   1.421 -0.3771 -0.4554  0.5289
   59MOL    O9511811   3.903   1.998   1.381 -0.4783 -0.0233  0.0737
   59MOL    N9611812   4.076   1.922   1.506 -0.3580 -0.3019  0.8274
   59MOL    H9711813   3.925   2.222   1.291 -0.2216  0.1065 -0.2058
   59MOL    H9811814   4.050   2.321   1.273  0.6311  0.0862 -2.0962
   59MOL    H9911815   4.193   2.105   1.352  0.1977 -1.4397  1.4069
   59MOL   H10011816   4.033   1.837   1.540  0.0186 -0.9501 -0.2897
   59MOL   H10111817   4.169   1.938   1.543 -0.3182 -2.2700  1.6394
   59MOL   C10211818   4.118   2.219   1.521  0.1276  0.4925 -0.3533
   59MOL   C10311819   4.229   2.327   1.522  0.4772  1.4313 -0.2327
   59MOL   C10411820   4.365   2.271   1.483  0.5578  1.0465 -0.2649
   59MOL   O10511821   4.440   2.217   1.562  0.5386  0.1554  0.3198
   59MOL   N10611822   4.395   2.286   1.358 -0.2170  0.6441  0.1765
   59MOL   H10711823   4.138   2.145   1.600  0.9970  1.2232  0.1139
   59MOL   H10811824   4.024   2.263   1.554  1.3278  2.3331  0.7024
   59MOL   H10911825   4.191   2.391   1.443 -0.7139 -0.2067 -1.0260
   59MOL   H11011826   4.485   2.251   1.328 -2.2383 -3.8812 -0.9169
   59MOL   H11111827   4.332   2.321   1.287 -2.3487 -1.2979  1.0628
   59MOL   C11211828   4.234   2.402   1.653 -0.6418 -0.3195  0.1768
   59MOL   C11311829   4.139   2.532   1.660 -0.3233 -0.1031  0.3377
   59MOL   C11411830   4.190   2.651   1.579  0.9057 -0.3544 -0.3593
   59MOL   O11511831   4.271   2.724   1.632  0.3378  0.1052  0.2823
   59MOL   N11611832   4.150   2.671   1.457  0.1500 -0.7435  0.0626
   59MOL   H11711833   4.334   2.427   1.688  0.1242 -1.9651 -0.7728
   59MOL   H11811834   4.200   2.324   1.721 -0.2165 -0.0310  0.7207
   59MOL   H11911835   4.041   2.513   1.616 -1.0139 -0.3990  1.9889
   59MOL   H12011836   4.189   2.744   1.399  1.0984 -1.4165 -0.1406
   59MOL   H12111837   4.080   2.604   1.429 -0.5548 -0.1109  0.2879
   59MOL   C12211838   4.128   2.574   1.809 -0.5846 -0.1510 -0.0721
   59MOL   C12311839   4.018   2.687   1.828 -1.0248  0.6207 -0.4630
   59MOL   C12411840   4.076   2.798   1.925  0.1813  1.3733 -0.6091
   59MOL   O12511841   4.039   2.811   2.041  0.1232  0.2227 -0.6630
   59MOL   N12611842   4.151   2.889   1.866 -0.1052  0.4624 -0.2217
   59MOL   H12711843   4.227   2.600   1.844  0.4917 -0.6649 -2.6109
   59MOL   H12811844   4.107   2.483   1.864  0.5823 -0.5347 -0.2521
   59MOL   H12911845   3.994   2.755   1.746 -0.3965 -0.6544 -1.7197
   59MOL   H13011846   4.178   2.966   1.926 -0.5300 -1.1757  2.1596
   59MOL   H13111847   4.175   2.888   1.768 -1.1617  2.5867 -0.5176
   59MOL   C13211848   3.891   2.622   1.882 -0.7141  0.0159  0.4423
   59MOL   C13311849   3.761   2.704   1.903 -0.7374  0.7120 -0.8542
   59MOL   C13411850   3.643   2.622   1.952  0.2024 -0.6758  0.3638
   59MOL   O13511851   3.532   2.641   1.897  0.3135 -0.3496 -0.5083
   59MOL   N13611852   3.652   2.528   2.041 -0.1665 -0.7146 -0.6038
   59MOL   H13711853   3.927   2.574   1.973 -1.1771 -2.2101 -0.5335
   59MOL   H13811854   3.865   2.541   1.814 -1.4185  0.0084  0.7183
   59MOL   H13911855   3.786   2.764   1.991 -1.7245  0.4500 -0.3925
   59MOL   H14011856   3.742   2.511   2.084  0.2292 -0.7181 -1.4343
   59MOL   H14111857   3.579   2.459   2.051 -2.9330  2.3970  2.1353
   59MOL   C14211858   3.726   2.825   1.805  0.0077 -0.3502 -0.2842
   59MOL   C14311859   3.672   2.778   1.667  0.6672 -0.7978 -0.4380
   59MOL   C14411860   3.786   2.728   1.573 -0.6333  0.2546  0.1532
   59MOL   O14511861   3.885   2.792   1.546  0.4398 -0.2843  0.1223
   59MOL   N14611862   3.770   2.614   1.519  0.2352 -0.3922  0.3307
   59MOL   H14711863   3.809   2.893   1.784 -1.3462  1.0528 -1.1970
   59MOL   H14811864   3.653   2.887   1.857  1.1719 -0.9400  2.1220
   59MOL   H14911865   3.591   2.706   1.680 -0.6419  0.5467 -1.0559
   59MOL   H15011866   3.827   2.593   1.439 -0.5670 -0.4859 -0.2230
   59MOL   H15111867   3.684   2.564   1.537  0.0083 -0.4311 -0.7892
   59MOL   C15211868   3.592   2.893   1.606 -0.5034  0.3081 -0.1344
   59MOL   C15311869   3.565   2.892   1.447  0.0066  0.3635  0.4707
   59MOL   C15411870   3.537   3.035   1.392  0.0186 -0.4354  0.2686
   59MOL   O15511871   3.577   3.071   1.283  0.3948  0.3212 -0.2744
   59MOL   N15611872   3.459   3.117   1.467 -0.2352  0.5556 -0.0488
   59MOL   H15711873   3.646   2.984   1.629 -0.9757  0.0628  2.1241
   59MOL   H15811874   3.507   2.904   1.673 -1.9390  3.3525 -2.3551
   59MOL   H15911875   3.661   2.882   1.397 -0.4351  0.0337 -0.3268
   59MOL   H16011876   3.427   3.084   1.557 -1.9018 -0.6101 -1.0347
   59MOL   H16111877   3.437   3.211   1.436  0.1394  0.2168 -1.3475
   59MOL   C16211878   3.462   2.791   1.386 -0.2837 -0.0871 -0.4099
   59MOL   C16311879   3.317   2.800   1.451 -0.0834  0.6595 -0.2080
   59MOL   C16411880   3.296   2.712   1.578 -0.1738 -0.3404  0.3376
   59MOL   O16511881   3.314   2.594   1.585 -0.4735  0.0944  0.3623
   59MOL   N16611882   3.258   2.774   1.691  0.1935 -0.0879  0.5330
   59MOL   H16711883   3.495   2.694   1.421 -0.6289  0.3117  1.0579
   59MOL   H16811884   3.463   2.796   1.277 -0.5169 -1.7449 -0.4870
   59MOL   H16911885   3.318   2.904   1.483  1.8958  0.9357 -1.0840
   59MOL   H17011886   3.211   2.723   1.765 -2.5912  0.4636 -0.7771
   59MOL   H17111887   3.239   2.873   1.690  1.0307  0.0684 -0.9626
   59MOL   C17211888   3.199   2.777   1.357 -0.3918  0.5652  0.1681
   59MOL   C17311889   3.068   2.849   1.397 -0.6880  0.1552  0.5982
   59MOL   C17411890   2.938   2.774   1.356  0.0073  0.0238 -0.8880
   59MOL   O17511891   2.917   2.755   1.234 -0.6512 -0.3226 -0.3967
   59MOL   N17611892   2.845   2.748   1.443  0.1729  0.0268 -0.6206
   59MOL   H17711893   3.166   2.674   1.371 -1.5158  1.0979  1.5594
   59MOL   H17811894   3.221   2.810   1.256  0.6879  1.8673  0.8001
   59MOL   H17911895   3.074   2.857   1.506  1.6654  1.0346  0.4227
   59MOL   H18011896   2.869   2.763   1.540  0.4831  0.9129 -0.8304
   59MOL   H18111897   2.755   2.710   1.417 -0.0234  0.5338 -0.6833
   59MOL   C18211898   3.073   2.994   1.347  0.5553  0.3350  0.8724
   59MOL   C18311899   2.957   3.093   1.377  0.4117  0.2735  0.0812
   59MOL   C18411900   2.971   3.235   1.314  1.1729 -0.2198  0.3772
   59MOL   O18511901   3.073   3.292   1.300 -0.4808 -0.7074  0.8162
   59MOL   N18611902   2.855   3.290   1.269  0.6520 -0.1421  0.4339
   59MOL   H18711903   3.088   2.995   1.239 -1.3598 -1.7070  0.5495
   59MOL   H18811904   3.162   3.038   1.392  0.6378 -0.9596  2.0098
   59MOL   H18911905   2.870   3.061   1.319 -0.6210  2.2134  0.5156
   59MOL   H19011906   2.854   3.378   1.220 -1.9489 -0.1779  0.3536
   59MOL   H19111907   2.775   3.233   1.294  0.3125  0.0600 -0.1975
   59MOL   C19211908   2.910   3.105   1.528  0.0752  0.0509  0.1021
   59MOL   C19311909   3.008   3.181   1.618  0.1969 -0.5491  0.0638
   59MOL   C19411910   3.107   3.099   1.693 -0.4850 -0.0200 -0.4716
   59MOL   O19511911   3.218   3.078   1.649  0.0095  0.4119  0.2777
   59MOL   N19611912   3.068   3.053   1.814 -0.2471  0.1061 -0.1360
   59MOL   H19711913   2.881   3.011   1.573 -2.5594  1.7040  2.0053
   59MOL   H19811914   2.820   3.168   1.528  1.4751  2.1177 -1.1548
   59MOL   H19911915   3.049   3.262   1.557 -1.9930  0.6671  0.1636
   59MOL   H20011916   2.975   3.077   1.844 -0.3742  1.1642 -1.3382
   59MOL   H20111917   3.132   3.010   1.879  0.2981  1.3343  0.1643
   59MOL   H20211918   2.952   3.235   1.693  0.5089 -0.6758  0.3924
   60MOL     C111919   2.426   7.604   3.497  0.6830  0.0151  0.9152
   60MOL     C211920   2.307   7.515   3.452 -0.6097  0.1582 -0.6584
   60MOL     C311921   2.229   7.474   3.576 -0.1520 -1.2548 -0.0494
   60MOL     O411922   2.277   7.382   3.647 -0.9302 -0.1481 -0.0873
   60MOL     N511923   2.119   7.540   3.610 -0.1579  0.1214  0.2731
   60MOL     H611924   2.483   7.634   3.409 -0.4245  0.8338  0.4713
   60MOL     H711925   2.396   0.034   3.555 -3.6505  0.0515 -1.2384
   60MOL     H811926   2.233   7.572   3.397 -0.3929  2.0349  0.9422
   60MOL     H911927   2.066   7.520   3.694 -2.0058 -1.2377 -1.1738
   60MOL    H1011928   2.071   7.596   3.541  0.0221 -0.4552 -0.3347
   60MOL    H1111929   2.500   7.556   3.561  2.1014  0.5208 -0.3124
   60MOL    C1211930   2.368   7.391   3.378  0.0729  0.6050  0.6324
   60MOL    C1311931   2.407   7.407   3.231 -0.5432  0.1328  0.5436
   60MOL    C1411932   2.284   7.370   3.155 -1.0077 -0.1700  0.7586
   60MOL    O1511933   2.225   7.260   3.167  0.5059 -0.4876 -0.1153
   60MOL    N1611934   2.227   7.457   3.070 -0.4057  0.1475  0.4326
   60MOL    H1711935   2.292   7.313   3.381  0.3980  0.1871 -1.6003
   60MOL    H1811936   2.451   7.360   3.442 -0.6316 -2.3541  0.1598
   60MOL    H1911937   2.428   7.513   3.212 -2.2196  0.5371  0.8488
   60MOL    H2011938   2.143   7.431   3.022  0.3364  0.3915 -1.0224
   60MOL    H2111939   2.265   7.551   3.070  1.6227 -0.6140  1.8019
   60MOL    C2211940   2.517   7.310   3.196 -0.5342  0.1093  0.4583
   60MOL    C2311941   2.654   7.355   3.237 -0.3669 -0.4950  0.4255
   60MOL    C2411942   2.690   7.483   3.169  0.3097  0.1791 -0.5106
   60MOL    O2511943   2.684   7.496   3.049  0.8105  0.1373 -0.3625
   60MOL    N2611944   2.727   7.575   3.250 -0.0033  0.3382  0.1225
   60MOL    H2711945   2.521   7.274   3.093 -0.7488  2.0387 -0.2439
   60MOL    H2811946   2.488   7.222   3.254  1.2335  0.2897  1.6397
   60MOL    H2911947   2.645   7.383   3.342 -3.7618  1.2512 -0.2535
   60MOL    H3011948   2.750   7.541   3.342  0.5620  1.2202  0.3110
   60MOL    H3111949   2.761   0.005   3.209  1.3194  0.8893  2.2872
   60MOL    C3211950   2.770   7.255   3.211 -0.3391  0.0452  0.5164
   60MOL    C3311951   2.746   7.106   3.237  0.2295  0.2153 -0.5934
   60MOL    C3411952   2.720   7.082   3.389 -0.1729 -0.3403 -0.1393
   60MOL    O3511953   2.751   7.166   3.479 -0.3060  0.4786  0.7170
   60MOL    N3611954   2.655   6.971   3.432  0.0763  0.4803 -0.3026
   60MOL    H3711955   2.860   7.296   3.256  0.5854 -3.1945  1.7546
   60MOL    H3811956   2.791   7.261   3.104 -0.0709 -2.4283  0.3949
   60MOL    H3911957   2.674   7.054   3.174  0.3144 -1.8786  0.9729
   60MOL    H4011958   2.657   6.898   3.362 -2.4286 -1.9409  1.9646
   60MOL    H4111959   2.639   6.959   3.531 -0.8172 -0.0035 -0.4997
   60MOL    C4211960   2.878   7.033   3.205 -0.2475  0.1601 -0.5455
   60MOL    C4311961   2.907   7.002   3.052 -0.2973  0.4761 -0.7844
   60MOL    C4411962   2.801   6.923   2.973  0.3273 -0.0795  0.2572
   60MOL    O4511963   2.781   6.805   2.989  0.2797 -0.4731 -0.0566
   60MOL    N4611964   2.731   6.983   2.880  0.1757  0.1179  0.3044
   60MOL    H4711965   2.889   6.936   3.255  2.6734  1.4701  1.5096
   60MOL    H4811966   2.964   7.093   3.235 -1.3340 -0.3100  3.8791
   60MOL    H4911967   2.903   7.099   3.003  1.5141  1.0784  0.2172
   60MOL    H5011968   2.674   6.913   2.835  0.2762 -0.1985  0.6628
   60MOL    H5111969   2.756   7.070   2.837  1.6559 -0.5450 -0.2158
   60MOL    C5211970   3.053   6.954   3.032  0.6248 -0.9045  0.1457
   60MOL    C5311971   3.088   6.798   3.012 -0.7061  0.1616 -0.4075
   60MOL    C5411972   3.113   6.730   3.152 -0.3878 -0.4528  0.4720
   60MOL    O5511973   3.037   6.650   3.199 -0.0439 -0.4005 -0.5099
   60MOL    N5611974   3.231   6.754   3.214 -0.1110 -0.7923 -0.2747
   60MOL    H5711975   3.121   7.003   3.101  0.2815  0.0333 -0.1766
   60MOL    H5811976   3.085   6.998   2.938 -2.3440 -1.9978 -1.4408
   60MOL    H5911977   3.003   6.748   2.966 -1.8862  1.1397  0.6699
   60MOL    H6011978   3.249   6.715   3.305  0.5870  0.0649 -0.0499
   60MOL    H6111979   3.306   6.809   3.176 -0.6195 -0.0603 -0.2412
   60MOL    C6211980   3.210   6.787   2.907  0.0403 -0.2572  0.4003
   60MOL    C6311981   3.256   6.644   2.863  0.4036  0.1627  0.7214
   60MOL    C6411982   3.408   6.624   2.881  0.0907 -0.2229  0.4666
   60MOL    O6511983   3.487   6.695   2.812 -0.6731  0.1841 -0.1186
   60MOL    N6611984   3.451   6.547   2.978 -0.0313  0.1537  0.1162
   60MOL    H6711985   3.287   6.823   2.975  0.9190 -3.2639  1.0734
   60MOL    H6811986   3.200   6.852   2.820  0.0218 -0.1027  0.5178
   60MOL    H6911987   3.220   6.578   2.942  0.7000 -1.2289 -0.2779
   60MOL    H7011988   3.391   6.500   3.044  3.4761 -1.8549  2.0635
   60MOL    H7111989   3.550   6.543   2.997  0.0425  0.2603 -0.2415
   60MOL    C7211990   3.186   6.603   2.733  0.3653 -0.3178 -0.1964
   60MOL    C7311991   3.191   6.454   2.690  0.0084 -0.5698  0.9091
   60MOL    C7411992   3.147   6.365   2.808 -0.2088  0.0322  0.4936
   60MOL    O7511993   3.231   6.298   2.872 -0.3645 -0.0575  0.1849
   60MOL    N7611994   3.015   6.362   2.828  0.6206 -0.4197 -0.2848
   60MOL    H7711995   3.206   6.674   2.653  0.2996  0.9039  0.8592
   60MOL    H7811996   3.079   6.619   2.745  0.1997 -1.0873 -0.6472
   60MOL    H7911997   3.107   6.446   2.621  0.2272 -0.8932  0.6767
   60MOL    H8011998   2.949   6.421   2.779  1.0593  0.6551  0.4189
   60MOL    H8111999   2.972   6.314   2.907 -0.9813 -2.1995 -2.1543
   60MOL    C8212000   3.324   6.410   2.609  0.1373  1.4278  0.0537
   60MOL    C8312001   3.328   6.458   2.457 -0.1147 -0.1710 -0.4818
   60MOL    C8412002   3.195   6.424   2.384 -0.3601 -0.5167  0.4699
   60MOL    O8512003   3.162   6.303   2.370 -0.5829 -0.4663 -0.3674
   60MOL    N8612004   3.122   6.532   2.351 -0.0754  0.2575  0.0709
   60MOL    H8712005   3.331   6.301   2.612  1.4822  1.5334  1.3089
   60MOL    H8812006   3.409   6.452   2.663  0.1785  1.9836 -0.4408
   60MOL    H8912007   3.338   6.567   2.462  1.4657 -0.3022 -0.3213
   60MOL    H9012008   3.031   6.530   2.310  0.1446  1.3897 -0.4784
   60MOL    H9112009   3.158   6.622   2.380 -1.9233  1.3287 -0.9214
   60MOL    C9212010   3.452   6.414   2.379  0.1080  0.4508 -1.1613
   60MOL    C9312011   3.558   6.522   2.362  0.7339  0.2750  0.5474
   60MOL    C9412012   3.641   6.482   2.236  1.3948 -0.4865  0.9011
   60MOL    O9512013   3.706   6.381   2.231 -0.1209  0.0506  0.1635
   60MOL    N9612014   3.668   6.575   2.143  0.0724 -0.1042 -0.6103
   60MOL    H9712015   3.420   6.394   2.277 -0.7739  1.5231 -1.1078
   60MOL    H9812016   3.483   6.315   2.413 -2.0801  0.0462 -0.2641
   60MOL    H9912017   3.513   6.620   2.344  3.3881  1.7591  1.6219
   60MOL   H10012018   3.734   6.571   2.068 -0.3090 -0.0531 -0.9510
   60MOL   H10112019   3.625   6.666   2.149  0.2319 -0.0997  0.7089
   60MOL   C10212020   3.657   6.537   2.485  0.2679 -0.8171 -0.5665
   60MOL   C10312021   3.778   6.641   2.486  0.4905  0.4695  0.1709
   60MOL   C10412022   3.896   6.577   2.414 -0.1842  0.7999 -0.9525
   60MOL   O10512023   3.949   6.625   2.314 -0.8515  0.1802 -0.6080
   60MOL   N10612024   3.940   6.460   2.469  0.3140 -0.7075 -0.0433
   60MOL   H10712025   3.701   6.439   2.502  0.9344 -0.2672  0.9656
   60MOL   H10812026   3.590   6.565   2.566 -1.1202 -1.3256 -1.5223
   60MOL   H10912027   3.758   6.717   2.410 -0.0004  1.0244  0.8467
   60MOL   H11012028   4.011   6.406   2.422 -0.1479 -2.6171  1.3749
   60MOL   H11112029   3.887   6.417   2.544 -2.1894 -0.2372 -1.4648
   60MOL   C11212030   3.808   6.709   2.628 -0.0791  0.0412  0.8559
   60MOL   C11312031   3.954   6.732   2.667 -0.6176  0.0839 -0.3304
   60MOL   C11412032   3.995   6.638   2.783 -0.1497 -0.0160 -0.1065
   60MOL   O11512033   3.947   6.643   2.895  0.1167 -0.0019  0.1669
   60MOL   N11612034   4.091   6.554   2.751 -0.2844  0.1553  0.4042
   60MOL   H11712035   3.755   6.659   2.709  0.8582  0.0268  1.4574
   60MOL   H11812036   3.753   6.803   2.616  0.2704  0.2537  0.9303
   60MOL   H11912037   4.029   6.712   2.590  0.5573 -1.0176  1.0681
   60MOL   H12012038   4.124   6.487   2.819 -0.3378 -0.7326 -0.4253
   60MOL   H12112039   4.135   6.545   2.660 -2.1416 -0.6573 -0.4463
   60MOL   C12212040   3.966   6.879   2.713 -0.3320  0.3023 -0.3661
   60MOL   C12312041   4.048   6.962   2.614  0.1458 -0.0886 -0.8991
   60MOL   C12412042   4.069   7.098   2.683  0.1892 -0.3144  0.3461
   60MOL   O12512043   3.982   7.189   2.675  0.0214  0.1949  0.5165
   60MOL   N12612044   4.183   7.116   2.745  0.4684 -0.3404  0.2202
   60MOL   H12712045   4.008   6.897   2.812 -3.1457  0.9107  0.7484
   60MOL   H12812046   3.868   6.923   2.726 -0.0075  0.7698  0.5648
   60MOL   H12912047   4.148   6.924   2.592 -0.2292 -1.1661 -0.7753
   60MOL   H13012048   4.258   7.048   2.751 -0.6306 -1.5192  0.6549
   60MOL   H13112049   4.207   7.206   2.784  0.3299  0.8385 -2.3206
   60MOL   C13212050   3.972   6.973   2.474  0.5233  0.2210 -0.5914
   60MOL   C13312051   4.034   7.073   2.372 -0.3158 -0.0362  0.4522
   60MOL   C13412052   3.928   7.111   2.270  0.9195  1.0427  0.0885
   60MOL   O13512053   3.912   7.051   2.161 -0.3563  0.4670  0.7577
   60MOL   N13612054   3.844   7.210   2.300  0.1945 -0.5239 -0.2168
   60MOL   H13712055   3.872   7.005   2.503  0.7027  0.9670 -0.7924
   60MOL   H13812056   3.959   6.875   2.427  1.6831 -0.0511 -0.3535
   60MOL   H13912057   4.052   7.168   2.422 -1.1188  0.4027 -0.0642
   60MOL   H14012058   3.845   7.266   2.385 -3.8779 -1.8661  0.8333
   60MOL   H14112059   3.772   7.229   2.231  0.9062  1.7538 -0.3639
   60MOL   C14212060   4.171   7.022   2.313 -0.1644  0.3795 -0.3081
   60MOL   C14312061   4.292   7.117   2.326  0.1693 -0.1424  0.9024
   60MOL   C14412062   4.355   7.133   2.466 -0.0448 -0.7715 -0.5723
   60MOL   O14512063   4.363   7.247   2.514  0.1234  0.3641  0.1201
   60MOL   N14612064   4.400   7.028   2.526 -0.1553 -0.0033  0.7907
   60MOL   H14712065   4.154   6.978   2.215  0.0144 -1.7853  0.6032
   60MOL   H14812066   4.198   6.933   2.369 -0.9909  0.0359 -0.4545
   60MOL   H14912067   4.379   7.069   2.281 -0.3437 -0.0239 -0.2284
   60MOL   H15012068   4.434   7.049   2.618  2.1098 -1.0804  0.2331
   60MOL   H15112069   4.387   6.935   2.490 -2.8518  0.4517  0.4397
   60MOL   C15212070   4.271   7.256   2.246 -0.5441  0.1481  0.3233
   60MOL   C15312071   4.252   7.243   2.091 -0.3455 -0.8299 -0.0915
   60MOL   C15412072   4.384   7.194   2.037 -0.4565  0.0098 -0.1887
   60MOL   O15512073   4.488   7.249   2.067  0.7747  0.0577  0.6134
   60MOL   N15612074   4.387   7.082   1.965 -0.4548  0.4727 -0.3567
   60MOL   H15712075   4.350   7.329   2.265  2.4400 -1.8015 -3.7703
   60MOL   H15812076   4.183   7.305   2.288  0.3273  0.4500  1.8377
   60MOL   H15912077   4.167   7.178   2.076 -0.3130 -0.2458 -3.0746
   60MOL   H16012078   4.475   7.057   1.923 -1.6886 -3.1076 -1.0007
   60MOL   H16112079   4.300   7.035   1.944  0.2960 -1.0073 -0.2022
   60MOL   C16212080   4.225   7.380   2.029 -0.1167 -0.3603 -1.1340
   60MOL   C16312081   4.077   7.393   1.976 -0.3290  0.1528 -0.3926
   60MOL   C16412082   4.062   7.316   1.852  0.1469  0.3529 -0.0734
   60MOL   O16512083   4.159   7.268   1.802  0.0860 -0.5079 -0.2038
   60MOL   N16612084   3.944   7.314   1.797  0.0272  0.0488 -0.5188
   60MOL   H16712085   4.293   7.401   1.946 -2.0605  0.6878 -2.5208
   60MOL   H16812086   4.240   7.461   2.100  2.6897 -1.7569 -0.0738
   60MOL   H16912087   4.009   7.341   2.043 -1.1196  1.2863 -0.2848
   60MOL   H17012088   3.859   7.328   1.850 -0.0934  1.6621 -1.0981
   60MOL   H17112089   3.934   7.260   1.712  1.0413  0.5668 -0.9757
   60MOL   C17212090   4.038   7.547   1.969 -0.2226 -0.3573  0.2516
   60MOL   C17312091   4.007   7.627   2.104  0.0180  0.5184  0.7579
   60MOL   C17412092   3.870   7.581   2.158 -0.0106  0.3569  0.3338
   60MOL   O17512093   3.780   7.537   2.080  0.2569 -0.4943 -0.3311
   60MOL   N17612094   3.857   7.583   2.292  0.2484  0.1477  0.3313
   60MOL   H17712095   3.962   7.569   1.895 -0.1437 -0.0219  0.2679
   60MOL   H17812096   4.121   7.605   1.930  0.5370 -0.6286  1.4343
   60MOL   H17912097   4.093   7.619   2.171  1.5159 -0.3931 -1.2270
   60MOL   H18012098   3.772   7.542   2.327 -0.9066  1.7422 -0.5514
   60MOL   H18112099   3.931   7.616   2.353  1.8253 -0.2565 -1.2960
   60MOL   C18212100   4.004   0.127   2.075 -0.3443  0.7551  0.6693
   60MOL   C18312101   4.105   0.213   2.149  0.3048 -0.0564 -0.4318
   60MOL   C18412102   4.094   0.194   2.298 -0.0887  0.6052 -0.6504
   60MOL   O18512103   3.989   0.198   2.365 -0.1712 -0.4111 -0.3057
   60MOL   N18612104   4.210   0.156   2.350  0.7270  0.4505 -0.1221
   60MOL   H18712105   3.905   0.169   2.096 -2.1185 -1.8201 -2.0972
   60MOL   H18812106   4.006   0.151   1.969  2.6714  2.1529  1.0118
   60MOL   H18912107   4.204   0.191   2.110  0.6346  0.7141 -0.0466
   60MOL   H19012108   4.289   0.140   2.289 -0.5301  1.8357 -2.1803
   60MOL   H19112109   4.226   0.131   2.446  1.1458 -1.8880 -0.7775
   60MOL   C19212110   4.086   0.361   2.114  0.4677 -0.9474 -0.0032
   60MOL   C19312111   4.105   0.409   1.968 -0.1125  0.0570  0.3385
   60MOL   C19412112   4.249   0.435   1.935  0.2927 -0.4269 -0.0723
   60MOL   O19512113   4.338   0.419   2.018  0.0399 -0.3706 -0.3800
   60MOL   N19612114   4.278   0.466   1.811  0.3241 -0.5433 -0.0683
   60MOL   H19712115   4.134   0.434   2.179  2.1428 -1.5866 -0.4822
   60MOL   H19812116   3.981   0.384   2.130  1.1589  0.3458  3.0039
   60MOL   H19912117   4.067   0.335   1.898  2.4477 -0.1107 -0.9270
   60MOL   H20012118   4.375   0.482   1.788  0.6454 -0.7388  1.1705
   60MOL   H20112119   4.206   0.483   1.742  0.5683  0.2178 -0.1479
   60MOL   H20212120   4.055   0.500   1.936 -0.2041 -0.7153 -1.8014
   61MOL     C112121   3.536   4.655   2.561 -0.1954  0.1413 -0.6960
   61MOL     C212122   3.546   4.739   2.435 -0.2881 -0.1617 -0.9441
   61MOL     C312123   3.664   4.836   2.449  0.1695  0.7242  0.0312
   61MOL     O412124   3.667   4.913   2.546  0.0168  0.2914 -0.1875
   61MOL     N512125   3.764   4.823   2.365  0.1041  0.8236  0.3272
   61MOL     H612126   3.631   4.626   2.606 -1.3966 -2.5857  0.1516
   61MOL     H712127   3.498   4.723   2.637 -1.5525 -0.4881 -0.8033
   61MOL     H812128   3.575   4.664   2.361 -0.3339 -1.5048  0.3811
   61MOL     H912129   3.753   4.761   2.286  1.5860 -0.0679  0.7876
   61MOL    H1012130   3.851   4.874   2.371  1.4852 -1.0011 -2.5747
   61MOL    H1112131   3.472   4.567   2.556 -1.0644  0.6411  1.1888
   61MOL    C1212132   3.405   4.810   2.416 -0.0013 -0.2512 -0.5414
   61MOL    C1312133   3.395   4.901   2.291  0.9826  0.8192 -0.3706
   61MOL    C1412134   3.264   4.985   2.284  0.1692 -0.1910  0.6653
   61MOL    O1512135   3.153   4.942   2.252  0.4126  0.3073  0.3427
   61MOL    N1612136   3.276   5.108   2.321  0.4888 -0.7638 -0.2389
   61MOL    H1712137   3.383   4.868   2.505  0.3808  0.8275 -1.1323
   61MOL    H1812138   3.335   4.728   2.401  0.3938 -0.4756 -1.2179
   61MOL    H1912139   3.483   4.965   2.290  1.8840 -0.3300  1.7093
   61MOL    H2012140   3.365   5.144   2.352  0.4666  1.0583 -2.1914
   61MOL    H2112141   3.194   5.166   2.327 -0.0088 -1.3647 -1.0677
   61MOL    C2212142   3.418   4.814   2.163 -0.0500  0.2365  0.5779
   61MOL    C2312143   3.432   4.893   2.032  0.5198  0.6199  0.1652
   61MOL    C2412144   3.373   4.820   1.916  0.1087  0.1283 -0.3964
   61MOL    O2512145   3.396   4.699   1.906  0.3145 -0.0220 -0.5007
   61MOL    N2612146   3.319   4.887   1.813  0.2976 -0.3151 -0.2095
   61MOL    H2712147   3.324   4.761   2.150  0.6762 -0.9353  0.0183
   61MOL    H2812148   3.495   4.739   2.181 -0.3221  0.2300  1.7023
   61MOL    H2912149   3.383   4.989   2.041  1.0140  0.6909  2.1553
   61MOL    H3012150   3.282   4.824   1.743 -1.3721  0.8448 -0.4130
   61MOL    H3112151   3.315   4.988   1.823  1.3476 -0.2621 -0.2372
   61MOL    C3212152   3.579   4.932   1.998 -0.0625  0.1928 -0.3041
   61MOL    C3312153   3.682   4.834   1.928  0.0230  0.2035 -0.3638
   61MOL    C3412154   3.694   4.695   2.001  0.4433  0.1866  0.5277
   61MOL    O3512155   3.747   4.711   2.114 -0.5195 -0.0568 -0.0771
   61MOL    N3612156   3.649   4.580   1.958 -0.1607  0.1783 -0.2926
   61MOL    H3712157   3.614   4.971   2.093 -2.2430 -0.2226  0.6935
   61MOL    H3812158   3.575   5.018   1.931  1.7413 -0.0535 -0.7797
   61MOL    H3912159   3.648   4.820   1.826  1.8208 -1.2138 -0.7972
   61MOL    H4012160   3.610   4.585   1.864 -3.4762 -1.4438  0.9128
   61MOL    H4112161   3.641   4.503   2.023 -0.7683  0.3277 -0.1813
   61MOL    C4212162   3.816   4.910   1.922  0.8121  0.4105 -0.3406
   61MOL    C4312163   3.926   4.833   1.844 -0.1619  0.0455  0.1263
   61MOL    C4412164   4.063   4.849   1.906  0.1243  0.0912 -0.1065
   61MOL    O4512165   4.158   4.916   1.862 -0.7415  0.1981 -0.4241
   61MOL    N4612166   4.081   4.775   2.009  0.6825  0.2496  0.8092
   61MOL    H4712167   3.850   4.925   2.025  1.1839 -2.9680  0.0913
   61MOL    H4812168   3.800   5.010   1.881  0.8146  0.2480 -0.7358
   61MOL    H4912169   3.903   4.727   1.852  0.2584 -0.0972 -0.5774
   61MOL    H5012170   4.000   4.726   2.045  0.2805 -0.2595 -0.7624
   61MOL    H5112171   4.158   4.765   2.074  0.6069 -1.6556  0.6333
   61MOL    C5212172   3.929   4.865   1.692  0.0163 -0.5402  0.6311
   61MOL    C5312173   3.988   4.745   1.601  0.5514  0.3329  0.2242
   61MOL    C5412174   4.142   4.735   1.603 -0.1635 -0.0058 -0.2616
   61MOL    O5512175   4.202   4.625   1.616 -0.0633  0.6782  0.0909
   61MOL    N5612176   4.211   4.842   1.567  0.5845 -0.7851  0.4553
   61MOL    H5712177   3.978   4.959   1.668  0.1505 -1.0159 -0.9856
   61MOL    H5812178   3.824   4.886   1.672 -0.2448 -2.9432 -0.6892
   61MOL    H5912179   3.961   4.645   1.634  0.9131  0.3396  0.5419
   61MOL    H6012180   4.310   4.854   1.551  0.6604 -1.9349  0.0000
   61MOL    H6112181   4.151   4.922   1.550  2.6290  0.3654 -1.5125
   61MOL    C6212182   3.935   4.734   1.453  0.5173  0.4448  0.0102
   61MOL    C6312183   3.780   4.715   1.441  0.1229  0.5339  0.6170
   61MOL    C6412184   3.718   4.598   1.515  0.1163  0.7668 -0.1180
   61MOL    O6512185   3.636   4.611   1.604  0.0776 -0.2972 -0.3477
   61MOL    N6612186   3.756   4.475   1.475  0.3381  0.1533 -0.1115
   61MOL    H6712187   3.994   4.664   1.394  2.5806  1.2006  1.1458
   61MOL    H6812188   3.959   4.830   1.407  0.9374  0.6034  0.5530
   61MOL    H6912189   3.730   4.797   1.493 -1.4497 -0.5451  0.8436
   61MOL    H7012190   3.815   4.470   1.393  0.5506  0.4111  0.0280
   61MOL    H7112191   3.718   4.398   1.529  0.3132 -0.7131 -1.3332
   61MOL    C7212192   3.740   4.713   1.290  0.0324 -0.9407  0.5982
   61MOL    C7312193   3.592   4.728   1.259 -0.2767  0.7385  0.3820
   61MOL    C7412194   3.559   4.660   1.120 -0.0590  0.1087  0.3198
   61MOL    O7512195   3.648   4.656   1.027 -0.6779 -0.2938  0.0300
   61MOL    N7612196   3.442   4.599   1.093 -0.7907  0.0199  0.5641
   61MOL    H7712197   3.777   4.616   1.257  1.0139 -0.4998  0.3856
   61MOL    H7812198   3.788   4.787   1.226 -3.3055  0.5375 -0.3069
   61MOL    H7912199   3.536   4.680   1.339 -0.1645  0.4846  0.3072
   61MOL    H8012200   3.372   4.587   1.165 -0.0972 -1.1050  1.0704
   61MOL    H8112201   3.419   4.579   0.997  0.7794  2.2262 -0.3151
   61MOL    C8212202   3.535   4.876   1.255 -0.2180 -0.5232  0.7919
   61MOL    C8312203   3.470   4.939   1.382 -0.5206  0.2723 -0.4673
   61MOL    C8412204   3.332   4.880   1.412  0.1105  0.1646 -0.4848
   61MOL    O8512205   3.224   4.934   1.376 -0.2695 -0.2945  0.2640
   61MOL    N8612206   3.330   4.757   1.464  0.3323  0.1307  0.5850
   61MOL    H8712207   3.466   4.891   1.172  0.6966 -0.0158  0.1154
   61MOL    H8812208   3.618   4.937   1.221  0.0455 -0.6806  1.1474
   61MOL    H8912209   3.542   4.908   1.458  0.6793  1.1604 -1.2291
   61MOL    H9012210   3.248   4.710   1.499 -1.0968  0.4272 -2.1633
   61MOL    H9112211   3.412   4.709   1.499 -1.0718 -1.0430  2.3434
   61MOL    C9212212   3.471   5.089   1.391  0.6583  0.4446 -0.0321
   61MOL    C9312213   3.588   5.153   1.467 -0.2183 -0.8013  0.0269
   61MOL    C9412214   3.576   5.139   1.617 -0.4962 -0.2214 -0.0116
   61MOL    O9512215   3.471   5.103   1.676 -0.0944  0.0190  0.1742
   61MOL    N9612216   3.680   5.171   1.688  0.1734 -0.2540  0.5845
   61MOL    H9712217   3.382   5.125   1.444  1.2339  3.5434 -1.0584
   61MOL    H9812218   3.472   5.122   1.287  1.4810 -0.6441 -0.3809
   61MOL    H9912219   3.677   5.098   1.434  0.1643  0.0867 -0.4465
   61MOL   H10012220   3.770   5.186   1.644  0.8525 -1.8116  1.3846
   61MOL   H10112221   3.675   5.184   1.788  4.0172 -1.6880  1.0696
   61MOL   C10212222   3.625   5.299   1.434  0.5004 -0.1829 -0.3066
   61MOL   C10312223   3.517   5.406   1.490 -0.1747 -0.0105 -0.4703
   61MOL   C10412224   3.385   5.392   1.426  1.1057  0.8896  0.4516
   61MOL   O10512225   3.375   5.395   1.307 -0.8880  0.3620  0.1768
   61MOL   N10612226   3.279   5.389   1.515 -0.7038 -0.1975  0.2824
   61MOL   H10712227   3.634   5.299   1.325 -1.9199 -0.6676 -0.5311
   61MOL   H10812228   3.729   5.318   1.462  1.0632 -2.5711 -0.5828
   61MOL   H10912229   3.504   5.398   1.598 -0.5426 -0.0754 -0.5171
   61MOL   H11012230   3.290   5.404   1.614 -1.2518  0.1245  0.2971
   61MOL   H11112231   3.188   5.366   1.480  0.2174  0.9078 -3.0248
   61MOL   C11212232   3.587   5.545   1.460  0.6487  0.1722 -0.0112
   61MOL   C11312233   3.519   5.669   1.519  0.1849  0.0372 -0.2259
   61MOL   C11412234   3.505   5.665   1.670  0.4079 -0.0425  0.9427
   61MOL   O11512235   3.596   5.625   1.742  0.6099 -0.0809  0.0028
   61MOL   N11612236   3.398   5.714   1.726  0.2180  0.5419  0.0210
   61MOL   H11712237   3.603   5.552   1.353  0.1985 -0.2356 -0.1071
   61MOL   H11812238   3.690   5.543   1.496  1.2770  0.5502 -1.7344
   61MOL   H11912239   3.587   5.753   1.507  0.4237 -0.0335  0.6161
   61MOL   H12012240   3.400   5.721   1.827  1.4176  0.7780 -0.0078
   61MOL   H12112241   3.344   5.779   1.671 -1.6608 -0.1728  0.9675
   61MOL   C12212242   3.390   5.700   1.443 -0.0700  0.3104 -0.0614
   61MOL   C12312243   3.363   5.841   1.385  0.3697 -0.5254 -0.4350
   61MOL   C12412244   3.354   5.957   1.484 -0.2538  0.1106 -0.9581
   61MOL   O12512245   3.274   5.959   1.579 -0.2477  0.4414  0.0860
   61MOL   N12612246   3.435   6.059   1.464  0.1006  0.3361 -0.2430
   61MOL   H12712247   3.297   5.668   1.489  0.9654 -0.6330  1.4103
   61MOL   H12812248   3.394   5.638   1.353 -1.8165 -1.6138  1.1622
   61MOL   H12912249   3.448   5.865   1.321 -0.3077 -1.8423 -1.8903
   61MOL   H13012250   3.427   6.149   1.510 -3.0709 -0.4211  0.8524
   61MOL   H13112251   3.489   6.050   1.379 -0.9467  0.0948 -0.9014
   61MOL   C13212252   3.239   5.840   1.298  0.4413 -0.2035 -1.0058
   61MOL   C13312253   3.201   5.969   1.209  0.8772 -0.2200 -0.0884
   61MOL   C13412254   3.082   5.927   1.122  0.6091 -0.1949 -0.9142
   61MOL   O13512255   2.980   5.996   1.129  0.2144  0.6824 -0.0414
   61MOL   N13612256   3.091   5.817   1.051 -0.4439  0.8701 -1.0520
   61MOL   H13712257   3.154   5.799   1.352  1.6892 -2.9774 -1.0775
   61MOL   H13812258   3.271   5.764   1.228 -1.0069 -2.3383  0.5934
   61MOL   H13912259   3.156   6.043   1.274  1.7404 -0.7802  1.1792
   61MOL   H14012260   3.011   5.777   1.005 -0.2660 -0.9717  0.2097
   61MOL   H14112261   3.173   5.759   1.061  0.3851  2.2193  0.2200
   61MOL   C14212262   3.320   6.021   1.122  0.2536 -0.7374 -0.1221
   61MOL   C14312263   3.301   6.154   1.068 -0.1096 -1.1932  0.2579
   61MOL   C14412264   3.398   6.171   0.941  0.1495 -0.6179 -0.2996
   61MOL   O14512265   3.520   6.195   0.943 -0.2644 -0.2721 -0.5193
   61MOL   N14612266   3.333   6.183   0.826  0.6198  0.0333 -0.2336
   61MOL   H14712267   3.345   5.951   1.042  0.8538  1.0049 -1.4901
   61MOL   H14812268   3.413   6.007   1.178 -0.2326  1.0910  1.1932
   61MOL   H14912269   3.197   6.173   1.042 -0.2625  1.0541  2.3119
   61MOL   H15012270   3.232   6.194   0.826  0.5955 -0.1170  1.4058
   61MOL   H15112271   3.386   6.183   0.740  0.2134 -0.3455 -0.4905
   61MOL   C15212272   3.341   6.266   1.173  0.0344 -0.7650 -0.0370
   61MOL   C15312273   3.227   6.341   1.244  0.4985  0.0507 -0.1480
   61MOL   C15412274   3.152   6.420   1.141 -0.3374  0.4035  0.5163
   61MOL   O15512275   3.208   6.493   1.071 -0.0079  0.7531 -0.0331
   61MOL   N15612276   3.022   6.402   1.129 -0.1455  0.0227  0.1224
   61MOL   H15712277   3.409   6.342   1.135  2.8559 -3.3693 -0.4367
   61MOL   H15812278   3.415   6.229   1.244 -0.5090 -0.6433  0.5946
   61MOL   H15912279   3.158   6.263   1.276 -0.1912 -0.0201 -1.7070
   61MOL   H16012280   2.972   6.338   1.190 -3.0787 -0.0175 -2.2470
   61MOL   H16112281   2.965   6.465   1.076 -0.0602  0.3480  0.4113
   61MOL   C16212282   3.278   6.426   1.367 -0.4730 -0.6789  0.3980
   61MOL   C16312283   3.182   6.443   1.490  0.4005  0.0846 -0.5387
   61MOL   C16412284   3.111   6.585   1.489  0.3441 -0.4157  0.1492
   61MOL   O16512285   3.174   6.686   1.511 -0.1536 -0.1805  0.4020
   61MOL   N16612286   2.982   6.591   1.476 -0.2225  0.1557 -0.4750
   61MOL   H16712287   3.307   6.524   1.330 -0.3592 -0.6589  0.5436
   61MOL   H16812288   3.357   6.363   1.409 -0.2442  0.2594  1.3874
   61MOL   H16912289   3.102   6.369   1.488 -0.0084  0.5515 -2.3177
   61MOL   H17012290   2.926   6.508   1.463 -1.0795  0.5928  0.3668
   61MOL   H17112291   2.937   6.679   1.496  0.3046  0.4105 -0.4152
   61MOL   C17212292   3.254   6.417   1.627  0.6377 -0.6371  0.0288
   61MOL   C17312293   3.252   6.277   1.671 -0.5455 -0.0871  0.4407
   61MOL   C17412294   3.117   6.240   1.741  0.3922  0.4935  0.5003
   61MOL   O17512295   3.053   6.329   1.803  0.1149 -0.4904 -1.0011
   61MOL   N17612296   3.076   6.112   1.734 -0.2322 -0.3579 -0.3836
   61MOL   H17712297   3.222   6.478   1.712 -0.0209  0.5201 -1.0383
   61MOL   H17812298   3.349   6.467   1.610  0.2897 -1.0593 -3.5657
   61MOL   H17912299   3.251   6.217   1.580 -2.5568 -1.0877  1.0848
   61MOL   H18012300   3.127   6.037   1.690  2.4430  1.2206 -0.1099
   61MOL   H18112301   2.981   6.085   1.757 -1.0336  2.8185  0.3341
   61MOL   C18212302   3.372   6.237   1.760 -0.0801  1.1404 -0.1173
   61MOL   C18312303   3.395   6.322   1.886 -0.3329 -0.0163  0.1518
   61MOL   C18412304   3.498   6.433   1.867  0.0220  0.1375  0.7815
   61MOL   O18512305   3.448   6.542   1.835 -0.0424 -0.3094 -0.1959
   61MOL   N18612306   3.621   6.404   1.847  0.1157 -0.0912 -0.1270
   61MOL   H18712307   3.464   6.239   1.702 -0.0306 -2.0397 -0.2538
   61MOL   H18812308   3.372   6.133   1.793  1.7080  1.9249  2.5304
   61MOL   H18912309   3.303   6.375   1.908 -1.6105 -2.6965  1.5312
   61MOL   H19012310   3.685   6.482   1.853  1.2139 -0.9420 -0.6180
   61MOL   H19112311   3.656   6.309   1.854 -0.0253 -0.0885  0.6418
   61MOL   C19212312   3.424   6.239   2.011  1.0214  0.1011  0.4089
   61MOL   C19312313   3.300   6.162   2.067 -0.0947 -0.3934  0.7525
   61MOL   C19412314   3.326   6.012   2.077  0.2968 -0.6968  0.4665
   61MOL   O19512315   3.386   5.964   2.168 -0.9730 -0.0535 -0.1860
   61MOL   N19612316   3.279   5.932   1.987 -0.1584  0.4899 -0.3167
   61MOL   H19712317   3.479   6.298   2.085 -0.5309  1.7008  0.3249
   61MOL   H19812318   3.503   6.171   1.982  0.5382 -0.1266 -0.3722
   61MOL   H19912319   3.287   6.200   2.168  1.8245  3.5636 -0.4021
   61MOL   H20012320   3.209   5.971   1.926 -0.1107  1.2321  0.1040
   61MOL   H20112321   3.289   5.833   2.003 -1.2984  0.6737  1.6136
   61MOL   H20212322   3.208   6.177   2.010 -0.8137 -3.0920  1.1390
   62MOL     C112323   0.386   4.403   4.294  0.4317  0.3347 -0.5043
   62MOL     C212324   0.531   4.349   4.337 -0.7435  0.5050  0.3525
   62MOL     C312325   0.607   4.300   4.212 -0.2388 -0.1412 -0.5513
   62MOL     O412326   0.618   4.177   4.181 -0.2171 -0.0157  0.3650
   62MOL     N512327   0.660   4.390   4.122  0.5824  0.8490  0.3303
   62MOL     H612328   0.363   4.488   4.358 -0.2466  0.5317 -1.0104
   62MOL     H712329   0.379   4.432   4.189  2.9892  2.8359 -0.0596
   62MOL     H812330   0.589   4.429   4.382  0.4975 -1.3821  2.1879
   62MOL     H912331   0.695   4.366   4.030 -1.6737  1.9102 -0.8524
   62MOL    H1012332   0.649   4.489   4.139 -1.4576  0.4237  1.5250
   62MOL    H1112333   0.304   4.333   4.304  0.0857  0.4493 -2.4505
   62MOL    C1212334   0.511   4.248   4.446  0.2222  0.0057  0.0638
   62MOL    C1312335   0.428   4.293   4.568  0.4528 -0.0386  0.9618
   62MOL    C1412336   0.492   4.409   4.639 -0.0401 -0.0732  0.0515
   62MOL    O1512337   0.611   4.418   4.654 -0.1555 -0.1803 -0.0499
   62MOL    N1612338   0.409   4.507   4.683  0.4309  0.0991 -0.4525
   62MOL    H1712339   0.608   4.213   4.482  0.7964 -0.8718 -2.2445
   62MOL    H1812340   0.459   4.159   4.410 -0.6315  0.4947  0.0815
   62MOL    H1912341   0.334   4.330   4.528  1.8869  1.9330 -0.6967
   62MOL    H2012342   0.453   4.560   4.757 -1.9362  0.1732  0.9495
   62MOL    H2112343   0.308   4.511   4.675  0.2066 -0.8379  1.4367
   62MOL    C2212344   0.381   4.190   4.673  0.0811 -0.9127  0.3379
   62MOL    C2312345   0.474   4.135   4.780  0.6673 -0.2890  0.2780
   62MOL    C2412346   0.611   4.070   4.727  0.1541  0.0507 -0.6203
   62MOL    O2512347   0.626   3.950   4.718 -0.2475  0.3067  0.0352
   62MOL    N2612348   0.712   4.156   4.713 -0.1105  0.4779  0.6834
   62MOL    H2712349   0.322   4.112   4.624 -0.9365  0.4452 -0.6524
   62MOL    H2812350   0.307   4.236   4.738  2.4939  0.7258  2.0029
   62MOL    H2912351   0.502   4.219   4.844 -0.9336  0.6709 -0.2591
   62MOL    H3012352   0.696   4.256   4.717 -0.3491  0.6379 -2.3738
   62MOL    H3112353   0.790   4.126   4.656 -0.3647 -0.6292  0.9155
   62MOL    C3212354   0.394   4.041   4.875 -0.6987  0.0636 -0.2869
   62MOL    C3312355   0.440   4.029   5.019 -0.2018  0.2780 -0.1124
   62MOL    C3412356   0.390   3.907   5.100 -0.5783 -0.4406  0.5176
   62MOL    O3512357   0.273   3.890   5.135  0.0101 -0.6722  0.1759
   62MOL    N3612358   0.482   3.811   5.132 -0.4126  0.3732 -0.2828
   62MOL    H3712359   0.404   3.939   4.837  0.3745 -0.5191  1.4819
   62MOL    H3812360   0.287   4.061   4.882 -1.0893 -2.1769  0.7066
   62MOL    H3912361   0.548   4.015   5.011 -0.4283 -2.0891  0.4044
   62MOL    H4012362   0.453   3.736   5.193 -1.3901  2.2908  1.6987
   62MOL    H4112363   0.572   3.806   5.086 -0.4934 -2.6767 -0.1597
   62MOL    C4212364   0.393   4.163   5.088  0.0072 -0.0291 -0.7293
   62MOL    C4312365   0.498   4.246   5.163  0.8302 -0.2399  0.0296
   62MOL    C4412366   0.488   4.204   5.310 -0.3337 -1.2864 -0.6054
   62MOL    O4512367   0.392   4.245   5.379  0.0422 -0.2562 -0.7363
   62MOL    N4612368   0.597   4.152   5.366 -0.2851  1.5781  0.8414
   62MOL    H4712369   0.310   4.138   5.154  2.3972 -3.0886  1.2250
   62MOL    H4812370   0.344   4.226   5.013 -0.8895  0.3404  0.1512
   62MOL    H4912371   0.601   4.234   5.130  0.9094 -0.5228  0.3781
   62MOL    H5012372   0.599   4.135   5.465 -0.6606  0.7060  0.7010
   62MOL    H5112373   0.686   4.155   5.319 -1.3500 -0.1542 -1.4180
   62MOL    C5212374   0.479   4.400   5.138  0.0705  0.1939  0.2610
   62MOL    C5312375   0.585   4.499   5.197 -0.1355 -0.0667 -0.4831
   62MOL    C5412376   0.593   4.504   5.349 -0.2485 -0.3059  0.0752
   62MOL    O5512377   0.509   4.550   5.428 -0.4590  0.0782  0.0752
   62MOL    N5612378   0.702   4.452   5.404  0.2554  0.2690 -0.0134
   62MOL    H5712379   0.383   4.443   5.168  0.2101  1.5789 -1.2110
   62MOL    H5812380   0.490   4.420   5.032 -2.4638  1.8922  0.2488
   62MOL    H5912381   0.677   4.453   5.160  0.3703  0.9752 -0.5447
   62MOL    H6012382   0.776   4.409   5.349 -1.7341 -1.1169 -1.6705
   62MOL    H6112383   0.725   4.470   5.500 -1.0599  4.1507 -0.3282
   62MOL    C6212384   0.576   4.642   5.136 -0.4819 -0.2419  0.5444
   62MOL    C6312385   0.441   4.723   5.145  0.9452 -0.0862 -0.7436
   62MOL    C6412386   0.361   4.720   5.012 -0.3636  0.1901 -0.2638
   62MOL    O6512387   0.415   4.708   4.906 -0.6403 -0.3211  0.0433
   62MOL    N6612388   0.229   4.728   5.032 -0.4594  0.2465  0.2837
   62MOL    H6712389   0.602   4.635   5.030 -1.5475  0.6489  0.2113
   62MOL    H6812390   0.656   4.696   5.186 -1.1819  0.5243  0.8561
   62MOL    H6912391   0.379   4.664   5.213 -2.1848  2.3070 -1.4215
   62MOL    H7012392   0.167   4.733   4.953  0.6377 -1.6051 -0.7489
   62MOL    H7112393   0.182   4.733   5.121  2.4066  2.3250  1.7651
   62MOL    C7212394   0.466   4.871   5.189 -0.4282  0.0441 -0.0400
   62MOL    C7312395   0.468   4.892   5.340  0.4515  0.1481 -0.5350
   62MOL    C7412396   0.326   4.874   5.403 -0.4757 -0.5499 -0.1186
   62MOL    O7512397   0.231   4.956   5.383 -0.1924  0.5982 -0.2644
   62MOL    N7612398   0.304   4.762   5.464  0.2502 -0.0754 -0.3693
   62MOL    H7712399   0.381   4.930   5.153  0.0869  0.6797 -0.2311
   62MOL    H7812400   0.557   4.916   5.148 -0.5534  0.3993  0.0734
   62MOL    H7912401   0.527   4.808   5.378 -1.7116 -0.7339  0.9848
   62MOL    H8012402   0.375   4.690   5.469  0.2914  0.0095  0.2633
   62MOL    H8112403   0.213   4.738   5.501 -0.4876  1.8933 -0.8703
   62MOL    C8212404   0.535   5.025   5.381  0.2050  0.6863  0.8181
   62MOL    C8312405   0.610   5.022   5.511  0.1647 -0.8362 -0.1663
   62MOL    C8412406   0.623   5.164   5.569 -0.2168 -0.2168 -0.1869
   62MOL    O8512407   0.693   5.249   5.511 -0.0811  0.0190  0.3399
   62MOL    N8612408   0.563   5.189   5.679  0.0987  0.3249 -0.2918
   62MOL    H8712409   0.479   5.118   5.381  0.7173  0.9984  1.5098
   62MOL    H8812410   0.607   5.058   5.306 -0.2922 -3.7860 -1.8174
   62MOL    H8912411   0.544   4.979   5.587 -1.8284  3.1758  0.4951
   62MOL    H9012412   0.569   5.284   5.712 -1.3570  0.8716 -1.5533
   62MOL    H9112413   0.495   5.126   5.721  0.3312  0.2093 -0.0872
   62MOL    C9212414   0.740   4.941   5.510 -0.6053 -0.1845  0.6799
   62MOL    C9312415   0.877   5.009   5.470 -0.3907 -0.3325  0.4028
   62MOL    C9412416   0.878   5.071   5.331 -0.1847  0.7121  0.0376
   62MOL    O9512417   0.890   5.004   5.231 -0.6340  0.0314  0.6448
   62MOL    N9612418   0.886   5.199   5.315  0.4120 -1.3316  0.5101
   62MOL    H9712419   0.732   4.847   5.457 -1.4956 -0.1321  0.7123
   62MOL    H9812420   0.755   4.911   5.614  1.2711  1.6266  0.9690
   62MOL    H9912421   0.901   5.092   5.536  1.5351 -0.2255 -0.3937
   62MOL   H10012422   0.886   5.246   5.226 -0.7056  0.3425  1.3627
   62MOL   H10112423   0.843   5.254   5.388  1.4238  2.3914 -1.5828
   62MOL   C10212424   0.985   4.891   5.470  0.4564 -1.1140 -0.1896
   62MOL   C10312425   1.042   4.823   5.592  0.1811  0.8266 -0.4770
   62MOL   C10412426   1.133   4.921   5.665  0.3888 -0.1242  0.0436
   62MOL   O10512427   1.259   4.912   5.647  0.2660 -0.4641 -0.6546
   62MOL   N10612428   1.086   5.012   5.747  1.0871 -0.7824  0.1856
   62MOL   H10712429   1.076   4.925   5.421  0.2661 -0.8464 -0.3663
   62MOL   H10812430   0.937   4.818   5.405  0.9115 -2.6760  1.2298
   62MOL   H10912431   0.961   4.790   5.657  1.0524 -1.3066 -0.4197
   62MOL   H11012432   0.986   5.029   5.751  1.2751  1.2882 -2.6139
   62MOL   H11112433   1.153   5.068   5.799 -1.0556  0.3391  1.8256
   62MOL   C11212434   1.111   4.691   5.554 -0.0971  0.7804 -0.2528
   62MOL   C11312435   1.031   4.580   5.483  0.2543 -0.0493 -0.7857
   62MOL   C11412436   0.976   4.481   5.583  0.4478 -1.0811  0.2925
   62MOL   O11512437   0.906   4.525   5.671 -0.0440  0.1403  0.3695
   62MOL   N11612438   1.002   4.353   5.571  0.5451 -0.4623 -0.4779
   62MOL   H11712439   1.156   4.648   5.643  0.8308  3.1782  0.4805
   62MOL   H11812440   1.194   4.709   5.486  0.5268  0.2765  0.3696
   62MOL   H11912441   0.940   4.613   5.433 -0.3342 -0.6526 -0.1197
   62MOL   H12012442   0.969   4.290   5.644  1.2217 -0.6334 -0.3177
   62MOL   H12112443   1.069   4.319   5.504 -0.3115  0.5031 -1.8344
   62MOL   C12212444   1.105   4.519   5.362  0.0122 -0.2855 -0.9822
   62MOL   C12312445   1.109   4.612   5.240  0.7542  0.7014  0.0673
   62MOL   C12412446   0.972   4.613   5.167 -0.2548 -0.4203  0.6918
   62MOL   O12512447   0.929   4.516   5.112  0.2892  0.9505 -0.1823
   62MOL   N12612448   0.896   4.724   5.159 -0.0364 -0.5303 -0.4316
   62MOL   H12712449   1.066   4.422   5.331  1.2368 -1.1888  0.2107
   62MOL   H12812450   1.211   4.502   5.382  0.4253  2.3128 -0.7725
   62MOL   H12912451   1.127   4.711   5.280  1.8063  0.1632  0.9655
   62MOL   H13012452   0.801   4.716   5.125  0.5020 -3.7182 -1.3579
   62MOL   H13112453   0.934   4.811   5.192 -1.7725 -0.3399  1.1083
   62MOL   C13212454   1.225   4.577   5.142 -0.4065 -0.1204 -0.5134
   62MOL   C13312455   1.241   4.664   5.017 -0.3244  0.7793 -0.4120
   62MOL   C13412456   1.343   4.606   4.919 -0.3474  0.2965  0.2308
   62MOL   O13512457   1.314   4.590   4.803  0.0306 -0.3403  0.1032
   62MOL   N13612458   1.462   4.576   4.957 -0.0149  0.3655  0.1120
   62MOL   H13712459   1.224   4.471   5.117  1.2517 -0.2779 -0.0320
   62MOL   H13812460   1.321   4.592   5.192 -0.9445  1.7119  0.0124
   62MOL   H13912461   1.145   4.670   4.964  1.1499 -0.3460 -3.3567
   62MOL   H14012462   1.509   4.588   5.046  3.2457 -0.7093 -1.4133
   62MOL   H14112463   1.526   4.534   4.892 -0.0412 -1.3288  1.1556
   62MOL   C14212464   1.264   4.810   5.048  0.2293 -0.2732 -0.0524
   62MOL   C14312465   1.396   4.854   5.109  0.7075 -0.2538 -0.3053
   62MOL   C14412466   1.389   4.856   5.261 -0.5126  0.3262  0.0291
   62MOL   O14512467   1.319   4.933   5.325  0.2061 -0.6205  0.3794
   62MOL   N14612468   1.451   4.756   5.322  0.3173 -0.1204 -0.7723
   62MOL   H14712469   1.178   4.843   5.106 -1.3938  1.9767 -3.5823
   62MOL   H14812470   1.261   4.856   4.949  1.8224  1.9691  0.8851
   62MOL   H14912471   1.474   4.787   5.072  0.9885  1.6807 -3.3696
   62MOL   H15012472   1.496   4.679   5.275  2.1532 -0.1338  0.9310
   62MOL   H15112473   1.428   4.738   5.419 -0.2188  1.3693 -0.6025
   62MOL   C15212474   1.454   4.990   5.052  0.5525 -0.2663  0.3002
   62MOL   C15312475   1.393   5.133   5.093  0.2682 -0.6833  0.5772
   62MOL   C15412476   1.245   5.139   5.052  0.2466  0.9959 -1.0954
   62MOL   O15512477   1.217   5.136   4.938  1.1209 -0.4536  0.1818
   62MOL   N15612478   1.160   5.114   5.154  0.6609 -0.1947  0.2065
   62MOL   H15712479   1.456   4.989   4.943 -1.8699 -0.4251  0.2476
   62MOL   H15812480   1.558   4.981   5.083  0.8809  1.4511 -0.2611
   62MOL   H15912481   1.403   5.150   5.200 -0.2445 -1.2323  0.7160
   62MOL   H16012482   1.190   5.071   5.240  0.8898 -1.5252 -0.5248
   62MOL   H16112483   1.063   5.093   5.138 -0.0013  3.8233 -1.5643
   62MOL   C16212484   1.460   5.260   5.044 -0.0647 -0.0179  0.3185
   62MOL   C16312485   1.516   5.262   4.892  0.1336  0.1492  0.1510
   62MOL   C16412486   1.659   5.193   4.886  0.7053  0.6823  0.1130
   62MOL   O16512487   1.754   5.254   4.938 -0.3755 -0.5617  0.0397
   62MOL   N16612488   1.671   5.080   4.822  0.1771  0.1981 -0.2983
   62MOL   H16712489   1.545   5.283   5.109 -0.2651  0.0529  0.5521
   62MOL   H16812490   1.397   5.345   5.067 -0.8724 -0.5405  0.0424
   62MOL   H16912491   1.456   5.221   4.812 -0.6273  1.5011  0.0251
   62MOL   H17012492   1.760   5.032   4.828  0.0139  0.1618  2.0476
   62MOL   H17112493   1.589   5.042   4.776 -0.8087  0.0700  1.5400
   62MOL   C17212494   1.542   5.409   4.844  0.0728 -0.0611 -0.0515
   62MOL   C17312495   1.429   5.503   4.790  0.1203 -0.2993 -0.0462
   62MOL   C17412496   1.387   5.602   4.902 -0.0980  0.0207  0.6679
   62MOL   O17512497   1.312   5.569   4.990  0.1735  0.4319  0.7871
   62MOL   N17612498   1.417   5.727   4.886  0.2809 -0.1015  0.4020
   62MOL   H17712499   1.623   5.397   4.773 -0.1187  1.3951 -0.5466
   62MOL   H17812500   1.582   5.460   4.932 -3.0407 -0.6663  1.7900
   62MOL   H17912501   1.469   5.567   4.711  2.0174 -0.9643  0.3370
   62MOL   H18012502   1.374   5.796   4.947  0.1423  0.8734 -0.7972
   62MOL   H18112503   1.497   5.750   4.830  0.2520 -0.7702  0.0808
   62MOL   C18212504   1.307   5.426   4.741  0.1705 -0.4211  0.0832
   62MOL   C18312505   1.298   5.354   4.607  0.1329 -0.1567  0.4144
   62MOL   C18412506   1.331   5.452   4.495  0.3397 -0.1106  0.2614
   62MOL   O18512507   1.242   5.517   4.442 -0.2186 -0.3107 -0.0433
   62MOL   N18612508   1.457   5.466   4.455 -0.6167 -0.6227 -0.1739
   62MOL   H18712509   1.230   5.503   4.745  1.9625  1.3405  1.2308
   62MOL   H18812510   1.283   5.357   4.822  0.4065 -1.1275 -0.4358
   62MOL   H18912511   1.372   5.274   4.610  0.3588  0.0391  0.1532
   62MOL   H19012512   1.473   5.555   4.410  0.3094 -0.5465  0.2991
   62MOL   H19112513   1.528   5.434   4.520  1.5611  0.7880 -1.8032
   62MOL   C19212514   1.164   5.280   4.595  0.2399  0.2553 -0.4667
   62MOL   C19312515   1.174   5.134   4.550 -0.1985  0.4258  0.1928
   62MOL   C19412516   1.216   5.106   4.410  0.0724  0.1609  0.4426
   62MOL   O19512517   1.176   5.183   4.322  0.1695 -0.5679 -0.0906
   62MOL   N19612518   1.295   5.002   4.390 -0.0555 -0.4558  0.0538
   62MOL   H19712519   1.100   5.327   4.521 -1.2427  0.9861  1.2585
   62MOL   H19812520   1.113   5.287   4.691 -0.1115 -0.6646 -0.5879
   62MOL   H19912521   1.224   5.075   4.627  0.5168  0.1918 -0.4436
   62MOL   H20012522   1.303   4.963   4.298 -1.5386 -1.2353  0.2258
   62MOL   H20112523   1.303   4.937   4.467 -0.1817  1.0978  1.4122
   62MOL   H20212524   1.078   5.083   4.556  0.0893 -0.4612 -2.2354
   63MOL     C112525   2.077   3.969   7.639  0.4771  0.4082  0.1758
   63MOL     C212526   2.147   4.098   7.612  0.3077 -1.0550  0.5844
   63MOL     C312527   2.126   4.141   7.468  0.8625 -0.0523 -0.9411
   63MOL     O412528   2.185   4.089   7.372  0.1232 -0.2932 -0.7932
   63MOL     N512529   2.027   4.227   7.449  0.3018  0.5921  0.0273
   63MOL     H612530   2.111   3.896   7.566 -2.2505 -0.8724  0.1147
   63MOL     H712531   2.097   3.932   0.083 -1.5363 -1.4314 -0.0522
   63MOL     H812532   2.100   4.177   0.014 -0.3835  1.3618 -3.0515
   63MOL     H912533   1.974   4.271   7.523 -1.0518 -0.8663 -0.0425
   63MOL    H1012534   1.990   4.244   7.357 -0.4203  1.5235  0.4746
   63MOL    H1112535   1.971   3.988   7.623  0.4613  0.2568  0.0964
   63MOL    C1212536   2.297   4.091   0.003  0.3976  0.0522  0.0422
   63MOL    C1312537   2.385   4.219   0.019 -0.2210  0.2159 -0.2290
   63MOL    C1412538   2.353   4.288   0.148 -0.3691 -0.4968 -1.1705
   63MOL    O1512539   2.238   4.319   0.177 -0.3833  0.0475 -0.2325
   63MOL    N1612540   2.453   4.306   0.235 -0.5327  0.3475  0.0361
   63MOL    H1712541   2.348   4.015   7.602  1.1374 -0.4692  1.3593
   63MOL    H1812542   2.286   4.046   0.102  2.4517 -0.1268  0.2076
   63MOL    H1912543   2.491   4.194   0.027 -0.2254 -0.1537 -1.3416
   63MOL    H2012544   2.546   4.278   0.206 -0.7517  0.1636 -0.5008
   63MOL    H2112545   2.430   4.336   0.328 -0.4487  3.6347 -0.9483
   63MOL    C2212546   2.373   4.327   7.565  0.0467 -0.3009  0.4468
   63MOL    C2312547   2.436   4.470   7.580 -0.8191 -0.1002 -0.2450
   63MOL    C2412548   2.354   4.574   7.504  0.2669  0.1398 -0.4401
   63MOL    O2512549   2.338   4.579   7.381  0.3508 -0.5801 -0.2268
   63MOL    N2612550   2.298   4.665   7.578  0.5972  0.0557 -0.0866
   63MOL    H2712551   2.268   4.354   7.554 -1.1594 -2.9474  4.3464
   63MOL    H2812552   2.407   4.280   7.473  0.2894 -2.1911  1.4844
   63MOL    H2912553   2.424   4.499   0.027  1.0386 -0.0614 -0.0134
   63MOL    H3012554   2.253   4.742   7.532  1.5249  0.1012 -0.9247
   63MOL    H3112555   2.307   4.664   0.022  0.0125 -0.9693 -0.0372
   63MOL    C3212556   2.581   4.468   7.531  0.3729  0.0517  0.0887
   63MOL    C3312557   2.694   4.420   7.619  0.5313 -0.0535 -0.1077
   63MOL    C3412558   2.700   4.501   0.088  0.1213 -1.1758 -0.3193
   63MOL    O3512559   2.654   4.612   0.094 -0.1237 -0.2869  0.3051
   63MOL    N3612560   2.757   4.449   0.196  0.0605 -0.1274  0.1973
   63MOL    H3712561   2.619   4.565   7.498 -0.6029 -0.1466 -1.6421
   63MOL    H3812562   2.581   4.425   7.431  0.0060  0.5604 -0.1311
   63MOL    H3912563   2.680   4.316   7.649  1.8603 -0.1964  0.0544
   63MOL    H4012564   2.743   4.513   0.273  0.8311 -0.0547  0.2817
   63MOL    H4112565   2.805   4.361   0.204 -1.0139 -0.8827 -1.3472
   63MOL    C4212566   2.824   4.405   7.538 -0.0483 -0.1037 -0.7036
   63MOL    C4312567   2.911   4.537   7.504  0.3296  0.4914  0.6046
   63MOL    C4412568   2.891   4.571   7.355 -0.1581 -0.0018 -0.3156
   63MOL    O4512569   2.961   4.515   7.271  0.5816  0.5706  0.1367
   63MOL    N4612570   2.790   4.655   7.322  0.5329 -0.2889 -0.7000
   63MOL    H4712571   2.811   4.343   7.449  2.2994 -0.5496 -0.7877
   63MOL    H4812572   2.890   4.347   7.603  1.4423  2.2692 -0.0371
   63MOL    H4912573   2.880   4.631   7.549  0.0543 -0.1068  1.6926
   63MOL    H5012574   2.794   4.696   7.230  1.0145 -0.3205 -0.6913
   63MOL    H5112575   2.730   4.703   7.388 -0.0377  0.1802 -1.5502
   63MOL    C5212576   3.059   4.518   7.543 -0.7392 -0.0723  0.8486
   63MOL    C5312577   3.079   4.562   0.036  0.1961 -0.5872 -0.3426
   63MOL    C5412578   3.068   4.713   0.055  0.2358  0.4090 -0.4353
   63MOL    O5512579   3.136   4.789   7.645 -0.1154 -0.0299  0.1499
   63MOL    N5612580   2.988   4.765   0.147 -0.1822  0.0196 -0.1569
   63MOL    H5712581   3.128   4.569   7.476  1.5468 -3.4545  0.4872
   63MOL    H5812582   3.073   4.410   7.535 -2.0256 -0.1382 -0.7758
   63MOL    H5912583   3.001   4.531   0.105  0.2209 -0.2923 -0.1816
   63MOL    H6012584   2.995   4.864   0.164 -0.2865 -0.2646  1.7241
   63MOL    H6112585   2.933   4.701   0.203 -2.8954  0.7049 -1.9217
   63MOL    C6212586   3.210   4.513   0.101  0.1375 -0.2138  0.6801
   63MOL    C6312587   3.220   4.361   0.120  0.4208  0.2045 -0.8228
   63MOL    C6412588   3.098   4.293   0.172  0.6256 -0.1082 -0.2574
   63MOL    O6512589   3.037   4.329   0.269  0.1924 -0.2285 -0.1977
   63MOL    N6612590   3.052   4.184   0.108  0.5402  0.3995  0.9353
   63MOL    H6712591   3.240   4.569   0.190 -0.8232  0.5666  0.5267
   63MOL    H6812592   3.294   4.537   0.035  1.3866 -3.6726  0.9382
   63MOL    H6912593   3.234   4.323   0.019  0.5181 -1.4425 -0.1954
   63MOL    H7012594   3.105   4.153   0.028 -0.9490  0.3705 -0.0772
   63MOL    H7112595   2.968   4.136   0.137 -0.0126  0.9981  0.3325
   63MOL    C7212596   3.346   4.330   0.210 -0.1152  0.3368 -0.2884
   63MOL    C7312597   3.474   4.273   0.134  0.2020  0.2534  0.7353
   63MOL    C7412598   3.441   4.144   0.069  0.4497  0.6687 -0.4778
   63MOL    O7512599   3.411   4.041   0.137 -0.5025 -0.5730 -0.5166
   63MOL    N7612600   3.434   4.145   7.597 -0.4550 -0.2106 -0.1885
   63MOL    H7712601   3.310   4.256   0.281  3.3250  0.0328  1.2758
   63MOL    H7812602   3.360   4.410   0.284  1.3936  1.1069 -1.3770
   63MOL    H7912603   3.510   4.350   0.065  1.0462 -0.3412  0.5014
   63MOL    H8012604   3.402   4.068   7.540  0.9961  0.3045 -1.7357
   63MOL    H8112605   3.474   4.222   7.545 -1.5655  0.5349  0.0395
   63MOL    C8212606   3.589   4.257   0.242  0.1167 -0.4728  0.3179
   63MOL    C8312607   3.725   4.216   0.181 -0.1876  0.0910  0.0515
   63MOL    C8412608   3.830   4.171   0.284  0.0606  0.1645 -0.2279
   63MOL    O8512609   3.816   4.195   0.402  0.1372  0.6872 -0.0351
   63MOL    N8612610   3.941   4.111   0.242 -0.6432 -0.0324 -0.0225
   63MOL    H8712611   3.553   4.191   0.320  2.6914 -2.2937  0.0170
   63MOL    H8812612   3.608   4.350   0.296 -0.1655  0.0879 -0.5259
   63MOL    H8912613   3.708   4.133   0.113 -1.1650  1.7279 -1.7538
   63MOL    H9012614   4.019   4.093   0.302  1.1059  2.6429 -1.3980
   63MOL    H9112615   3.948   4.112   0.141  0.3035 -2.4387 -0.0163
   63MOL    C9212616   3.788   4.330   0.090 -0.8171  0.1626 -0.3394
   63MOL    C9312617   3.780   4.295   7.593 -0.4562 -1.0077 -0.2672
   63MOL    C9412618   3.863   4.168   7.559  0.7006 -0.5979  0.2777
   63MOL    O9512619   3.960   4.134   7.627 -0.1693  1.4151  0.3409
   63MOL    N9612620   3.832   4.097   7.451  0.0828 -0.4436  0.0291
   63MOL    H9712621   3.883   4.365   0.132 -0.4370 -0.3778 -0.7407
   63MOL    H9812622   3.720   4.415   0.103 -1.3736 -0.2166 -0.7743
   63MOL    H9912623   3.677   4.277   7.562 -0.9600 -0.4259  1.0438
   63MOL   H10012624   3.884   4.017   7.417  2.4001  1.2849 -0.5886
   63MOL   H10112625   3.750   4.114   7.395  0.6420  1.1251 -0.3390
   63MOL   C10212626   3.841   4.410   7.511  0.1097  0.2664 -0.4716
   63MOL   C10312627   3.750   4.465   7.396 -0.5795  0.2652  0.0061
   63MOL   C10412628   3.842   4.547   7.293  0.4152  0.4779  0.7729
   63MOL   O10512629   3.875   4.663   7.320 -0.0469 -0.2055  0.1714
   63MOL   N10612630   3.894   4.479   7.193  0.6799 -0.3475 -0.8654
   63MOL   H10712631   3.937   4.380   7.468  0.0908 -0.2314 -0.1729
   63MOL   H10812632   3.872   4.494   7.574  2.1580 -0.5764 -0.2988
   63MOL   H10912633   3.733   4.371   7.342  1.2942 -0.4967  0.7045
   63MOL   H11012634   3.864   4.383   7.187  2.5932 -0.9392 -1.3266
   63MOL   H11112635   3.969   4.506   7.131  1.3530 -2.6519 -1.0966
   63MOL   C11212636   3.611   4.521   7.441 -0.0554 -0.3731  0.2023
   63MOL   C11312637   3.477   4.525   7.355  1.0310 -0.1638 -0.2450
   63MOL   C11412638   3.424   4.380   7.341 -0.3606 -0.1806 -0.1718
   63MOL   O11512639   3.498   4.282   7.357  0.1448 -0.1102  0.3274
   63MOL   N11612640   3.298   4.372   7.304 -0.0962 -0.1136 -0.2743
   63MOL   H11712641   3.631   4.623   7.473  0.8481  0.1498 -1.9115
   63MOL   H11812642   3.588   4.486   7.541  1.0623 -1.0462  0.2325
   63MOL   H11912643   3.400   4.574   7.414 -1.6631 -4.6536  0.1913
   63MOL   H12012644   3.244   4.448   7.267  0.3453  0.1148 -0.4567
   63MOL   H12112645   3.255   4.281   7.312  0.0681 -0.1287  0.4639
   63MOL   C12212646   3.497   4.583   7.219  0.0601 -0.2199  1.4798
   63MOL   C12312647   3.456   4.737   7.214 -0.3944  0.0594 -0.0326
   63MOL   C12412648   3.531   4.824   7.317 -0.4447 -1.0250  0.8102
   63MOL   O12512649   3.483   4.854   7.428 -0.1741 -0.7261  0.2641
   63MOL   N12612650   3.653   4.858   7.281  0.1642  0.4277 -0.1285
   63MOL   H12712651   3.437   4.538   7.140  0.9423 -1.8571  1.6947
   63MOL   H12812652   3.591   4.565   7.166 -0.0161 -0.2182  1.3434
   63MOL   H12912653   3.491   4.780   7.120 -0.1272 -1.6741 -0.7413
   63MOL   H13012654   3.690   4.837   7.189 -2.4715  0.6797 -1.3019
   63MOL   H13112655   3.701   4.900   7.358 -0.4750 -0.7381  0.9355
   63MOL   C13212656   3.299   4.764   7.221 -0.7776 -0.3712 -0.5133
   63MOL   C13312657   3.226   4.798   7.090 -0.6685  1.0148 -0.2188
   63MOL   C13412658   3.279   4.925   7.022  0.2768  0.4139 -0.3601
   63MOL   O13512659   3.255   5.033   7.073 -0.3351  0.2828  0.0979
   63MOL   N13612660   3.373   4.914   6.929 -0.0850  0.3124 -0.1320
   63MOL   H13712661   3.288   4.835   7.304  0.0827 -1.8265  0.8637
   63MOL   H13812662   3.249   4.672   7.250 -0.1615 -0.4958  0.1678
   63MOL   H13912663   3.250   4.717   7.020  2.0976  1.8290 -0.2692
   63MOL   H14012664   3.422   4.826   6.915 -0.9605  0.1125 -2.0149
   63MOL   H14112665   3.403   5.004   6.894  1.0539 -0.3773 -0.9635
   63MOL   C14212666   3.076   4.813   7.118 -0.0569 -0.0758  0.1944
   63MOL   C14312667   2.973   4.821   6.996  0.5845 -0.1166 -1.0681
   63MOL   C14412668   2.837   4.873   7.044  0.4149  0.0145 -0.2206
   63MOL   O14512669   2.750   4.797   7.084 -0.5841  0.0922 -0.4368
   63MOL   N14612670   2.811   5.001   7.024 -0.4051  0.3694  0.2637
   63MOL   H14712671   3.054   4.899   7.181  0.4277  0.1275  0.0867
   63MOL   H14812672   3.047   4.731   7.185  1.1935 -2.1222 -1.6932
   63MOL   H14912673   3.011   4.895   6.925  2.2712 -0.1870 -0.2524
   63MOL   H15012674   2.716   5.030   7.042 -0.9044  0.0691 -1.7504
   63MOL   H15112675   2.878   5.065   6.983 -0.4482  0.7802  0.8345
   63MOL   C15212676   2.954   4.680   6.931 -0.4814  0.3910  0.2459
   63MOL   C15312677   2.884   4.672   6.792  1.4775 -0.4866 -0.0376
   63MOL   C15412678   2.853   4.530   6.764  0.0067  0.7072  0.0704
   63MOL   O15512679   2.937   4.455   6.713  0.0438 -0.1012  0.1130
   63MOL   N15612680   2.744   4.484   6.811 -0.0075  0.1634 -0.0330
   63MOL   H15712681   2.906   4.612   7.001  1.7921  0.2711  1.7633
   63MOL   H15812682   3.056   4.643   6.920  0.2325  2.2308  0.4557
   63MOL   H15912683   2.785   4.717   6.789  3.0673  3.1056 -1.6582
   63MOL   H16012684   2.678   4.543   6.859  0.5313  1.3619 -0.7492
   63MOL   H16112685   2.728   4.386   6.796 -0.9301  0.2525  0.3637
   63MOL   C16212686   2.978   4.734   6.683 -0.3741  0.0491  0.2064
   63MOL   C16312687   2.920   4.753   6.540  0.2999 -0.2314  0.1244
   63MOL   C16412688   3.019   4.686   6.447 -0.2454 -0.1612 -0.2627
   63MOL   O16512689   3.084   4.750   6.364 -0.4374  0.0888 -0.0257
   63MOL   N16612690   3.037   4.554   6.462 -0.0142  0.2320 -0.4000
   63MOL   H16712691   3.062   4.665   6.680  0.8429  1.5562 -1.4810
   63MOL   H16812692   3.024   4.825   6.722  0.2955 -0.6795  1.1218
   63MOL   H16912693   2.829   4.694   6.531  0.0015  0.3971 -1.1199
   63MOL   H17012694   3.116   4.508   6.420 -1.2472 -1.0042 -1.4261
   63MOL   H17112695   2.984   4.497   6.526 -1.3427 -0.8082 -2.3722
   63MOL   C17212696   2.916   4.908   6.519  0.0378 -0.2211 -0.2706
   63MOL   C17312697   2.798   4.977   6.593 -0.8199  0.3561  0.4351
   63MOL   C17412698   2.661   4.911   6.574  0.3178  0.1459 -0.4217
   63MOL   O17512699   2.617   4.896   6.460 -0.3628 -0.2912  0.2890
   63MOL   N17612700   2.594   4.867   6.676  0.6219  0.1487 -0.1817
   63MOL   H17712701   2.904   4.925   6.412  0.7177 -0.7095 -0.4242
   63MOL   H17812702   3.010   4.953   6.551 -0.2335  0.3848 -0.3272
   63MOL   H17912703   2.823   4.973   6.699  0.2098  2.1121  0.2764
   63MOL   H18012704   2.632   4.888   6.767 -0.9017  1.4468  0.1849
   63MOL   H18112705   2.498   4.834   6.678  0.2209  1.2351 -1.0704
   63MOL   C18212706   2.805   5.131   6.554  0.1219 -0.8449 -0.1467
   63MOL   C18312707   2.755   5.231   6.662 -0.2212 -0.4878 -0.0324
   63MOL   C18412708   2.877   5.273   6.748 -0.4805  0.0165  0.0288
   63MOL   O18512709   2.928   5.190   6.825  0.3868  0.4379  0.3640
   63MOL   N18612710   2.926   5.395   6.721  0.3529 -0.2213 -0.1813
   63MOL   H18712711   2.749   5.154   6.464 -0.2259 -0.3047  0.2073
   63MOL   H18812712   2.906   5.159   6.523  0.0854 -0.8161 -0.2380
   63MOL   H18912713   2.726   5.318   6.603  3.8560  0.1078 -1.2941
   63MOL   H19012714   3.013   5.429   6.759  2.1241 -1.5725 -2.8825
   63MOL   H19112715   2.870   5.462   6.672 -0.2966 -1.0713 -0.6114
   63MOL   C19212716   2.625   5.185   6.738  0.0246 -0.4355 -0.1218
   63MOL   C19312717   2.572   5.295   6.822 -0.2418 -0.0820 -0.5884
   63MOL   C19412718   2.476   5.383   6.743  0.2980 -0.5328  0.7080
   63MOL   O19512719   2.399   5.347   6.649  0.1932 -0.3378 -0.5437
   63MOL   N19612720   2.460   5.504   6.790  0.3010 -0.4063  0.0145
   63MOL   H19712721   2.643   5.095   6.798 -0.8431  0.6966  1.8934
   63MOL   H19812722   2.549   5.149   6.669  0.4710 -0.0302 -0.8279
   63MOL   H19912723   2.505   5.239   6.887  0.7842  0.3982  0.9119
   63MOL   H20012724   2.528   5.536   6.858  0.1528  0.7402 -0.3807
   63MOL   H20112725   2.379   5.558   6.763  0.5659 -0.1643 -0.2961
   63MOL   H20212726   2.655   5.340   6.877  0.1759 -0.8319 -0.5971
   64MOL     C112727   4.805   6.821   1.359  0.2530  0.5662 -0.0601
   64MOL     C212728   4.763   6.773   1.218 -0.3003  0.2234  0.5484
   64MOL     C312729   4.708   6.893   1.132  0.3641 -0.7120 -0.1850
   64MOL     O412730   4.677   6.872   1.018  0.4458 -0.2022  0.4742
   64MOL     N512731   4.700   7.020   1.180 -0.4249 -0.3119 -0.4442
   64MOL     H612732   4.895   6.883   1.355  0.3274  0.6512  2.2547
   64MOL     H712733   4.726   6.876   1.410  0.7319  2.6428 -1.5126
   64MOL     H812734   4.851   6.740   1.164 -1.5481 -0.5645 -1.0184
   64MOL     H912735   4.664   7.096   1.124 -2.3454 -0.6628  0.2705
   64MOL    H1012736   4.707   7.035   1.280  1.7724 -0.4803 -0.5419
   64MOL    H1112737   4.820   6.739   1.429 -1.3452  0.4879  0.2084
   64MOL    C1212738   4.665   6.654   1.223  0.5416 -0.3802  0.9740
   64MOL    C1312739   4.726   6.512   1.260 -0.1699 -0.9511  0.3394
   64MOL    C1412740   4.829   6.464   1.162 -0.2522 -0.1676  0.2382
   64MOL    O1512741   4.794   6.438   1.038  0.6738  0.0695 -0.6295
   64MOL    N1612742   4.954   6.459   1.201 -0.5081  0.4000  0.4446
   64MOL    H1712743   4.602   6.651   1.135  2.3566  2.6934 -0.5295
   64MOL    H1812744   4.595   6.685   1.301  0.7860 -0.2386  1.1384
   64MOL    H1912745   4.770   6.519   1.360  2.3277 -0.9994 -0.7308
   64MOL    H2012746   4.982   6.475   1.296  0.6627 -0.4793  0.2758
   64MOL    H2112747   5.024   6.427   1.134 -0.2871 -1.3579  1.4708
   64MOL    C2212748   4.612   6.409   1.270  0.2870  0.2177  0.1364
   64MOL    C2312749   4.505   6.438   1.389  0.4474 -0.6591  1.0840
   64MOL    C2412750   4.571   6.449   1.531  0.3655 -0.6375  0.0842
   64MOL    O2512751   4.644   6.360   1.565  0.4355 -0.3573  0.2371
   64MOL    N2612752   4.547   6.555   1.601 -0.0292 -0.1243 -0.2633
   64MOL    H2712753   4.653   6.308   1.274 -1.7969 -0.6395  0.4760
   64MOL    H2812754   4.559   6.403   1.176  0.7550  0.5294 -0.1523
   64MOL    H2912755   4.468   6.539   1.372 -2.7053 -1.5745  2.1457
   64MOL    H3012756   4.599   6.564   1.687 -0.9017 -1.7683  0.4460
   64MOL    H3112757   4.468   6.615   1.583 -0.0309 -0.6649 -2.2011
   64MOL    C3212758   4.389   6.333   1.388 -0.7727 -0.0507  0.3157
   64MOL    C3312759   4.258   6.370   1.304  0.5647 -0.0841  0.4453
   64MOL    C3412760   4.178   6.470   1.375 -0.6395 -0.2182  0.0140
   64MOL    O3512761   4.123   6.444   1.481 -0.6421  0.1184  0.3749
   64MOL    N3612762   4.174   6.594   1.327  0.9257  0.3119 -0.3735
   64MOL    H3712763   4.353   6.320   1.490 -0.0993  1.6514  0.7813
   64MOL    H3812764   4.428   6.237   1.355  0.2555  0.1242  1.0105
   64MOL    H3912765   4.286   6.417   1.210  1.1252 -0.5541  0.3738
   64MOL    H4012766   4.100   6.646   1.372  0.0176 -0.7658 -0.6068
   64MOL    H4112767   4.210   6.616   1.235  2.2860 -4.0916 -1.0244
   64MOL    C4212768   4.191   6.241   1.256  0.3104  0.4693  0.2188
   64MOL    C4312769   4.038   6.245   1.212  0.1186  0.1460 -0.2067
   64MOL    C4412770   4.004   6.345   1.102 -0.5064 -0.0838 -0.3199
   64MOL    O4512771   3.924   6.438   1.115 -0.3167 -0.0590  0.1381
   64MOL    N4612772   4.054   6.326   0.986  0.1648 -0.7003  0.3128
   64MOL    H4712773   4.205   6.161   1.328  2.9142 -1.2404 -2.0585
   64MOL    H4812774   4.258   6.197   1.181 -1.6085 -0.4615 -0.9898
   64MOL    H4912775   4.028   6.149   1.161 -1.3203  0.5438 -0.7054
   64MOL    H5012776   4.122   6.253   0.978  0.4345 -0.4510  0.3387
   64MOL    H5112777   4.003   6.357   0.904 -0.5034 -2.5892 -0.0106
   64MOL    C5212778   3.936   6.234   1.325 -0.0644 -0.4447 -0.5981
   64MOL    C5312779   3.848   6.102   1.326 -0.0993 -0.2965 -0.1535
   64MOL    C5412780   3.726   6.115   1.237  0.3692  0.7386  0.1672
   64MOL    O5512781   3.638   6.024   1.238 -0.3953 -0.1456  0.2746
   64MOL    N5612782   3.699   6.217   1.161 -0.4260 -0.8986 -0.0225
   64MOL    H5712783   3.883   6.326   1.352  1.7758  0.7031 -0.8002
   64MOL    H5812784   4.007   6.230   1.408 -1.0624 -2.1301  0.2016
   64MOL    H5912785   3.901   6.019   1.279 -0.8370  0.7739 -2.9666
   64MOL    H6012786   3.758   6.298   1.150 -1.4407 -0.2945 -1.0796
   64MOL    H6112787   3.615   6.205   1.106  0.9745 -0.7867 -2.2726
   64MOL    C6212788   3.813   6.065   1.470 -0.4492 -0.2515  0.3493
   64MOL    C6312789   3.930   5.985   1.541  0.3525  0.0208  0.0451
   64MOL    C6412790   3.952   5.849   1.474 -0.3695 -0.2695 -0.1894
   64MOL    O6512791   3.859   5.775   1.434 -0.6837 -0.1064 -0.0309
   64MOL    N6612792   4.077   5.800   1.482 -0.7794 -0.1138 -0.5942
   64MOL    H6712793   3.723   6.005   1.486 -1.6201  1.7127  1.3671
   64MOL    H6812794   3.783   6.153   1.526 -0.3760  0.9664 -1.5048
   64MOL    H6912795   4.023   6.043   1.535  0.8983 -0.9013 -0.4262
   64MOL    H7012796   4.147   5.868   1.508  0.3586 -0.9908 -1.3339
   64MOL    H7112797   4.102   5.712   1.439  2.2219  1.5138 -2.3835
   64MOL    C7212798   3.933   5.967   1.698 -0.2064 -0.4472 -0.1545
   64MOL    C7312799   3.815   5.902   1.772  0.1072 -0.5043  0.4586
   64MOL    C7412800   3.711   6.004   1.793  0.0026 -0.4070  0.7542
   64MOL    O7512801   3.738   6.118   1.837  0.4361 -0.2295  0.1537
   64MOL    N7612802   3.589   5.986   1.749 -0.5465  0.1789  0.1420
   64MOL    H7712803   3.965   6.060   1.743  0.5606 -0.4834 -0.6108
   64MOL    H7812804   4.018   5.906   1.728  1.5280  3.3022  2.9357
   64MOL    H7912805   3.771   5.834   1.699  0.1819 -0.9213  0.8020
   64MOL    H8012806   3.568   5.900   1.700 -0.3404 -0.8800  1.8830
   64MOL    H8112807   3.516   6.056   1.746 -1.6379 -0.9798 -1.9730
   64MOL    C8212808   3.845   5.841   1.913 -0.2302 -0.3681  0.0044
   64MOL    C8312809   3.920   5.919   2.024 -0.6916  0.4467 -0.0152
   64MOL    C8412810   4.067   5.929   1.984 -0.1630  0.1672  0.5319
   64MOL    O8512811   4.138   5.826   1.983  0.7487 -0.0052  0.0890
   64MOL    N8612812   4.117   6.050   1.960  0.8056 -0.4254 -0.2149
   64MOL    H8712813   3.888   5.743   1.892  0.8134  0.8641 -4.0564
   64MOL    H8812814   3.746   5.804   1.942 -0.5444 -0.7770 -1.5059
   64MOL    H8912815   3.881   6.021   2.024  1.8899  1.4847  1.2051
   64MOL    H9012816   4.055   6.129   1.961 -0.6039 -1.5088 -0.3955
   64MOL    H9112817   4.217   6.065   1.953  0.9982 -2.5676 -3.0069
   64MOL    C9212818   3.902   5.855   2.163  0.5753  0.0231  0.1070
   64MOL    C9312819   3.762   5.877   2.235  0.3923  0.4271 -0.0813
   64MOL    C9412820   3.755   6.019   2.284 -0.0071 -1.2350  0.0302
   64MOL    O9512821   3.833   6.064   2.364  0.7105 -0.3168  0.0172
   64MOL    N9612822   3.655   6.092   2.232 -0.2045  0.2316  0.6599
   64MOL    H9712823   3.980   5.879   2.235 -0.6876  0.1024  1.4791
   64MOL    H9812824   3.922   5.748   2.157  0.3163 -0.0704  0.8119
   64MOL    H9912825   3.694   5.863   2.150 -0.7254  0.3035  0.8253
   64MOL   H10012826   3.662   6.190   2.255  0.8696 -0.1893  2.1742
   64MOL   H10112827   3.586   6.061   2.166 -0.2140 -0.0667  0.8068
   64MOL   C10212828   3.734   5.773   2.347  0.3117  0.8055 -0.1211
   64MOL   C10312829   3.587   5.731   2.356 -0.1782  0.2635 -0.2619
   64MOL   C10412830   3.520   5.795   2.473  0.6612 -0.0108 -0.7524
   64MOL   O10512831   3.544   5.757   2.593  0.0026 -0.1300 -0.1881
   64MOL   N10612832   3.423   5.882   2.451 -0.3259  0.0538 -0.7820
   64MOL   H10712833   3.784   5.794   2.442  0.2093 -0.6006  0.2522
   64MOL   H10812834   3.783   5.677   2.333 -1.0038  0.0792  0.1873
   64MOL   H10912835   3.532   5.764   2.268 -1.4816 -0.8149  0.1345
   64MOL   H11012836   3.395   5.913   2.359 -1.9391  1.0918  0.0650
   64MOL   H11112837   3.369   5.907   2.532  0.0653  0.6819 -0.7117
   64MOL   C11212838   3.559   5.579   2.354  0.5010 -0.3654  0.6310
   64MOL   C11312839   3.415   5.522   2.391 -0.1503  0.2999 -0.2080
   64MOL   C11412840   3.424   5.368   2.416  0.2119 -0.0064 -0.0291
   64MOL   O11512841   3.477   5.296   2.333 -0.1864 -0.1745  0.1178
   64MOL   N11612842   3.392   5.323   2.538  0.4430  0.5913 -0.3223
   64MOL   H11712843   3.618   5.524   2.427  1.5928 -2.3891 -1.7218
   64MOL   H11812844   3.575   5.528   2.259  1.6739  0.5194  0.3429
   64MOL   H11912845   3.383   5.560   2.487  0.5250  0.4762 -0.0486
   64MOL   H12012846   3.344   5.386   2.601 -1.5209  0.6564 -1.8149
   64MOL   H12112847   3.369   5.227   2.555  1.0770  0.4614 -0.1978
   64MOL   C12212848   3.307   5.549   2.286  0.1262 -0.2210  0.2111
   64MOL   C12312849   3.296   5.479   2.149 -0.3729 -0.1939  0.9819
   64MOL   C12412850   3.377   5.553   2.039  0.5381 -0.0795  0.1043
   64MOL   O12512851   3.342   5.662   1.989  0.5790 -0.3020 -0.6634
   64MOL   N12612852   3.484   5.488   1.998 -0.3867 -0.0526 -0.5290
   64MOL   H12712853   3.325   5.655   2.271 -0.7566  0.0420  0.9547
   64MOL   H12812854   3.210   5.537   2.335 -0.3992  0.4011 -0.6609
   64MOL   H12912855   3.333   5.378   2.160 -2.8811 -1.4144 -1.1616
   64MOL   H13012856   3.514   5.398   2.032  1.2685  0.7573  0.2036
   64MOL   H13112857   3.538   5.514   1.916  2.3672 -2.5710  0.4002
   64MOL   C13212858   3.153   5.435   2.102 -0.5640 -0.2595 -0.4956
   64MOL   C13312859   3.139   5.299   2.023  0.1502 -0.0288 -0.3338
   64MOL   C13412860   3.215   5.293   1.891 -0.0869 -0.1890 -0.3783
   64MOL   O13512861   3.184   5.361   1.797  0.2788  0.7138  0.0527
   64MOL   N13612862   3.317   5.209   1.888 -0.8516 -0.0627 -0.9239
   64MOL   H13712863   3.111   5.518   2.046  0.8514  1.1355  0.4810
   64MOL   H13812864   3.088   5.417   2.187  1.0047  1.8351  1.2002
   64MOL   H13912865   3.177   5.220   2.086  1.6497  1.7779  1.0538
   64MOL   H14012866   3.375   5.210   1.805  0.2618  0.0135 -0.1492
   64MOL   H14112867   3.348   5.144   1.959  2.7006  1.3599 -1.0411
   64MOL   C14212868   2.989   5.257   2.000 -0.0828 -0.3380  0.1264
   64MOL   C14312869   2.960   5.106   1.975 -0.7717  0.3159  0.2579
   64MOL   C14412870   2.942   5.071   1.822 -0.3374 -0.2648 -0.0332
   64MOL   O14512871   2.863   5.132   1.753  0.4465 -0.6244 -0.1084
   64MOL   N14612872   3.021   4.984   1.766 -0.7090  0.4467 -0.2695
   64MOL   H14712873   2.955   5.314   1.913  1.8703  2.7280  1.2973
   64MOL   H14812874   2.932   5.299   2.083 -1.7721 -3.3936  0.5843
   64MOL   H14912875   3.050   5.056   2.009 -0.6893  1.1412  1.2571
   64MOL   H15012876   3.003   4.969   1.668 -0.6127 -1.4076 -0.0094
   64MOL   H15112877   3.096   4.924   1.798  0.5413  1.7773 -0.6332
   64MOL   C15212878   2.829   5.065   2.051 -0.5349 -0.3677 -0.7517
   64MOL   C15312879   2.788   4.910   2.046  1.1286 -0.0681  0.0464
   64MOL   C15412880   2.636   4.895   2.018 -0.3158 -0.3802  0.2535
   64MOL   O15512881   2.603   4.834   1.915 -0.0598 -0.0860  0.1551
   64MOL   N15612882   2.542   4.953   2.093  0.0025  0.1657  0.2809
   64MOL   H15712883   2.746   5.128   2.020  0.0523  0.6006 -0.3811
   64MOL   H15812884   2.849   5.085   2.156 -0.0130 -2.6451 -0.3857
   64MOL   H15912885   2.844   4.856   1.970  0.7337  1.3880 -1.3056
   64MOL   H16012886   2.443   4.949   2.074  0.3294 -1.8843 -1.2139
   64MOL   H16112887   2.568   5.005   2.176  1.6804  0.7221 -0.5660
   64MOL   C16212888   2.836   4.833   2.168 -0.1652 -0.0635 -0.1024
   64MOL   C16312889   2.823   4.677   2.168  0.2094 -0.0110  0.3025
   64MOL   C16412890   2.682   4.634   2.208  0.9734 -0.6277  0.9601
   64MOL   O16512891   2.624   4.680   2.306  0.7544  0.2522  0.0253
   64MOL   N16612892   2.625   4.539   2.132 -0.2364 -0.4044 -0.3078
   64MOL   H16712893   2.790   4.881   2.254 -1.0918  2.1090 -1.7635
   64MOL   H16812894   2.941   4.851   2.188 -0.4369 -0.5009  1.8329
   64MOL   H16912895   2.827   4.646   2.064 -1.7755  1.2805 -0.1922
   64MOL   H17012896   2.679   4.494   2.059  0.5262  0.9014 -0.5616
   64MOL   H17112897   2.531   4.513   2.159 -0.3583  0.9784  0.6390
   64MOL   C17212898   2.936   4.602   2.245  0.4776  0.0162 -0.4861
   64MOL   C17312899   2.920   4.622   2.399  0.3859 -0.2909  0.4177
   64MOL   C17412900   3.051   4.651   2.463  0.3332  0.3502 -0.5204
   64MOL   O17512901   3.139   4.563   2.466  0.2180  0.6147 -0.0775
   64MOL   N17612902   3.072   4.777   2.505  0.4495  0.0052  0.1584
   64MOL   H17712903   3.025   4.647   2.202 -1.0465  2.0216 -1.6413
   64MOL   H17812904   2.940   4.496   2.223  2.3159 -0.0930  0.2607
   64MOL   H17912905   2.855   4.709   2.410 -0.0264 -0.9061  3.2323
   64MOL   H18012906   3.000   4.846   2.518 -2.5339 -3.0700  0.9086
   64MOL   H18112907   3.157   4.808   2.549 -0.2378  2.5850 -0.2616
   64MOL   C18212908   2.861   4.488   2.469 -0.3881 -0.5255  0.3313
   64MOL   C18312909   2.881   4.478   2.620  0.4491 -0.3737 -0.2394
   64MOL   C18412910   2.821   4.343   2.667  0.2765 -0.2445  0.0876
   64MOL   O18512911   2.867   4.241   2.628 -0.3787  0.5682  0.0798
   64MOL   N18612912   2.724   4.341   2.754 -0.0087  0.5692  0.3377
   64MOL   H18712913   2.916   4.406   2.425 -0.1292  0.2952 -0.8843
   64MOL   H18812914   2.755   4.476   2.445 -0.6552  1.7913  0.1557
   64MOL   H18912915   2.988   4.460   2.628  0.2003 -1.6404  0.2619
   64MOL   H19012916   2.658   4.265   2.756 -1.6451  1.9370 -0.2308
   64MOL   H19112917   2.689   4.427   2.794  1.1172  0.9947  0.4230
   64MOL   C19212918   2.844   4.601   2.714 -0.2400  0.4559  0.0905
   64MOL   C19312919   2.713   4.688   2.700  0.3523  0.4368  0.1426
   64MOL   C19412920   2.620   4.671   2.824  0.1665 -0.0894 -0.5450
   64MOL   O19512921   2.622   4.569   2.889 -0.0013  0.7197 -0.0379
   64MOL   N19612922   2.554   4.777   2.865  0.0466 -0.3060  0.1498
   64MOL   H19712923   2.930   4.667   2.708  1.7210 -2.0883 -0.6806
   64MOL   H19812924   2.854   4.573   2.819 -1.5142 -0.3475  0.0155
   64MOL   H19912925   2.749   4.789   2.683  0.1043  0.3023 -1.2254
   64MOL   H20012926   2.500   4.766   2.950  1.9870 -1.0213  1.3222
   64MOL   H20112927   2.579   4.868   2.828  0.8769 -1.0604 -1.1787
   64MOL   H20212928   2.664   4.649   2.611 -1.6302  0.0998  1.3429
   65MOL     C112929   2.765   1.101   7.519  0.4859 -0.0316  0.1651
   65MOL     C212930   2.837   0.972   7.558  0.0679  0.5471  0.0495
   65MOL     C312931   2.791   0.859   7.471 -0.1135  0.0486  1.1604
   65MOL     O412932   2.684   0.807   7.489  0.1412 -0.2069  0.2463
   65MOL     N512933   2.871   0.819   7.371  0.6693  0.2761 -0.2401
   65MOL     H612934   2.664   1.094   7.560 -0.4091  1.9508 -1.6272
   65MOL     H712935   2.805   1.193   7.560 -1.1113  0.2210  1.1787
   65MOL     H812936   2.942   0.994   7.538  0.4019  0.5128  1.7369
   65MOL     H912937   2.969   0.843   7.369  0.5774  0.8718  1.6447
   65MOL    H1012938   2.833   0.753   7.304 -0.0132  0.2236  0.1936
   65MOL    H1112939   2.763   1.115   7.411  2.7184  3.2453  0.4849
   65MOL    C1212940   2.831   0.940   0.053 -0.3447 -0.6458  0.2264
   65MOL    C1312941   2.922   0.824   0.096  0.1941 -0.0539  0.2471
   65MOL    C1412942   2.845   0.705   0.147 -0.2039  0.0139  0.0200
   65MOL    O1512943   2.851   0.668   0.260  0.2585 -0.4882 -0.2542
   65MOL    N1612944   2.755   0.648   0.067 -0.7896  0.6534  0.3467
   65MOL    H1712945   2.727   0.925   0.084 -0.7602  2.4689  0.5806
   65MOL    H1812946   2.864   1.034   0.098  0.3807 -0.8060  0.0343
   65MOL    H1912947   2.984   0.781   0.016  2.1015 -0.9949  2.1636
   65MOL    H2012948   2.685   0.597   0.118 -1.3325  2.3899  1.3630
   65MOL    H2112949   2.730   0.694   7.637 -1.0447 -0.6411 -0.2779
   65MOL    C2212950   3.031   0.874   0.201 -0.3902  0.9784 -0.2161
   65MOL    C2312951   3.144   0.778   0.231 -0.2943  0.1360 -0.5297
   65MOL    C2412952   3.199   0.822   0.366  1.0753 -0.4816 -0.4098
   65MOL    O2512953   3.215   0.945   0.387  0.3741 -0.3560  0.1596
   65MOL    N2612954   3.216   0.736   0.464 -0.2023  0.2540 -0.3624
   65MOL    H2712955   2.982   0.920   0.287 -1.3298  2.1858 -1.3782
   65MOL    H2812956   3.084   0.958   0.156  1.6719  0.7237  1.6143
   65MOL    H2912957   3.102   0.677   0.239  1.5248 -0.6868 -1.0997
   65MOL    H3012958   3.250   0.770   0.553  0.6488 -0.9364 -0.2078
   65MOL    H3112959   3.183   0.640   0.464  0.3541  0.0598 -1.2327
   65MOL    C3212960   3.255   0.785   0.122 -0.0167  0.2819 -0.0821
   65MOL    C3312961   3.329   0.647   0.103  0.3192 -0.7173  0.0109
   65MOL    C3412962   3.412   0.605   0.221 -0.4989  0.0566 -0.7553
   65MOL    O3512963   3.515   0.667   0.252 -0.2603 -0.1726  0.0862
   65MOL    N3612964   3.382   0.490   0.282 -0.2273 -0.2559 -0.3951
   65MOL    H3712965   3.314   0.874   0.142  1.6435 -1.1269  1.3814
   65MOL    H3812966   3.217   0.805   0.022 -0.8280 -1.4040 -0.1421
   65MOL    H3912967   3.257   0.566   0.089  0.6999 -1.6357  2.9848
   65MOL    H4012968   3.436   0.465   0.363 -1.1108 -0.3601  0.1552
   65MOL    H4112969   3.309   0.437   0.236 -0.5105 -0.5734  0.4170
   65MOL    C4212970   3.435   0.653   7.637 -0.1767 -0.2466  0.1094
   65MOL    C4312971   3.374   0.626   7.499  0.3157  0.3594  0.1141
   65MOL    C4412972   3.303   0.490   7.493  0.3601 -0.4801 -0.5759
   65MOL    O4512973   3.345   0.391   7.555 -0.1288 -0.1036  0.2345
   65MOL    N4612974   3.192   0.478   7.425 -0.1525 -0.8364 -0.1147
   65MOL    H4712975   3.522   0.589   7.651 -0.8890 -1.0099  1.1379
   65MOL    H4812976   3.479   0.753   7.641 -0.0612 -0.3334  1.1556
   65MOL    H4912977   3.302   0.708   7.498  1.4003  1.3344  0.9091
   65MOL    H5012978   3.181   0.382   7.396 -1.7030 -0.4955 -0.7195
   65MOL    H5112979   3.178   0.558   7.364 -1.3779  0.3713  1.7265
   65MOL    C5212980   3.477   0.640   7.386 -0.0760  0.2613  0.0372
   65MOL    C5312981   3.442   0.613   7.236  0.0150  0.3022  0.4269
   65MOL    C5412982   3.323   0.698   7.180  0.6396  0.0108  0.1039
   65MOL    O5512983   3.206   0.695   7.226 -0.0744 -0.2131 -0.5051
   65MOL    N5612984   3.342   0.756   7.063  0.3340  0.0830  0.1844
   65MOL    H5712985   3.567   0.591   7.423  1.1692 -0.0949 -3.2796
   65MOL    H5812986   3.510   0.743   7.385 -0.9253  0.5451  0.7896
   65MOL    H5912987   3.533   0.639   7.182  0.3856  0.3846  1.0869
   65MOL    H6012988   3.436   0.746   7.027  0.9875  0.7982  1.6671
   65MOL    H6112989   3.272   0.779   6.994  2.3285 -0.5003 -2.1331
   65MOL    C6212990   3.423   0.469   7.188  0.6060  0.6275 -0.3683
   65MOL    C6312991   3.533   0.363   7.230  0.4361 -0.3450 -0.1297
   65MOL    C6412992   3.675   0.412   7.203 -0.4295 -0.6138  0.4968
   65MOL    O6512993   3.714   0.434   7.087  0.3055 -0.2288  0.3977
   65MOL    N6612994   3.750   0.418   7.307 -0.1781  0.0903 -0.4036
   65MOL    H6712995   3.415   0.467   7.080 -1.2153 -1.2806 -0.2248
   65MOL    H6812996   3.328   0.429   7.225  1.5930  0.5920  2.2340
   65MOL    H6912997   3.521   0.348   7.338  1.6385  0.6126  0.1486
   65MOL    H7012998   3.722   0.391   7.401 -2.0401  0.1478 -0.9113
   65MOL    H7112999   3.848   0.432   7.291  0.1284 -2.1695 -0.7507
   65MOL    C7213000   3.513   0.236   7.145  0.5068 -0.0204 -0.6002
   65MOL    C7313001   3.595   0.107   7.186  0.4604 -0.0248  0.4483
   65MOL    C7413002   3.694   0.071   7.081  0.4525  0.1768  0.3079
   65MOL    O7513003   3.685   7.625   7.015  0.2555 -0.3822 -0.1113
   65MOL    N7613004   3.800   0.151   7.071  0.2560  0.0957  0.5198
   65MOL    H7713005   3.530   0.262   7.040  1.6011  0.7127 -0.2450
   65MOL    H7813006   3.405   0.217   7.148  0.2140  1.6283  0.2249
   65MOL    H7913007   3.657   0.131   7.273  0.3708  0.9173  0.2515
   65MOL    H8013008   3.809   0.236   7.125  2.4979  0.6277 -0.6429
   65MOL    H8113009   3.885   0.131   7.019 -0.8134 -1.1897 -0.7685
   65MOL    C8213010   3.492   7.644   7.213 -0.2418  0.3906  0.3237
   65MOL    C8313011   3.403   7.655   7.333 -0.1817 -0.2973 -0.0646
   65MOL    C8413012   3.482   0.020   7.456 -0.3963  0.8740  0.0464
   65MOL    O8513013   3.575   7.604   7.487  0.3737 -0.5489  0.3348
   65MOL    N8613014   3.452   0.122   7.531  0.1414  0.4300 -0.2275
   65MOL    H8713015   3.543   7.548   7.225 -0.4601  0.3652  1.0993
   65MOL    H8813016   3.428   7.636   7.125  0.9897  0.3373 -0.5763
   65MOL    H8913017   3.337   0.083   7.314 -0.9188 -1.0727 -1.0026
   65MOL    H9013018   3.492   0.117   7.624  0.0650  2.2367 -0.0837
   65MOL    H9113019   3.381   0.190   7.509  0.8289  1.0441 -0.5953
   65MOL    C9213020   3.311   7.531   7.349  0.1905 -0.2096  0.0691
   65MOL    C9313021   3.196   7.524   7.248 -0.1255 -0.1781  0.3457
   65MOL    C9413022   3.101   7.641   7.227  0.3154  0.4580 -0.2066
   65MOL    O9513023   3.103   0.086   7.300 -0.3391  0.0420  0.0305
   65MOL    N9613024   3.013   7.633   7.127  0.2556  0.5185 -0.2445
   65MOL    H9713025   3.272   7.538   7.450  2.8312  3.3344  0.9305
   65MOL    H9813026   3.371   7.439   7.349  0.1474 -0.2741 -2.1463
   65MOL    H9913027   3.251   7.517   7.155  0.8796 -0.6514  0.9636
   65MOL   H10013028   2.936   0.040   7.113 -0.8016 -0.3081  1.7298
   65MOL   H10113029   2.997   7.545   7.080 -1.6809  1.0342 -0.6022
   65MOL   C10213030   3.112   7.390   7.258  0.3137 -0.1733 -0.9524
   65MOL   C10313031   3.023   7.374   7.381  0.0654 -1.0096 -0.0814
   65MOL   C10413032   3.047   7.237   7.448  0.0301  0.3044  0.1450
   65MOL   O10513033   3.019   7.131   7.391  0.6453 -0.0856 -0.1865
   65MOL   N10613034   3.117   7.237   7.562  0.0565  0.5462 -0.1682
   65MOL   H10713035   3.183   7.307   7.254 -0.5781 -0.9970  0.0957
   65MOL   H10813036   3.052   7.388   7.168  0.1532  4.1230 -1.0595
   65MOL   H10913037   3.048   7.454   7.450  1.2050 -1.7181  0.3301
   65MOL   H11013038   3.161   7.152   7.594  0.5202  0.8900  0.1123
   65MOL   H11113039   3.144   7.319   7.614 -2.6591  0.6345  1.1673
   65MOL   C11213040   2.875   7.388   7.332 -0.5054 -0.3549 -0.4080
   65MOL   C11313041   2.765   7.381   7.448 -0.4812 -0.4200 -0.0597
   65MOL   C11413042   2.636   7.316   7.394  0.7682  0.0143  0.2701
   65MOL   O11513043   2.566   7.373   7.304 -0.0257  0.2877 -0.9987
   65MOL   N11613044   2.602   7.204   7.445 -0.1522  0.1598  0.2971
   65MOL   H11713045   2.860   7.312   7.256 -1.2939 -2.1298  1.4682
   65MOL   H11813046   2.859   7.488   7.291  1.5855 -0.0378 -0.5279
   65MOL   H11913047   2.813   7.322   7.526  1.3513  0.4290 -0.5305
   65MOL   H12013048   2.520   7.148   7.425 -0.1291  0.0225  0.5848
   65MOL   H12113049   2.665   7.172   7.517  1.2844  3.3042  0.5167
   65MOL   C12213050   2.733   7.514   7.529 -0.0539  0.1468 -1.1581
   65MOL   C12313051   2.714   7.496   0.029  0.0995  0.7811 -0.7723
   65MOL   C12413052   2.606   7.591   0.079  0.3807  0.2807 -0.4420
   65MOL   O12513053   2.492   7.590   0.029 -0.0000 -0.4823 -0.5542
   65MOL   N12613054   2.627   0.007   0.188 -0.0285 -0.2970  0.1950
   65MOL   H12713055   2.648   7.559   7.478  0.8801  2.2168 -0.9418
   65MOL   H12813056   2.812   7.585   7.508  1.7794 -1.2566  0.8176
   65MOL   H12913057   2.679   7.397   0.058 -0.6996  1.1351 -0.5198
   65MOL   H13013058   2.553   0.054   0.239  1.0192  1.3129  0.3003
   65MOL   H13113059   2.708   7.644   0.245  1.2796  1.0379 -1.1326
   65MOL   C13213060   2.847   7.507   0.112 -0.2800 -0.5523  0.1703
   65MOL   C13313061   2.915   7.643   0.088 -0.5508  0.2939  0.1776
   65MOL   C13413062   3.038   7.631   7.654  0.2867  0.2105  0.4659
   65MOL   O13513063   3.121   7.542   0.012 -0.0855  0.3418  0.5682
   65MOL   N13613064   3.036   0.055   7.549 -0.5699 -0.0831 -0.5681
   65MOL   H13713065   2.910   7.424   0.079 -0.2814 -0.3180 -0.4344
   65MOL   H13813066   2.835   7.487   0.218  1.8192 -0.3654  0.4512
   65MOL   H13913067   2.841   0.048   0.037  0.2843  2.2070  1.2119
   65MOL   H14013068   2.965   0.128   7.550  0.6012  1.0743 -1.0763
   65MOL   H14113069   3.080   0.033   7.461 -0.2952  1.9442 -0.9706
   65MOL   C14213070   2.962   0.057   0.216 -0.8947  0.0412 -0.3367
   65MOL   C14313071   2.985   0.211   0.221  0.0441  0.4924 -0.0154
   65MOL   C14413072   3.109   0.252   0.149  0.0206 -0.1332 -0.4689
   65MOL   O14513073   3.218   0.239   0.197 -0.2346 -0.0770 -0.6305
   65MOL   N14613074   3.091   0.312   0.035 -0.1095 -0.3644 -0.6580
   65MOL   H14713075   3.043   0.007   0.269 -0.2252  0.1472 -1.2525
   65MOL   H14813076   2.875   0.034   0.278 -0.4517 -1.9990 -0.4272
   65MOL   H14913077   2.898   0.255   0.172 -0.4683 -1.8226 -1.2326
   65MOL   H15013078   3.005   0.345   7.652  0.7061  2.2878 -0.2784
   65MOL   H15113079   3.178   0.320   7.641 -0.3487  1.3073 -0.8271
   65MOL   C15213080   2.977   0.250   0.370  0.6248  0.2424 -1.3583
   65MOL   C15313081   2.900   0.379   0.385  0.5296 -0.1963 -0.4910
   65MOL   C15413082   2.948   0.451   0.513  0.0914  0.0675  0.2269
   65MOL   O15513083   2.972   0.383   0.617  0.4049  0.2431  0.3065
   65MOL   N15613084   2.954   0.586   0.510  0.4639  0.2416  1.1418
   65MOL   H15713085   3.078   0.260   0.411  0.7968  2.1166 -2.1827
   65MOL   H15813086   2.937   0.168   0.429  1.8598 -1.0962 -2.3392
   65MOL   H15913087   2.914   0.440   0.296  2.0050 -1.7995 -1.3841
   65MOL   H16013088   2.909   0.628   0.430 -1.6718 -0.0109  2.1631
   65MOL   H16113089   2.963   0.630   0.601  1.7687 -0.1196  1.1884
   65MOL   C16213090   2.753   0.337   0.402 -0.7481  0.8285  0.1609
   65MOL   C16313091   2.647   0.448   0.412  0.4407  0.3085 -0.2874
   65MOL   C16413092   2.628   0.500   0.553  0.0855 -0.5393 -0.6580
   65MOL   O16513093   2.583   0.422   0.638 -0.1760  0.1392 -0.2669
   65MOL   N16613094   2.644   0.625   0.581  0.3740 -0.2017 -0.6260
   65MOL   H16713095   2.752   0.287   0.499  0.4554  1.0210  0.2799
   65MOL   H16813096   2.722   0.255   0.337 -1.8245  0.0689  1.5943
   65MOL   H16913097   2.692   0.530   0.357  3.2145  0.6246  2.3556
   65MOL   H17013098   2.615   0.666   0.668  1.5802  3.8654 -2.0146
   65MOL   H17113099   2.671   0.695   0.513 -0.5667  0.5585 -0.2266
   65MOL   C17213100   2.513   0.402   0.337  0.4960 -0.3344 -0.0907
   65MOL   C17313101   2.388   0.492   0.336  0.8500 -0.9628  0.1209
   65MOL   C17413102   2.420   0.614   0.241  0.3877  0.3734  0.3595
   65MOL   O17513103   2.489   0.705   0.288 -0.1698 -0.0091  0.0102
   65MOL   N17613104   2.371   0.617   0.115  0.2508 -0.0801 -0.2965
   65MOL   H17713105   2.494   0.296   0.358  0.2009 -0.3810 -0.5906
   65MOL   H17813106   2.553   0.403   0.236  1.5518 -0.6992  0.3133
   65MOL   H17913107   2.312   0.442   0.276 -0.5983  2.2954 -0.8582
   65MOL   H18013108   2.338   0.535   0.066  1.3918 -0.0361 -1.1497
   65MOL   H18113109   2.400   0.698   0.062  1.0465  2.8566  4.3024
   65MOL   C18213110   2.322   0.534   0.465 -0.1419  0.0811 -0.2582
   65MOL   C18313111   2.271   0.417   0.553  0.0709 -0.1535 -0.4824
   65MOL   C18413112   2.160   0.339   0.488 -0.1490 -0.5222  0.6968
   65MOL   O18513113   2.053   0.391   0.450  0.5484 -0.1218  0.2065
   65MOL   N18613114   2.186   0.210   0.466  0.8876  0.0777  0.0138
   65MOL   H18713115   2.240   0.600   0.435  0.2880  0.8061  0.1322
   65MOL   H18813116   2.396   0.598   0.514  0.9901 -0.2343 -1.5315
   65MOL   H18913117   2.354   0.352   0.579 -1.3547 -2.3950 -1.3735
   65MOL   H19013118   2.107   0.150   0.451  1.4487 -0.7419  0.3046
   65MOL   H19113119   2.258   0.164   0.520 -2.2634 -1.3410  3.1940
   65MOL   C19213120   2.228   0.464   0.699  0.0028 -0.2532  0.0697
   65MOL   C19313121   2.258   0.363   0.808 -0.0865  0.2115 -0.0049
   65MOL   C19413122   2.268   0.424   0.951 -0.6234  0.1615  0.7136
   65MOL   O19513123   2.195   0.511   0.987 -0.4577  0.4910  0.2322
   65MOL   N19613124   2.348   0.361   1.036 -0.7821 -0.0358 -0.3350
   65MOL   H19713125   2.128   0.507   0.700 -0.7114 -1.8778  0.5738
   65MOL   H19813126   2.290   0.553   0.714 -0.1170 -0.3375  1.1575
   65MOL   H19913127   2.192   0.277   0.804 -0.8411  0.8455 -1.5199
   65MOL   H20013128   2.340   0.379   1.135 -0.7153 -0.1907 -0.3014
   65MOL   H20113129   2.429   0.311   1.003 -0.9545 -0.4026 -0.2020
   65MOL   H20213130   2.355   0.323   0.779  0.7085  0.7886  1.7820
   66MOL     C113131   1.731   2.403   2.215  0.0727  0.4932  0.3553
   66MOL     C213132   1.633   2.440   2.100  0.1606  0.4220 -0.3262
   66MOL     C313133   1.639   2.354   1.969 -0.0169 -0.1518 -0.0835
   66MOL     O413134   1.741   2.304   1.923 -0.3692  0.0712 -0.7834
   66MOL     N513135   1.526   2.327   1.909  0.5197  1.0055  0.8833
   66MOL     H613136   1.782   2.307   2.201  1.0276  1.3231 -2.1819
   66MOL     H713137   1.811   2.477   2.217 -1.1813  1.8731  0.9125
   66MOL     H813138   1.538   2.415   2.146 -0.3020  1.1478 -0.8886
   66MOL     H913139   1.436   2.363   1.938  0.1692  1.1869 -0.3770
   66MOL    H1013140   1.524   2.282   1.819 -1.4173 -0.2361  1.5068
   66MOL    H1113141   1.687   2.421   2.312 -0.0825 -0.7125  0.5193
   66MOL    C1213142   1.618   2.590   2.078 -0.1998 -0.0073  0.0686
   66MOL    C1313143   1.477   2.636   2.009  0.4860 -0.3112 -0.1446
   66MOL    C1413144   1.486   2.665   1.855  0.0794  0.0695  0.3994
   66MOL    O1513145   1.570   2.735   1.800  0.6832 -0.0440  0.3935
   66MOL    N1613146   1.391   2.614   1.779 -0.1520 -0.1831 -0.0864
   66MOL    H1713147   1.704   2.637   2.031 -0.5904 -1.1607 -1.8382
   66MOL    H1813148   1.601   2.628   2.179 -2.1201  0.4218 -0.3905
   66MOL    H1913149   1.416   2.546   2.021  0.6434 -0.5897 -1.3314
   66MOL    H2013150   1.385   2.634   1.680 -0.4033  0.9689  0.1603
   66MOL    H2113151   1.323   2.553   1.824  0.8291 -1.1362  0.1230
   66MOL    C2213152   1.409   2.765   2.076 -0.6660 -0.6594  0.0697
   66MOL    C2313153   1.259   2.797   2.037  0.1338 -0.1395 -0.1397
   66MOL    C2413154   1.218   2.933   2.085 -0.1767  0.2492 -0.3220
   66MOL    O2513155   1.247   2.966   2.200 -0.4416  0.3153 -0.1741
   66MOL    N2613156   1.146   3.015   2.013 -0.2265 -0.7063  0.2514
   66MOL    H2713157   1.463   2.854   2.043  0.0352 -2.1587 -3.0336
   66MOL    H2813158   1.430   2.772   2.183  2.1033 -1.0272 -0.4196
   66MOL    H2913159   1.255   2.804   1.928 -0.5913 -3.0141 -0.3390
   66MOL    H3013160   1.119   2.986   1.920  1.4439 -0.5629 -0.3038
   66MOL    H3113161   1.104   3.097   2.055  1.9175  1.0308 -0.8644
   66MOL    C3213162   1.167   2.678   2.075 -0.0941 -0.1354  0.0591
   66MOL    C3313163   1.119   2.679   2.222  0.2211  0.1648 -0.6023
   66MOL    C3413164   1.227   2.629   2.325 -0.7287 -0.2224 -0.6863
   66MOL    O3513165   1.304   2.540   2.304  0.3477  0.4226  0.0631
   66MOL    N3613166   1.226   2.692   2.444  0.2458  0.3307 -0.1617
   66MOL    H3713167   1.186   2.579   2.034  0.2381 -0.1905  0.3453
   66MOL    H3813168   1.073   2.703   2.026  1.2125 -1.0925 -2.9890
   66MOL    H3913169   1.085   2.780   2.246 -0.5042 -0.1370 -0.3660
   66MOL    H4013170   1.296   2.657   2.509 -0.7153  0.9283  1.2293
   66MOL    H4113171   1.179   2.779   2.463 -1.1011 -0.2665 -0.6599
   66MOL    C4213172   0.991   2.598   2.237 -0.0076 -0.3664  0.0171
   66MOL    C4313173   0.882   2.651   2.341 -0.4671  0.2623 -0.0536
   66MOL    C4413174   0.794   2.534   2.376  0.2993  0.0461 -0.3236
   66MOL    O4513175   0.748   2.462   2.288  0.1115 -0.6677  0.9218
   66MOL    N4613176   0.764   2.515   2.504  0.1236 -0.6506  0.4999
   66MOL    H4713177   1.007   2.492   2.256 -0.8966 -0.6342 -0.7095
   66MOL    H4813178   0.937   2.600   2.142  0.8025 -2.3877 -0.5134
   66MOL    H4913179   0.934   2.692   2.428  0.6600 -0.4763 -0.3741
   66MOL    H5013180   0.701   2.439   2.525 -0.9745 -0.4962 -2.0712
   66MOL    H5113181   0.797   2.571   2.582  1.0279 -1.2446  0.5481
   66MOL    C5213182   0.810   2.771   2.281  0.7857 -0.0036 -0.3989
   66MOL    C5313183   0.706   2.850   2.375  0.2183 -0.0143  0.1437
   66MOL    C5413184   0.640   2.970   2.294 -0.0961 -0.2319  0.0438
   66MOL    O5513185   0.694   3.020   2.196  0.4858 -0.2344  0.1544
   66MOL    N5613186   0.524   3.018   2.344  0.3082  0.3399  0.5570
   66MOL    H5713187   0.766   2.729   2.190 -0.1482 -1.9555  0.9093
   66MOL    H5813188   0.890   2.834   2.245  0.9286 -0.3547 -0.7097
   66MOL    H5913189   0.621   2.782   2.384 -0.0100  0.1292 -0.8593
   66MOL    H6013190   0.490   2.972   2.428  3.0614  0.3877  1.7638
   66MOL    H6113191   0.465   3.085   2.297 -0.8238  0.0616  1.5589
   66MOL    C6213192   0.756   2.891   2.516  1.4435 -0.3528  0.5631
   66MOL    C6313193   0.851   3.020   2.523 -0.1718 -0.1436  0.3277
   66MOL    C6413194   0.985   2.993   2.454  0.5950 -0.3097  0.6571
   66MOL    O6513195   1.061   2.915   2.507 -0.1952  0.0805 -0.2333
   66MOL    N6613196   1.023   3.058   2.343 -0.2289 -0.1452 -0.5471
   66MOL    H6713197   0.802   2.804   2.562  2.0673  0.0259  0.6673
   66MOL    H6813198   0.667   2.904   2.577  0.6333  0.3051 -0.7268
   66MOL    H6913199   0.801   3.104   2.474  0.7552 -1.1493 -2.4615
   66MOL    H7013200   0.964   3.133   2.309 -0.0422 -0.8558 -2.4726
   66MOL    H7113201   1.112   3.032   2.304 -0.4958  2.3493 -2.9726
   66MOL    C7213202   0.873   3.053   2.671 -0.3325 -0.4411  0.5213
   66MOL    C7313203   0.975   3.173   2.702  0.1059 -0.0180 -0.0175
   66MOL    C7413204   1.021   3.175   2.848  0.1938 -0.3741 -0.2518
   66MOL    O7513205   0.946   3.200   2.937  0.5141 -0.4018 -0.1205
   66MOL    N7613206   1.152   3.158   2.879 -0.2290  0.5197 -0.2835
   66MOL    H7713207   0.909   2.966   2.726 -1.0519 -0.1420  1.4866
   66MOL    H7813208   0.784   3.071   2.731 -0.4210  0.9138  0.0018
   66MOL    H7913209   1.058   3.163   2.631  0.1020 -1.0603  0.1130
   66MOL    H8013210   1.218   3.148   2.803 -0.0899 -1.4916  0.0794
   66MOL    H8113211   1.189   3.154   2.973 -0.4183 -0.6449 -0.2521
   66MOL    C8213212   0.922   3.317   2.659  0.0951  0.3959 -0.4679
   66MOL    C8313213   1.007   3.445   2.678  0.2894  0.6972 -0.2038
   66MOL    C8413214   0.923   3.575   2.668 -0.4420 -0.2996  0.4020
   66MOL    O8513215   0.973   3.681   2.703 -0.2722 -0.1870 -0.2192
   66MOL    N8613216   0.805   3.571   2.617  0.3095 -0.0257  0.5501
   66MOL    H8713217   0.825   3.334   2.706 -0.5020 -1.8553 -0.7966
   66MOL    H8813218   0.898   3.304   2.554  0.9274 -2.2452 -0.3776
   66MOL    H8913219   1.041   3.437   2.782 -2.0255 -0.3777  0.5291
   66MOL    H9013220   0.760   3.660   2.636 -1.6650 -0.9817  0.4458
   66MOL    H9113221   0.752   3.491   2.585  1.5388 -0.7711  0.3691
   66MOL    C9213222   1.144   3.448   2.611 -0.6896 -0.3997  0.3213
   66MOL    C9313223   1.147   3.431   2.453  0.0943 -0.1343  0.4456
   66MOL    C9413224   1.293   3.397   2.407  0.7411  0.1519 -0.4318
   66MOL    O9513225   1.389   3.470   2.433 -0.9038 -0.4792  0.5822
   66MOL    N9613226   1.308   3.276   2.366  0.1572  0.4394  0.5220
   66MOL    H9713227   1.219   3.378   2.648  1.5685  0.6096 -2.1739
   66MOL    H9813228   1.197   3.542   2.627  0.0702 -0.4283 -1.8515
   66MOL    H9913229   1.089   3.342   2.428 -0.8534  0.1373  1.6133
   66MOL   H10013230   1.221   3.232   2.340  0.9832 -2.1971  2.0621
   66MOL   H10113231   1.391   3.221   2.350 -0.1126  0.4592 -1.0426
   66MOL   C10213232   1.077   3.549   2.382 -0.2370 -0.1598  0.0234
   66MOL   C10313233   1.098   3.564   2.222 -0.4941 -0.2363  0.1332
   66MOL   C10413234   1.197   3.684   2.198 -0.4821 -0.0987 -0.7124
   66MOL   O10513235   1.172   3.797   2.232 -0.0575 -0.0429  0.9470
   66MOL   N10613236   1.309   3.660   2.139 -0.2233  0.4052  0.3804
   66MOL   H10713237   1.114   3.640   2.430 -3.0373  2.1304 -1.9227
   66MOL   H10813238   0.970   3.554   2.403 -0.1433 -0.2875  0.5326
   66MOL   H10913239   1.155   3.478   2.189 -0.1773  1.0687 -2.8922
   66MOL   H11013240   1.325   3.571   2.094 -0.0106  0.1699  0.9240
   66MOL   H11113241   1.372   3.738   2.123 -0.6905  0.6733 -0.1879
   66MOL   C11213242   0.963   3.578   2.143 -0.2906 -0.2174 -0.1222
   66MOL   C11313243   0.921   3.462   2.055  0.1432 -0.5505  0.3566
   66MOL   C11413244   0.910   3.333   2.140  0.0925 -0.4340 -0.6578
   66MOL   O11513245   1.006   3.253   2.144 -0.1887 -0.0013 -0.2669
   66MOL   N11613246   0.797   3.304   2.202  0.0887 -0.0118 -0.3618
   66MOL   H11713247   0.962   3.671   2.085 -1.8853 -0.1357  0.0304
   66MOL   H11813248   0.881   3.590   2.212  0.1016 -0.2641  0.3550
   66MOL   H11913249   0.821   3.495   2.026 -0.4624 -1.9883  0.7834
   66MOL   H12013250   0.772   3.214   2.240 -1.1737  0.7458  0.6518
   66MOL   H12113251   0.736   3.385   2.208 -2.0393 -1.7124  2.4880
   66MOL   C12213252   0.996   3.432   1.923 -0.2539 -0.0797  0.1098
   66MOL   C12313253   1.026   3.551   1.825  0.5763 -0.3984 -0.0414
   66MOL   C12413254   0.905   3.632   1.788 -0.1373 -0.0980 -0.1810
   66MOL   O12513255   0.917   3.751   1.769 -0.3250 -0.5894 -0.2362
   66MOL   N12613256   0.785   3.566   1.777 -0.1931 -0.6715  0.4080
   66MOL   H12713257   0.927   3.363   1.876  1.0158 -1.6175  0.4781
   66MOL   H12813258   1.091   3.381   1.940 -0.5353 -0.5838  0.1730
   66MOL   H12913259   1.092   3.614   1.885 -0.4842 -1.3811  2.2032
   66MOL   H13013260   0.793   3.472   1.813 -2.8880 -1.4167 -0.8175
   66MOL   H13113261   0.701   3.604   1.736  0.2222 -0.0135  0.1452
   66MOL   C13213262   1.107   3.508   1.696 -0.1480 -0.8897 -0.4000
   66MOL   C13313263   1.176   3.621   1.617 -0.6602 -0.2517  0.3427
   66MOL   C13413264   1.119   3.636   1.474 -0.1491  0.0803  0.3606
   66MOL   O13513265   1.185   3.607   1.379  0.3946  0.6414 -0.9562
   66MOL   N13613266   1.000   3.691   1.466 -0.0630 -0.4849 -0.2650
   66MOL   H13713267   1.044   3.451   1.627  1.5506 -0.5415 -2.2784
   66MOL   H13813268   1.175   3.429   1.727 -0.0272  0.0480  1.7765
   66MOL   H13913269   1.154   3.719   1.660 -0.4014 -0.0011 -0.0956
   66MOL   H14013270   0.957   3.739   1.544  0.0708  1.5319 -1.4040
   66MOL   H14113271   0.966   3.699   1.371 -1.4613 -0.5748  0.2191
   66MOL   C14213272   1.332   3.618   1.632 -0.5552  0.6866 -0.5415
   66MOL   C14313273   1.374   3.636   1.774 -0.3445 -0.4387  0.1444
   66MOL   C14413274   1.386   3.787   1.797 -0.2149 -0.6419 -0.6556
   66MOL   O14513275   1.490   3.847   1.783 -0.0192  0.3522 -0.0837
   66MOL   N14613276   1.282   3.849   1.848 -0.6334 -0.1208  0.6495
   66MOL   H14713277   1.381   3.680   1.557 -2.7847  2.6642 -0.4034
   66MOL   H14813278   1.369   3.520   1.602 -0.9478  0.7077 -1.1256
   66MOL   H14913279   1.294   3.598   1.839 -0.9751  0.7464  0.0767
   66MOL   H15013280   1.282   3.949   1.863  0.3565  0.0640 -0.4994
   66MOL   H15113281   1.199   3.794   1.867  0.2334 -1.8673 -0.4918
   66MOL   C15213282   1.508   3.566   1.807  0.0440 -1.0412  0.1892
   66MOL   C15313283   1.516   3.406   1.809  0.1130 -0.8139 -0.4617
   66MOL   C15413284   1.412   3.349   1.916 -0.4105 -0.7306 -0.2123
   66MOL   O15513285   1.380   3.413   2.016 -0.1951  0.3814  0.5560
   66MOL   N15613286   1.365   3.230   1.905 -0.1376 -0.5173 -0.6466
   66MOL   H15713287   1.537   3.604   1.905 -1.6827  1.9571 -0.4129
   66MOL   H15813288   1.588   3.597   1.740 -0.2449 -1.9114 -0.5744
   66MOL   H15913289   1.496   3.363   1.710 -0.0837  2.6585 -1.9931
   66MOL   H16013290   1.297   3.204   1.975  0.5352 -2.4243 -0.6617
   66MOL   H16113291   1.389   3.174   1.825 -0.6775 -0.4605 -0.8493
   66MOL   C16213292   1.663   3.357   1.839 -0.6246  1.2725 -0.1631
   66MOL   C16313293   1.715   3.387   1.986 -0.0493 -0.5166  0.0178
   66MOL   C16413294   1.852   3.445   1.974 -0.9223  0.0776 -0.0279
   66MOL   O16513295   1.943   3.374   1.935  0.2139 -0.2111  0.6341
   66MOL   N16613296   1.880   3.574   2.001  0.4794  0.0033 -0.3388
   66MOL   H16713297   1.724   3.410   1.766  0.6358  0.5394  0.3607
   66MOL   H16813298   1.686   3.252   1.822  1.3682  1.7938 -0.7879
   66MOL   H16913299   1.657   3.468   2.030 -0.7221 -0.1857 -1.4636
   66MOL   H17013300   1.974   3.611   1.993  1.2502 -1.8587 -0.1581
   66MOL   H17113301   1.806   3.638   2.024 -1.7353 -1.9643 -1.8214
   66MOL   C17213302   1.706   3.260   2.077 -0.4388  0.1001 -0.0903
   66MOL   C17313303   1.666   3.281   2.225  0.0833 -0.4326 -0.6378
   66MOL   C17413304   1.746   3.394   2.298 -0.1642  0.4811 -0.5092
   66MOL   O17513305   1.869   3.383   2.308  0.1949  0.2557  0.3212
   66MOL   N17613306   1.678   3.490   2.367 -0.4169  0.1817  0.5427
   66MOL   H17713307   1.793   3.195   2.076  0.6059  1.4631  0.0874
   66MOL   H17813308   1.634   3.189   2.036 -0.7899  0.3269  0.1300
   66MOL   H17913309   1.562   3.312   2.219  0.6924  1.3835 -2.7253
   66MOL   H18013310   1.727   3.553   2.428  0.4349  2.4230 -2.3328
   66MOL   H18113311   1.578   3.491   2.382 -0.7623 -1.1408 -1.4585
   66MOL   C18213312   1.687   3.149   2.302  0.2822 -0.1552 -0.0776
   66MOL   C18313313   1.652   3.141   2.457 -1.0806 -1.2351 -0.1520
   66MOL   C18413314   1.762   3.196   2.551  0.2111 -0.4006  0.0400
   66MOL   O18513315   1.747   3.308   2.600 -0.1462  0.1164 -0.3169
   66MOL   N18613316   1.869   3.124   2.588 -0.1838  0.2033  0.1382
   66MOL   H18713317   1.789   3.111   2.293 -0.1923 -0.8983 -2.7813
   66MOL   H18813318   1.617   3.085   2.248  0.0094 -1.1539  1.4485
   66MOL   H18913319   1.567   3.208   2.472  0.7744  0.9758  0.8819
   66MOL   H19013320   1.880   3.026   2.567 -0.6525  0.4226 -1.2012
   66MOL   H19113321   1.943   3.173   2.636  1.6114 -3.2064  0.9444
   66MOL   C19213322   1.601   3.006   2.514 -0.0645  0.1762  0.1714
   66MOL   C19313323   1.457   2.968   2.476 -1.0067  0.8509 -0.6247
   66MOL   C19413324   1.369   2.980   2.599  0.3998 -0.0199 -0.5121
   66MOL   O19513325   1.302   3.083   2.608  0.1279 -0.1569  0.3140
   66MOL   N19613326   1.373   2.879   2.686  0.2718  0.3304 -0.0508
   66MOL   H19713327   1.617   3.000   2.622 -0.7807  1.1522  0.3391
   66MOL   H19813328   1.660   2.929   2.465 -0.5882  0.9684 -1.7420
   66MOL   H19913329   1.424   3.038   2.400 -2.2773  3.0160  1.8105
   66MOL   H20013330   1.428   2.796   2.670  1.2266  0.8084  0.6681
   66MOL   H20113331   1.323   2.894   2.773 -2.6846 -1.8700 -1.2751
   66MOL   H20213332   1.458   2.867   2.436  0.2058  2.1511 -4.0345
   67MOL     C113333   1.188   7.605   5.772  0.5317  0.1114  0.6469
   67MOL     C213334   1.078   0.031   5.837 -0.3170  0.0731 -0.7885
   67MOL     C313335   1.065   0.167   5.774 -0.6874 -0.2154 -0.0718
   67MOL     O413336   0.987   0.185   5.683 -0.5540  0.3469 -0.0100
   67MOL     N513337   1.142   0.271   5.814  0.1565 -0.1313  0.6033
   67MOL     H613338   1.174   7.614   5.664 -2.7677 -0.8866  0.9620
   67MOL     H713339   1.291   7.636   5.793 -0.1215  1.2193  2.2710
   67MOL     H813340   0.979   7.645   5.823  0.3543 -2.3566  1.2989
   67MOL     H913341   1.135   0.359   5.765 -1.0168 -0.3359  0.3696
   67MOL    H1013342   1.194   0.270   5.900 -0.6635 -0.9765  1.1111
   67MOL    H1113343   1.173   7.504   5.809  0.6326 -0.7019 -1.4255
   67MOL    C1213344   1.069   0.034   5.992  0.2599  0.4202 -0.7949
   67MOL    C1313345   1.031   7.563   6.072  0.3233  0.0740  0.1659
   67MOL    C1413346   0.893   7.499   6.038 -0.6282 -0.4243 -0.2206
   67MOL    O1513347   0.885   7.380   6.055  0.2322  0.2598  0.1616
   67MOL    N1613348   0.800   7.576   5.987  0.2963  0.0979  0.5136
   67MOL    H1713349   1.013   0.124   6.021 -0.8848  0.1002 -1.9356
   67MOL    H1813350   1.168   0.066   6.023  0.4939 -0.8245 -0.2644
   67MOL    H1913351   1.093   7.475   6.055 -0.7337 -0.7463  0.5252
   67MOL    H2013352   0.810   0.017   6.008  2.1616  0.4181 -1.6162
   67MOL    H2113353   0.713   7.530   5.964  2.0495 -2.3586 -1.5758
   67MOL    C2213354   1.039   7.586   6.227 -0.0868 -0.4105  0.2732
   67MOL    C2313355   1.091   7.473   6.320 -0.0072  0.7217  0.2948
   67MOL    C2413356   1.018   7.474   6.455 -0.0883  0.2200  0.1341
   67MOL    O2513357   1.007   7.590   6.510 -0.1636  0.0938  0.6853
   67MOL    N2613358   0.987   7.358   6.518 -0.3772 -0.0391 -0.0283
   67MOL    H2713359   0.933   7.603   6.246 -0.3450 -1.4909 -0.1636
   67MOL    H2813360   1.100   0.018   6.242 -0.1191 -0.4621  0.7194
   67MOL    H2913361   1.065   7.381   6.267  0.5204  0.6727  0.1120
   67MOL    H3013362   0.995   7.272   6.466  0.5712  1.1187 -1.8604
   67MOL    H3113363   0.948   7.359   6.611  0.7480 -0.5611  0.4685
   67MOL    C3213364   1.245   7.469   6.333  0.1878  0.1118 -0.4085
   67MOL    C3313365   1.307   7.329   6.355 -0.4155  0.1100 -0.0145
   67MOL    C3413366   1.420   7.343   6.460  0.4214 -0.5472 -0.1717
   67MOL    O3513367   1.528   7.400   6.436  0.5003 -0.2364 -0.2681
   67MOL    N3613368   1.399   7.297   6.581  0.2332  0.3723  0.0536
   67MOL    H3713369   1.269   7.547   6.405 -1.8707 -1.4005  1.9671
   67MOL    H3813370   1.288   7.497   6.236 -0.6019  2.7023 -0.0509
   67MOL    H3913371   1.234   7.272   6.412 -1.4628  1.6152  0.1789
   67MOL    H4013372   1.307   7.258   6.597  1.4931 -1.7427  2.3863
   67MOL    H4113373   1.464   7.314   6.656 -0.8244 -1.0926  1.3375
   67MOL    C4213374   1.357   7.253   6.234  0.1915  0.4100 -0.4500
   67MOL    C4313375   1.400   7.104   6.257  0.6816  0.2364  0.0283
   67MOL    C4413376   1.450   7.048   6.126  0.1987  0.1509  0.0146
   67MOL    O4513377   1.408   7.091   6.020 -0.1812 -0.3847  0.1532
   67MOL    N4613378   1.540   6.958   6.130 -0.7286 -0.2715  0.5745
   67MOL    H4713379   1.449   7.303   6.206 -0.6842  1.5931 -1.2310
   67MOL    H4813380   1.281   7.271   6.158 -1.2853 -0.0517  0.8764
   67MOL    H4913381   1.487   7.100   6.322  1.1307 -1.7007 -0.6401
   67MOL    H5013382   1.575   6.925   6.040 -0.7765  0.3541  0.3266
   67MOL    H5113383   1.591   6.940   6.215 -0.6842 -0.0058  0.6040
   67MOL    C5213384   1.293   7.008   6.319  0.9669 -0.1678  0.1018
   67MOL    C5313385   1.169   6.963   6.235  0.7090 -0.1590 -0.5631
   67MOL    C5413386   1.064   7.078   6.212  0.3594  0.0418 -0.0697
   67MOL    O5513387   0.984   7.115   6.291 -0.7224  0.0893 -0.2742
   67MOL    N5613388   1.066   7.132   6.092 -0.2286 -0.1188 -0.0063
   67MOL    H5713389   1.259   7.052   6.413 -1.0733  0.9719 -1.1232
   67MOL    H5813390   1.349   6.919   6.346  0.7607 -0.7318 -1.2750
   67MOL    H5913391   1.208   6.927   6.139  1.0385 -0.3919 -0.3457
   67MOL    H6013392   1.105   7.077   6.017 -2.9645 -0.4460 -1.2387
   67MOL    H6113393   1.017   7.219   6.077 -0.3377 -0.0202  0.8526
   67MOL    C6213394   1.100   6.839   6.297  0.0202  0.5578 -0.0485
   67MOL    C6313395   0.991   6.766   6.222  0.0727  0.8684  0.3374
   67MOL    C6413396   0.920   6.661   6.319 -0.0343 -0.8940  0.6865
   67MOL    O6513397   0.992   6.588   6.389  0.1165 -0.0775  0.3079
   67MOL    N6613398   0.788   6.657   6.330 -0.5023  0.8656 -0.4892
   67MOL    H6713399   1.055   6.878   6.389  2.4013  1.5272  0.7664
   67MOL    H6813400   1.175   6.770   6.336  0.5225  0.9204 -0.3815
   67MOL    H6913401   0.922   6.845   6.192  0.0819  1.5253  1.9966
   67MOL    H7013402   0.751   6.584   6.390 -1.0357 -0.4329 -2.3337
   67MOL    H7113403   0.730   6.719   6.277  1.5231 -0.2215 -4.1663
   67MOL    C7213404   1.046   6.698   6.094  0.3129 -0.2369 -0.7637
   67MOL    C7313405   0.951   6.610   6.013 -0.6227 -0.0884 -0.0409
   67MOL    C7413406   1.032   6.535   5.898 -0.2685 -0.0790 -0.5418
   67MOL    O7513407   1.121   6.596   5.840  0.4856 -0.3192 -0.3530
   67MOL    N7613408   0.994   6.415   5.855 -0.8479  0.1842  0.4575
   67MOL    H7713409   1.120   6.627   6.131 -0.3833  1.6036  4.5077
   67MOL    H7813410   1.097   6.776   6.038 -1.1581  1.1940 -0.1315
   67MOL    H7913411   0.903   6.540   6.082 -2.6121  0.4565 -0.8170
   67MOL    H8013412   0.938   6.356   5.915 -0.1557 -0.8744  0.0810
   67MOL    H8113413   1.044   6.385   5.772 -3.7472 -0.2732 -1.1694
   67MOL    C8213414   0.837   6.689   5.955 -0.7729 -0.3555 -0.1698
   67MOL    C8313415   0.704   6.612   5.941 -0.4950  0.3961  0.0377
   67MOL    C8413416   0.650   6.600   5.798  0.0561 -0.1004 -0.6595
   67MOL    O8513417   0.637   6.694   5.719 -0.2134 -0.2602  0.1922
   67MOL    N8613418   0.612   6.478   5.758  0.1158 -0.6814  0.2273
   67MOL    H8713419   0.870   6.722   5.856 -1.7209 -1.2469 -0.7901
   67MOL    H8813420   0.823   6.786   6.002  1.0305 -0.2874  0.2792
   67MOL    H8913421   0.729   6.513   5.981  0.7234  0.6710 -0.0449
   67MOL    H9013422   0.555   6.470   5.675  0.6787  2.6126 -0.5570
   67MOL    H9113423   0.637   6.402   5.819  0.7831  0.5794  1.5546
   67MOL    C9213424   0.600   6.662   6.038 -0.0750  0.2355 -0.1487
   67MOL    C9313425   0.473   6.577   6.075  0.0514  0.0787 -0.6731
   67MOL    C9413426   0.403   6.653   6.188 -1.1350  0.2288 -0.1967
   67MOL    O9513427   0.464   6.664   6.292 -0.1899  0.3062 -0.2092
   67MOL    N9613428   0.284   6.700   6.159  0.9163 -0.0709  0.1077
   67MOL    H9713429   0.569   6.762   6.007 -0.4932 -0.2053 -1.1839
   67MOL    H9813430   0.660   6.675   6.128  1.3230  0.8121 -1.1447
   67MOL    H9913431   0.411   6.589   5.986 -1.7263 -0.8041  0.4201
   67MOL   H10013432   0.234   6.756   6.226  0.3826  1.8871 -1.8602
   67MOL   H10113433   0.233   6.664   6.080  0.2258  2.2913 -0.5554
   67MOL   C10213434   0.503   6.427   6.105  0.3306  0.6235 -0.2341
   67MOL   C10313435   0.397   6.314   6.134 -0.2994 -0.3024  0.2384
   67MOL   C10413436   0.288   6.315   6.028  0.3347  0.3155  0.5095
   67MOL   O10513437   0.242   6.421   5.987  0.4935 -0.2949  0.6876
   67MOL   N10613438   0.233   6.197   5.991 -0.4605  0.5013 -0.3788
   67MOL   H10713439   0.584   6.425   6.177 -1.2161  0.6322  1.5264
   67MOL   H10813440   0.550   6.396   6.011  2.6020 -0.0401  1.0959
   67MOL   H10913441   0.448   6.219   6.120 -0.3145 -0.3772  0.6873
   67MOL   H11013442   0.262   6.105   6.022 -0.3894  0.8728  0.6603
   67MOL   H11113443   0.144   6.204   5.943 -0.6114 -1.1555 -0.3642
   67MOL   C11213444   0.332   6.320   6.271 -0.1273 -1.2177 -0.3792
   67MOL   C11313445   0.293   6.180   6.335 -0.4659  0.5548  0.1208
   67MOL   C11413446   0.148   6.198   6.385  0.8048  0.0936 -0.4036
   67MOL   O11513447   0.124   6.275   6.477 -0.2342  0.0305  0.4478
   67MOL   N11613448   0.049   6.137   6.321  0.1154  0.5332  0.1134
   67MOL   H11713449   0.246   6.387   6.264  0.5143 -0.2337  0.8693
   67MOL   H11813450   0.403   6.376   6.332 -1.1185  0.7163 -0.9486
   67MOL   H11913451   0.300   6.102   6.259 -1.9883  0.8342 -0.3261
   67MOL   H12013452   7.613   6.147   6.360  0.7560  2.9156  1.1056
   67MOL   H12113453   0.064   6.084   6.236  1.3139  0.2554  0.4931
   67MOL   C12213454   0.384   6.144   6.454 -0.0459  0.0521  0.3966
   67MOL   C12313455   0.355   6.011   6.532  0.2093  0.8090  0.5373
   67MOL   C12413456   0.421   6.017   6.667  0.6532 -0.0546 -0.2018
   67MOL   O12513457   0.536   6.055   6.684  0.4651  0.1737  0.0680
   67MOL   N12613458   0.343   5.981   6.766  0.3098  0.0414  0.1689
   67MOL   H12713459   0.396   6.235   6.512 -1.6470  1.9838 -2.2314
   67MOL   H12813460   0.483   6.127   6.412 -1.2152 -3.1351 -1.2617
   67MOL   H12913461   0.248   5.995   6.548  0.6714 -3.8475 -0.3286
   67MOL   H13013462   0.243   5.987   6.762  0.3253  1.0478  1.0848
   67MOL   H13113463   0.383   5.985   6.859  1.2030  0.4506 -0.2269
   67MOL   C13213464   0.404   5.882   6.454  0.6846 -0.2523  0.2411
   67MOL   C13313465   0.364   5.741   6.493 -0.5833 -0.1323  0.1563
   67MOL   C13413466   0.473   5.648   6.440 -0.0311  0.0405  0.3157
   67MOL   O13513467   0.497   5.652   6.317 -0.7722 -0.1068 -0.0876
   67MOL   N13613468   0.562   5.582   6.507 -0.0451  0.4150  1.1180
   67MOL   H13713469   0.512   5.895   6.454  0.4326  2.2800  2.5433
   67MOL   H13813470   0.365   5.907   6.356 -0.4413  1.1673  1.0312
   67MOL   H13913471   0.377   5.743   6.602  2.1435  2.1148 -0.1754
   67MOL   H14013472   0.562   5.567   6.607  2.3294 -0.2258  1.0358
   67MOL   H14113473   0.637   5.539   6.456 -0.5220 -0.3085  1.0341
   67MOL   C14213474   0.224   5.709   6.440 -0.3495 -0.5845  0.4456
   67MOL   C14313475   0.143   5.596   6.510 -0.3073  0.8607  1.5732
   67MOL   C14413476   0.131   5.596   6.662 -0.4859  0.2809  0.4583
   67MOL   O14513477   0.179   5.508   6.731 -0.3537  0.1285  0.3392
   67MOL   N14613478   0.068   5.700   6.712  0.3634 -0.0229  0.0293
   67MOL   H14713479   0.231   5.684   6.334 -0.5368 -1.2267  0.5786
   67MOL   H14813480   0.162   5.798   6.442  1.2042  0.5365 -0.4413
   67MOL   H14913481   0.046   5.617   6.467  0.0564 -0.8150 -0.1081
   67MOL   H15013482   0.036   5.783   6.664  2.7829  0.6666 -0.4803
   67MOL   H15113483   0.051   5.711   6.812  1.4457  0.3641  0.1777
   67MOL   C15213484   0.190   5.454   6.472 -0.4731 -0.1683 -0.1582
   67MOL   C15313485   0.187   5.419   6.325  0.2801  0.2032  0.9350
   67MOL   C15413486   0.044   5.417   6.265 -0.5883  0.3391  0.7609
   67MOL   O15513487   7.622   5.340   6.315  0.3841  0.2439  0.4066
   67MOL   N15613488   0.014   5.486   6.153  0.3337  0.1745 -0.0344
   67MOL   H15713489   0.135   5.377   6.525 -0.4846 -0.2220 -0.2488
   67MOL   H15813490   0.293   5.434   6.504  0.4441  0.0580 -2.8202
   67MOL   H15913491   0.242   5.492   6.265 -0.7650  0.3795  0.1711
   67MOL   H16013492   0.093   5.496   6.091 -0.3077 -0.7240 -1.0122
   67MOL   H16113493   7.583   5.464   6.108  0.2353  0.3337  0.0767
   67MOL   C16213494   0.258   5.283   6.308  0.3162 -0.9380  0.2700
   67MOL   C16313495   0.407   5.290   6.281 -0.1359 -0.3044 -0.3219
   67MOL   C16413496   0.441   5.345   6.143 -0.7592 -0.4105  0.7604
   67MOL   O16513497   0.437   5.271   6.052 -0.1831  0.1585  0.1156
   67MOL   N16613498   0.481   5.470   6.132 -0.3336  0.5073  0.5738
   67MOL   H16713499   0.212   5.237   6.220  0.7355 -1.7315  0.4603
   67MOL   H16813500   0.243   5.220   6.395  2.2442  0.4950  1.6801
   67MOL   H16913501   0.459   5.359   6.347 -1.0267 -0.1035  0.1799
   67MOL   H17013502   0.492   5.506   6.038 -2.4731 -0.0538  0.0860
   67MOL   H17113503   0.476   5.532   6.212 -2.5404  1.2257 -0.1000
   67MOL   C17213504   0.476   5.154   6.302 -0.3599  0.2395  1.0322
   67MOL   C17313505   0.551   5.131   6.430 -0.1102  0.1134 -0.1945
   67MOL   C17413506   0.686   5.207   6.423  0.0274 -0.0906 -0.4787
   67MOL   O17513507   0.762   5.203   6.322  0.1102 -0.1348 -0.6514
   67MOL   N17613508   0.724   5.285   6.525  0.2614 -0.9721 -0.2491
   67MOL   H17713509   0.541   5.129   6.218 -1.0993  0.6516  0.3332
   67MOL   H17813510   0.401   5.076   6.307 -0.4943  0.3606  0.8692
   67MOL   H17913511   0.487   5.161   6.513  0.6264 -3.6500  1.8305
   67MOL   H18013512   0.676   5.288   6.613  1.0945  0.5347  0.1572
   67MOL   H18113513   0.801   5.349   6.515 -1.5595  1.2650 -0.3842
   67MOL   C18213514   0.578   4.980   6.459  0.4022 -0.2543 -0.4180
   67MOL   C18313515   0.462   4.885   6.507  0.4116  0.5288  0.1242
   67MOL   C18413516   0.399   4.800   6.397 -0.7867 -0.2817  0.8545
   67MOL   O18513517   0.363   4.842   6.287 -0.3066 -0.1480 -0.2968
   67MOL   N18613518   0.391   4.665   6.416 -0.6310  0.1204  0.0126
   67MOL   H18713519   0.652   4.969   6.538 -0.5140  0.5686  0.5709
   67MOL   H18813520   0.628   4.935   6.373 -0.0390 -0.4756 -0.5585
   67MOL   H18913521   0.520   4.815   6.567 -0.5661 -1.4603 -1.2291
   67MOL   H19013522   0.361   4.597   6.348  2.4515  0.0037 -1.3061
   67MOL   H19113523   0.400   4.623   6.507 -1.9624 -2.8172 -1.1605
   67MOL   C19213524   0.356   4.945   6.603  0.0732  0.0346  0.0458
   67MOL   C19313525   0.406   4.978   6.744  0.3659  0.0574  0.2411
   67MOL   C19413526   0.442   5.127   6.753 -0.1269  0.1901 -1.2520
   67MOL   O19513527   0.557   5.165   6.753  0.1614  0.5783  0.0615
   67MOL   N19613528   0.349   5.217   6.780 -0.0139 -0.8144  0.2768
   67MOL   H19713529   0.267   4.882   6.608 -1.3068  1.7702 -1.9154
   67MOL   H19813530   0.315   5.033   6.554 -0.3015  0.5916  1.3356
   67MOL   H19913531   0.336   4.951   6.823  0.2063  1.8606  0.7485
   67MOL   H20013532   0.374   5.314   6.794 -0.8968 -0.6961  1.0737
   67MOL   H20113533   0.250   5.199   6.780 -0.0326 -0.7120  0.3648
   67MOL   H20213534   0.502   4.930   6.760 -0.5077 -1.8520 -0.1374
   68MOL     C113535   2.414   2.743   2.140 -0.4746  0.7217 -0.0844
   68MOL     C213536   2.491   2.612   2.105  0.9626  0.1548 -0.3863
   68MOL     C313537   2.629   2.607   2.170 -0.3341  0.0019 -0.1226
   68MOL     O413538   2.720   2.687   2.145 -0.1171  0.0942 -0.1102
   68MOL     N513539   2.649   2.519   2.268 -0.5165  0.1233  0.4900
   68MOL     H613540   2.319   2.754   2.088 -0.4951  0.5740 -0.0768
   68MOL     H713541   2.386   2.736   2.246 -1.6164  1.1871 -0.3464
   68MOL     H813542   2.424   2.535   2.142  0.3059  0.9826  0.1595
   68MOL     H913543   2.582   2.444   2.279 -0.4671 -0.0527 -0.3172
   68MOL    H1013544   2.738   2.514   2.315 -0.4809  1.2920  0.5598
   68MOL    H1113545   2.474   2.834   2.139  0.8651 -0.1469  0.4052
   68MOL    C1213546   2.502   2.584   1.951  0.1194  0.3482 -0.2722
   68MOL    C1313547   2.567   2.692   1.872 -0.1120 -0.0541  0.4752
   68MOL    C1413548   2.472   2.779   1.800  0.4130 -0.4243  0.4881
   68MOL    O1513549   2.427   2.751   1.687  0.3788  0.3954 -0.6353
   68MOL    N1613550   2.426   2.886   1.863  0.0887  0.2640 -0.1845
   68MOL    H1713551   2.413   2.537   1.910  1.2277 -1.6225 -0.4472
   68MOL    H1813552   2.571   2.500   1.947  0.3959  0.5724 -0.3206
   68MOL    H1913553   2.619   2.759   1.940 -1.6913  0.4734  1.1742
   68MOL    H2013554   2.367   2.961   1.829 -0.7445 -0.5885 -0.6292
   68MOL    H2113555   2.452   2.899   1.960  2.3321 -1.2611 -0.5421
   68MOL    C2213556   2.666   2.629   1.768 -0.4666 -0.0760  0.0803
   68MOL    C2313557   2.811   2.594   1.816  0.1584  0.6315  0.0240
   68MOL    C2413558   2.883   2.733   1.811 -0.2559  0.2390 -0.5242
   68MOL    O2513559   2.919   2.781   1.703 -0.7450  0.4082  1.0164
   68MOL    N2613560   2.882   2.809   1.924 -0.0716 -0.0446  0.2167
   68MOL    H2713561   2.673   2.694   1.681  0.2915 -1.6036 -1.0091
   68MOL    H2813562   2.619   2.539   1.728 -1.5548  0.9531 -1.0086
   68MOL    H2913563   2.801   2.550   1.915  0.6966 -0.6931 -0.4900
   68MOL    H3013564   2.846   2.768   2.009 -0.2083 -1.3502 -0.4605
   68MOL    H3113565   2.921   2.902   1.917  0.5141 -0.1944  1.4444
   68MOL    C3213566   2.863   2.490   1.721  0.3214  0.8193  0.4087
   68MOL    C3313567   3.008   2.436   1.742  0.2424 -0.2851  0.0157
   68MOL    C3413568   3.035   2.339   1.624 -0.2294  0.3635  0.2638
   68MOL    O3513569   2.948   2.257   1.593  0.4407 -0.1514 -0.5168
   68MOL    N3613570   3.137   2.361   1.546  0.1703  0.0362 -0.5495
   68MOL    H3713571   2.868   2.544   1.626 -0.2541  0.1680  0.0040
   68MOL    H3813572   2.785   2.416   1.708  0.5326  0.3753  1.5836
   68MOL    H3913573   3.062   2.528   1.723 -1.5535  0.5699 -1.1464
   68MOL    H4013574   3.192   2.446   1.550 -2.8280  2.1322 -2.3097
   68MOL    H4113575   3.152   2.286   1.479  1.8222  0.3214 -0.5182
   68MOL    C4213576   3.031   2.362   1.877  0.1041  0.7060  0.0348
   68MOL    C4313577   3.069   2.449   2.000 -0.1163 -0.1059  0.5297
   68MOL    C4413578   3.183   2.545   1.961  0.0426  0.2050  0.6769
   68MOL    O4513579   3.172   2.661   1.984  0.7907  0.1332 -0.0164
   68MOL    N4613580   3.293   2.483   1.905  0.1164 -0.0697 -0.1460
   68MOL    H4713581   3.090   2.271   1.865  0.1554  0.7533 -0.0784
   68MOL    H4813582   2.939   2.309   1.902  0.2617 -0.3716 -1.5626
   68MOL    H4913583   2.986   2.516   2.023 -0.3340 -0.8948  2.0777
   68MOL    H5013584   3.323   2.387   1.909  1.4529  0.3948  1.3973
   68MOL    H5113585   3.369   2.547   1.887  2.1849 -2.4019  0.1217
   68MOL    C5213586   3.110   2.360   2.113  0.0795  0.8992 -0.1449
   68MOL    C5313587   2.988   2.311   2.192  0.3300 -0.0386 -1.0289
   68MOL    C5413588   2.958   2.383   2.328 -0.1778  0.1785 -0.2997
   68MOL    O5513589   2.959   2.327   2.436  0.1412  0.2238  0.1626
   68MOL    N5613590   2.925   2.507   2.320  0.2079 -0.1333  0.3951
   68MOL    H5713591   3.173   2.411   2.187  0.6515 -0.6152  0.4305
   68MOL    H5813592   3.175   2.280   2.077  0.6542  1.4212 -0.2880
   68MOL    H5913593   2.897   2.337   2.139  0.6612 -0.0931 -1.6285
   68MOL    H6013594   2.933   2.555   2.232 -1.0033  0.0652  0.3837
   68MOL    H6113595   2.916   2.557   2.407  1.5387 -0.6603  0.8533
   68MOL    C6213596   2.991   2.157   2.213 -0.2544 -0.7027 -0.4530
   68MOL    C6313597   2.863   2.078   2.154  0.9585  0.0851 -0.5398
   68MOL    C6413598   2.736   2.106   2.235 -0.2443 -0.1622  0.2248
   68MOL    O6513599   2.719   2.054   2.344  0.3113  0.5749  0.9158
   68MOL    N6613600   2.661   2.200   2.181 -0.0931  0.5383 -0.3147
   68MOL    H6713601   3.002   2.126   2.317 -0.9539 -0.7406 -0.3881
   68MOL    H6813602   3.082   2.112   2.172  0.0026 -1.2978  0.7317
   68MOL    H6913603   2.855   2.113   2.051  0.5761  2.2878  0.2045
   68MOL    H7013604   2.569   2.205   2.222 -0.0296 -2.1486  0.2643
   68MOL    H7113605   2.671   2.223   2.083  0.2039 -0.6974 -0.5794
   68MOL    C7213606   2.904   1.933   2.149 -0.3980  0.1784 -0.0441
   68MOL    C7313607   2.949   1.881   2.012 -0.3972  0.0597 -0.1172
   68MOL    C7413608   3.080   1.944   1.957  0.2872  0.0045  0.3825
   68MOL    O7513609   3.067   2.030   1.869 -0.2838  0.5527 -0.1631
   68MOL    N7613610   3.199   1.911   1.992  0.0542  0.6509 -0.0631
   68MOL    H7713611   2.823   1.873   2.191 -0.1154  0.3165  0.6928
   68MOL    H7813612   2.980   1.920   2.225 -0.1742 -1.5812 -0.5405
   68MOL    H7913613   2.967   1.774   2.020 -0.1904  0.0006 -1.2414
   68MOL    H8013614   3.267   1.975   1.955  1.0966 -0.5903 -0.3525
   68MOL    H8113615   3.203   1.837   2.061 -0.5717  0.9440  0.2894
   68MOL    C8213616   2.842   1.892   1.908 -0.8618 -0.3276  0.1031
   68MOL    C8313617   2.741   1.778   1.922 -0.6602 -0.5558 -0.8006
   68MOL    C8413618   2.793   1.641   1.876 -0.2329 -0.8648 -0.5475
   68MOL    O8513619   2.838   1.629   1.770 -0.0679  0.2965  0.2006
   68MOL    N8613620   2.802   1.545   1.969  0.6686  0.1125  0.2520
   68MOL    H8713621   2.887   1.881   1.810 -0.6588 -0.3637  0.1999
   68MOL    H8813622   2.799   1.992   1.903  0.0447  0.1227  1.0915
   68MOL    H8913623   2.716   1.757   2.026 -2.4205 -0.0515 -1.1160
   68MOL    H9013624   2.767   1.552   2.064 -0.9836 -0.8091 -0.2706
   68MOL    H9113625   2.848   1.456   1.955  0.2031 -0.0045 -0.5679
   68MOL    C9213626   2.610   1.816   1.858 -0.0265  0.1721 -0.4327
   68MOL    C9313627   2.485   1.723   1.893  1.0325  0.1343  0.0824
   68MOL    C9413628   2.360   1.766   1.806  0.4889  0.2352  0.0901
   68MOL    O9513629   2.306   1.877   1.826  0.3961 -0.2488 -0.0591
   68MOL    N9613630   2.320   1.682   1.710 -0.4683 -0.5541  0.0360
   68MOL    H9713631   2.632   1.805   1.752  0.3141 -0.4513 -0.3018
   68MOL    H9813632   2.580   1.916   1.889  2.1293  0.2474  1.6136
   68MOL    H9913633   2.520   1.623   1.868 -2.1332 -1.3093  1.2241
   68MOL   H10013634   2.373   1.602   1.681  0.1661 -0.2754  0.4344
   68MOL   H10113635   2.236   1.707   1.658  0.5218 -0.5635 -1.5994
   68MOL   C10213636   2.457   1.724   2.046 -0.0528  0.3173 -0.4707
   68MOL   C10313637   2.314   1.695   2.096 -0.2323 -0.5084 -0.2448
   68MOL   C10413638   2.312   1.731   2.245  0.4286 -0.0616  0.8964
   68MOL   O10513639   2.312   1.850   2.277 -0.2596  1.1030  0.0901
   68MOL   N10613640   2.315   1.631   2.336  0.3731 -0.1943  0.1032
   68MOL   H10713641   2.488   1.822   2.082  0.9313 -0.9317  2.1577
   68MOL   H10813642   2.528   1.660   2.098 -0.3018 -0.4683 -1.0844
   68MOL   H10913643   2.240   1.759   2.048  0.0465 -0.5703 -0.7625
   68MOL   H11013644   2.321   1.651   2.435 -2.5075  2.3669 -0.1761
   68MOL   H11113645   2.326   1.543   2.288  0.8776 -0.1972  0.2208
   68MOL   C11213646   2.274   1.548   2.062 -0.1935 -0.2728  0.7249
   68MOL   C11313647   2.117   1.527   2.055 -0.5961  0.7209  0.2389
   68MOL   C11413648   2.098   1.372   2.052 -0.1877 -0.2854 -0.5002
   68MOL   O11513649   2.152   1.298   1.972 -0.0460 -0.2212  0.5198
   68MOL   N11613650   2.010   1.332   2.147 -0.3242 -0.5900 -0.0385
   68MOL   H11713651   2.313   1.483   2.141  0.1895  0.6918  1.3323
   68MOL   H11813652   2.324   1.507   1.974 -2.4763 -0.9556 -0.2900
   68MOL   H11913653   2.071   1.574   2.143  0.9430  0.5036  1.1686
   68MOL   H12013654   1.975   1.400   2.212  1.9631  1.3644 -0.7857
   68MOL   H12113655   1.997   1.234   2.171  2.2469 -0.3136  2.8533
   68MOL   C12213656   2.062   1.600   1.931  0.0050 -0.0925  1.1152
   68MOL   C12313657   1.911   1.630   1.920  0.1302  0.8251  0.0060
   68MOL   C12413658   1.837   1.509   1.870  1.0248 -0.0980 -0.1833
   68MOL   O12513659   1.861   1.463   1.759 -0.3427  0.3138  0.2497
   68MOL   N12613660   1.744   1.446   1.945 -0.1531  0.8340 -0.3511
   68MOL   H12713661   2.099   1.551   1.842 -1.6211  1.2046 -0.3040
   68MOL   H12813662   2.104   1.700   1.918  1.5399 -0.5493  2.2883
   68MOL   H12913663   1.890   1.656   2.024  0.4183  0.1010  0.2529
   68MOL   H13013664   1.727   1.350   1.917  0.5477  0.3520  0.8099
   68MOL   H13113665   1.715   1.469   2.039  1.9196 -0.0649  0.5347
   68MOL   C13213666   1.889   1.747   1.825  0.3216 -0.6030 -0.0940
   68MOL   C13313667   1.752   1.805   1.789  0.3084  0.7410  0.0300
   68MOL   C13413668   1.775   1.937   1.714  0.2126  0.9765  0.1771
   68MOL   O13513669   1.854   2.019   1.754  0.4602  0.2812 -0.5510
   68MOL   N13613670   1.712   1.953   1.598  0.2745 -0.7453  0.7244
   68MOL   H13713671   1.942   1.725   1.733 -0.7398  2.3714 -1.4888
   68MOL   H13813672   1.948   1.829   1.867  0.5944 -0.5071 -0.6646
   68MOL   H13913673   1.711   1.737   1.715 -1.0002 -0.0898  1.4920
   68MOL   H14013674   1.726   2.029   1.533 -0.3091 -0.8795  0.4412
   68MOL   H14113675   1.640   1.883   1.584  1.1458 -0.9211 -3.5522
   68MOL   C14213676   1.642   1.805   1.900  0.4433 -0.4300  0.7136
   68MOL   C14313677   1.637   1.921   2.003  0.0255 -0.1912 -0.5147
   68MOL   C14413678   1.769   1.950   2.069  0.9703 -0.6309  0.2916
   68MOL   O14513679   1.817   1.869   2.145  0.3983 -1.0110 -0.3812
   68MOL   N14613680   1.832   2.060   2.035  0.1274  0.1135 -0.3777
   68MOL   H14713681   1.662   1.716   1.960 -1.0944  0.8935  3.2182
   68MOL   H14813682   1.548   1.777   1.852  1.1956 -2.8366  0.5673
   68MOL   H14913683   1.613   2.016   1.953 -0.0505  0.8064  1.3913
   68MOL   H15013684   1.791   2.116   1.962 -2.2890 -0.4875  0.4523
   68MOL   H15113685   1.919   2.083   2.081  0.2631  0.7795 -0.9622
   68MOL   C15213686   1.527   1.900   2.111 -0.2610  0.1357 -0.4760
   68MOL   C15313687   1.383   1.898   2.074  0.2052  0.6140 -0.8094
   68MOL   C15413688   1.337   2.021   1.996 -0.1927 -0.0098 -0.5900
   68MOL   O15513689   1.311   2.126   2.052 -0.0964  0.8501 -0.0168
   68MOL   N15613690   1.332   2.003   1.867  0.3610 -0.1239 -0.1588
   68MOL   H15713691   1.537   1.985   2.179 -1.4164 -1.3618  1.6060
   68MOL   H15813692   1.559   1.814   2.169  0.9762  0.9586  0.0993
   68MOL   H15913693   1.373   1.816   2.002 -0.2934  0.9589 -1.1325
   68MOL   H16013694   1.308   2.079   1.805  0.9830 -1.4063 -2.0073
   68MOL   H16113695   1.368   1.919   1.824  0.0905 -1.1834  1.6189
   68MOL   C16213696   1.287   1.847   2.192  0.2545 -0.1378  1.0483
   68MOL   C16313697   1.301   1.923   2.325 -0.6171 -0.1685 -0.7802
   68MOL   C16413698   1.386   1.840   2.424 -0.6700  0.1117  0.3940
   68MOL   O16513699   1.361   1.723   2.440  0.4928 -0.2555  0.9593
   68MOL   N16613700   1.491   1.900   2.483 -0.0203  0.3961 -0.0095
   68MOL   H16713701   1.312   1.741   2.199  0.0937 -0.3246 -0.8889
   68MOL   H16813702   1.181   1.843   2.167  1.0447 -1.3838 -2.3430
   68MOL   H16913703   1.362   2.013   2.325 -2.1515  0.9059  1.0688
   68MOL   H17013704   1.526   1.993   2.468  0.3867  0.0797 -1.0907
   68MOL   H17113705   1.538   1.838   2.547  0.9905  0.4447 -0.6987
   68MOL   C17213706   1.162   1.959   2.383  0.0463 -0.4667  0.0993
   68MOL   C17313707   1.098   2.072   2.303 -0.1115 -0.2251  0.3995
   68MOL   C17413708   1.141   2.212   2.347 -0.3919 -0.9959  0.1284
   68MOL   O17513709   1.096   2.267   2.446  0.1113  0.2000  0.7288
   68MOL   N17613710   1.226   2.272   2.267  0.0785 -0.0065 -0.1796
   68MOL   H17713711   1.175   1.977   2.490  0.4384 -1.4961  0.2343
   68MOL   H17813712   1.089   1.878   2.374  0.1069 -0.5508  0.3551
   68MOL   H17913713   1.143   2.064   2.203  1.5345  1.4503  0.9726
   68MOL   H18013714   1.263   2.238   2.179 -0.3137 -0.1183 -0.3019
   68MOL   H18113715   1.239   2.368   2.295  0.8358 -0.6062  1.5954
   68MOL   C18213716   0.947   2.077   2.286  0.7887  0.0466  0.3908
   68MOL   C18313717   0.879   1.978   2.188  0.1405  0.7295 -0.4730
   68MOL   C18413718   0.940   1.980   2.042  0.5562  0.5535  0.0132
   68MOL   O18513719   0.955   2.088   1.983 -0.2838  0.2202 -0.1647
   68MOL   N18613720   0.974   1.866   1.980 -0.0304 -0.0530  0.0464
   68MOL   H18713721   0.922   2.176   2.250 -0.9658 -0.1821  0.9084
   68MOL   H18813722   0.898   2.067   2.383  0.1743  0.3745  0.1186
   68MOL   H18913723   0.885   1.878   2.231  0.0751  1.6244  1.6763
   68MOL   H19013724   0.995   1.785   2.035  1.2055  0.1443 -0.1330
   68MOL   H19113725   0.989   1.870   1.880  2.4427  3.1421  0.4724
   68MOL   C19213726   0.732   2.018   2.175  0.3320 -0.5129 -0.1034
   68MOL   C19313727   0.632   1.940   2.089 -0.0675 -0.4526  0.0151
   68MOL   C19413728   0.502   2.023   2.056 -0.2453 -0.0339  0.3988
   68MOL   O19513729   0.492   2.145   2.073 -0.5825  0.0880  0.3962
   68MOL   N19613730   0.415   1.954   1.992  0.2087 -0.0124  0.7236
   68MOL   H19713731   0.724   2.125   2.158  0.5260  0.1815  3.7787
   68MOL   H19813732   0.687   2.001   2.272 -2.0891  0.8588 -0.9547
   68MOL   H19913733   0.681   1.907   1.997  0.5505  0.1056  0.1341
   68MOL   H20013734   0.341   2.001   1.941  1.9338  2.2427  0.2744
   68MOL   H20113735   0.424   1.857   1.963 -1.3408  0.1820 -0.5364
   68MOL   H20213736   0.604   1.847   2.139  1.9578 -0.9219  0.3660
   69MOL     C113737   3.046   1.051   5.695  0.3525 -0.5439 -0.1568
   69MOL     C213738   3.106   0.963   5.589  0.2946  1.1199  0.4986
   69MOL     C313739   3.232   0.891   5.632  0.4088  0.0181  0.6703
   69MOL     O413740   3.312   0.949   5.703 -0.2776 -0.3133 -0.4142
   69MOL     N513741   3.245   0.761   5.593 -0.4110 -0.2116  0.5512
   69MOL     H613742   2.966   1.120   5.665  0.8280 -1.1466 -2.9211
   69MOL     H713743   2.999   0.994   5.775 -0.0695 -2.1970 -1.5626
   69MOL     H813744   3.023   0.893   5.593  0.0256  1.3985 -0.0314
   69MOL     H913745   3.164   0.732   5.541  1.4600 -0.6073 -2.2785
   69MOL    H1013746   3.324   0.701   5.612 -0.0438 -0.0024 -0.2449
   69MOL    H1113747   3.118   1.109   5.753  0.8766 -2.7402  1.4461
   69MOL    C1213748   3.126   1.030   5.451 -0.2421  0.4662  0.8610
   69MOL    C1313749   3.248   1.133   5.434 -1.0334 -0.0842  0.1318
   69MOL    C1413750   3.183   1.270   5.450  0.4055  0.1946 -0.3497
   69MOL    O1513751   3.103   1.316   5.374  0.3875 -0.0306  0.0756
   69MOL    N1613752   3.222   1.333   5.558  0.0382 -0.0475 -0.4300
   69MOL    H1713753   3.029   1.075   5.429 -1.7180 -2.7504  0.4038
   69MOL    H1813754   3.144   0.945   5.385  2.5230  0.1923  1.8940
   69MOL    H1913755   3.324   1.110   5.508 -1.3902  1.3134  0.9536
   69MOL    H2013756   3.297   1.288   5.610  1.4499  1.7921 -0.8253
   69MOL    H2113757   3.183   1.418   5.595  1.5590  0.1662  0.7405
   69MOL    C2213758   3.327   1.121   5.297  0.3907 -0.5300 -0.0701
   69MOL    C2313759   3.466   1.187   5.271 -0.6154 -0.5320  0.1278
   69MOL    C2413760   3.452   1.336   5.257  0.2935  0.3946  0.2003
   69MOL    O2513761   3.531   1.410   5.310 -0.2693  0.6453 -0.3379
   69MOL    N2613762   3.348   1.382   5.192 -0.8635  0.3939 -0.4063
   69MOL    H2713763   3.251   1.151   5.225  0.6207 -1.0240 -0.5167
   69MOL    H2813764   3.340   1.015   5.277  2.6830 -0.6950  1.9862
   69MOL    H2913765   3.525   1.152   5.357 -1.8855  0.3201  1.3702
   69MOL    H3013766   3.277   1.323   5.152  0.3425 -1.3038 -0.0646
   69MOL    H3113767   3.338   1.481   5.172 -1.2311  0.3333 -0.5398
   69MOL    C3213768   3.544   1.120   5.157 -0.1081 -0.5539  0.0413
   69MOL    C3313769   3.689   1.167   5.134  0.8028  0.1890 -0.2079
   69MOL    C3413770   3.736   1.163   4.988  0.1479 -0.0420  0.7714
   69MOL    O3513771   3.734   1.059   4.929 -0.1557 -0.4191 -1.1400
   69MOL    N3613772   3.777   1.275   4.928  0.9816 -0.3262 -0.5748
   69MOL    H3713773   3.488   1.159   5.071 -0.8007 -1.7805 -0.0914
   69MOL    H3813774   3.523   1.013   5.150 -1.1017 -0.5874  2.8334
   69MOL    H3913775   3.694   1.268   5.173 -0.3017 -0.5514  1.9121
   69MOL    H4013776   3.813   1.263   4.835 -1.1460 -1.3458 -1.3023
   69MOL    H4113777   3.760   1.363   4.974  2.6224  0.0209 -0.6093
   69MOL    C4213778   3.781   1.079   5.223  0.3736  0.1378  0.7468
   69MOL    C4313779   3.937   1.098   5.226  0.2905  0.4104  0.0613
   69MOL    C4413780   4.009   0.984   5.299 -0.0240 -0.5155 -0.7633
   69MOL    O4513781   4.011   0.980   5.419 -0.6164 -0.1628  0.0194
   69MOL    N4613782   4.075   0.890   5.228  0.1635 -0.2723 -0.5808
   69MOL    H4713783   3.764   0.973   5.201 -2.5159  0.5058  1.0125
   69MOL    H4813784   3.747   1.090   5.326  0.4680  3.3300  0.4728
   69MOL    H4913785   3.959   1.086   5.120 -1.6041  5.2569 -1.0144
   69MOL    H5013786   4.109   0.815   5.287 -1.7475  1.5152  3.0168
   69MOL    H5113787   4.065   0.882   5.128  2.7894  1.3487 -1.0011
   69MOL    C5213788   3.985   1.243   5.258 -0.0935 -0.3391  0.3610
   69MOL    C5313789   4.124   1.281   5.208  0.5142  0.2235 -0.1329
   69MOL    C5413790   4.178   1.375   5.310  0.1931  0.6592  0.5130
   69MOL    O5513791   4.136   1.491   5.320  0.1890  0.1696 -0.0447
   69MOL    N5613792   4.267   1.327   5.395  0.3966 -0.1540 -0.0526
   69MOL    H5713793   3.974   1.259   5.365  2.3293 -0.2677  0.6405
   69MOL    H5813794   3.917   1.312   5.209  0.3358  0.2637  0.6093
   69MOL    H5913795   4.188   1.193   5.202 -0.2551 -0.3750  0.4292
   69MOL    H6013796   4.311   1.236   5.389  1.0866  0.0583  1.6597
   69MOL    H6113797   4.290   1.376   5.480 -2.5396  1.1749  0.0210
   69MOL    C6213798   4.126   1.355   5.059  0.3235 -0.1986 -0.1341
   69MOL    C6313799   4.263   1.384   5.000  0.0882 -0.2130 -0.3726
   69MOL    C6413800   4.283   1.537   4.981  0.6673  0.0122 -0.5838
   69MOL    O6513801   4.222   1.594   4.894  0.5630  0.1926  0.0783
   69MOL    N6613802   4.356   1.606   5.072  0.1199 -0.1023  0.3277
   69MOL    H6713803   4.061   1.442   5.056 -1.1597 -1.3045 -1.1598
   69MOL    H6813804   4.071   1.289   4.991  0.5859  0.2746 -0.8059
   69MOL    H6913805   4.334   1.344   5.072  1.0364  1.8031 -0.1329
   69MOL    H7013806   4.382   1.568   5.162  0.7231  1.5531  0.8696
   69MOL    H7113807   4.352   1.707   5.066 -0.0449 -0.1311 -0.0413
   69MOL    C7213808   4.287   1.316   4.864  0.1419  0.0475  0.1225
   69MOL    C7313809   4.280   1.159   4.852 -0.3060  0.0956  0.5552
   69MOL    C7413810   4.427   1.110   4.836 -0.4128 -0.1935 -0.1693
   69MOL    O7513811   4.483   1.043   4.924  0.3539  0.0013  0.0441
   69MOL    N7613812   4.498   1.155   4.733 -0.3565 -0.1255 -0.3350
   69MOL    H7713813   4.372   1.363   4.816  1.2198  1.0630  2.9503
   69MOL    H7813814   4.218   1.362   4.794 -1.4547  0.0835  1.6701
   69MOL    H7913815   4.260   1.107   4.946  0.0867 -1.6450 -0.3052
   69MOL    H8013816   4.467   1.224   4.667 -0.5078  1.1267  1.0157
   69MOL    H8113817   4.598   1.141   4.739 -0.5247 -0.7578  1.4558
   69MOL    C8213818   4.182   1.103   4.741  0.7041  0.7016  0.1694
   69MOL    C8313819   4.045   1.058   4.783 -0.0256 -0.1147 -0.7133
   69MOL    C8413820   4.046   0.930   4.876 -0.3763 -0.0115 -0.0236
   69MOL    O8513821   4.151   0.866   4.896  0.2378  0.0148  0.0931
   69MOL    N8613822   3.935   0.885   4.927 -0.2868  0.2355  0.2991
   69MOL    H8713823   4.237   1.022   4.693  0.3308 -0.5784  1.8701
   69MOL    H8813824   4.177   1.171   4.656 -0.5278 -2.0826 -2.0435
   69MOL    H8913825   4.001   1.136   4.844  1.1479  1.8191 -2.2713
   69MOL    H9013826   3.852   0.942   4.920  0.0236  0.7698  0.9759
   69MOL    H9113827   3.928   0.792   4.967 -0.8096 -0.5352 -1.5409
   69MOL    C9213828   3.946   1.049   4.670 -0.1301 -0.4412 -0.6008
   69MOL    C9313829   3.959   0.935   4.559 -0.9894 -0.0604  0.6956
   69MOL    C9413830   4.077   0.963   4.463  0.4810  0.2630  0.2669
   69MOL    O9513831   4.068   1.069   4.398  0.3112 -1.2792  0.2271
   69MOL    N9613832   4.174   0.874   4.454 -0.2506 -0.2409  0.1231
   69MOL    H9713833   3.939   1.149   4.627  1.9462  1.0835  2.4395
   69MOL    H9813834   3.846   1.039   4.712 -0.8749  1.0089 -1.9610
   69MOL    H9913835   3.974   0.842   4.613 -0.1703 -0.3268  0.0009
   69MOL   H10013836   4.251   0.903   4.395 -0.5572  1.5213  0.5592
   69MOL   H10113837   4.182   0.801   4.523 -1.3270 -0.8091 -0.3402
   69MOL   C10213838   3.829   0.917   4.476  0.2812  0.7223  0.2196
   69MOL   C10313839   3.758   1.052   4.422  0.0903 -0.0840 -0.2780
   69MOL   C10413840   3.649   1.101   4.516 -0.2297 -0.7343 -0.0609
   69MOL   O10513841   3.545   1.049   4.531 -0.0119  0.8586  0.1509
   69MOL   N10613842   3.679   1.211   4.583 -0.1987 -0.0995 -0.6168
   69MOL   H10713843   3.766   0.855   4.540 -1.4509  2.5833  0.3443
   69MOL   H10813844   3.852   0.847   4.396 -1.2301 -0.8985  1.1702
   69MOL   H10913845   3.833   1.132   4.426 -1.1036  1.0103  0.6058
   69MOL   H11013846   3.615   1.259   4.645  0.5152  0.5550 -0.3853
   69MOL   H11113847   3.769   1.252   4.563 -1.3017  1.4384 -2.5521
   69MOL   C11213848   3.698   1.024   4.284  0.2247  0.6070 -0.3534
   69MOL   C11313849   3.662   1.152   4.209  0.9967 -0.0826  0.3045
   69MOL   C11413850   3.558   1.140   4.096 -0.0663 -0.4889  0.6368
   69MOL   O11513851   3.529   1.034   4.051  0.2189 -0.1237  0.5105
   69MOL   N11613852   3.501   1.250   4.050  0.3939  0.1277 -0.3043
   69MOL   H11713853   3.612   0.957   4.293  1.1377 -0.3731  1.2879
   69MOL   H11813854   3.761   0.963   4.219  0.8372  1.1409 -0.2677
   69MOL   H11913855   3.604   1.208   4.283 -1.7773  0.8250 -2.4507
   69MOL   H12013856   3.537   1.341   4.075 -2.6725  0.9498  1.3850
   69MOL   H12113857   3.426   1.238   3.983  1.4108 -3.6551 -0.9105
   69MOL   C12213858   3.783   1.249   4.180  0.6677 -0.0938 -0.8239
   69MOL   C12313859   3.903   1.195   4.099  0.7399 -0.8824 -0.0763
   69MOL   C12413860   4.021   1.293   4.119  0.1463 -0.0905 -0.0736
   69MOL   O12513861   4.041   1.388   4.048  0.1585  0.9767  0.5169
   69MOL   N12613862   4.119   1.258   4.204 -0.1783  0.6200  0.4763
   69MOL   H12713863   3.822   1.280   4.276 -0.6517 -0.2406 -0.2251
   69MOL   H12813864   3.749   1.337   4.125  0.1034  1.2231  1.5701
   69MOL   H12913865   3.945   1.108   4.151 -2.8603 -1.9007  1.2405
   69MOL   H13013866   4.117   1.176   4.262 -0.3433  1.3201  1.4770
   69MOL   H13113867   4.206   1.307   4.194  1.2299 -1.8206  0.3845
   69MOL   C13213868   3.874   1.158   3.958 -0.4431  0.1755 -0.6864
   69MOL   C13313869   3.966   1.055   3.892 -0.2084 -0.2890 -0.1274
   69MOL   C13413870   3.968   1.081   3.741  0.2736 -0.2804 -0.2377
   69MOL   O13513871   3.867   1.088   3.673  0.5744  0.1190 -0.0448
   69MOL   N13613872   4.084   1.097   3.678 -0.1222 -0.6322  0.1982
   69MOL   H13713873   3.870   1.249   3.899  1.4217  1.3785  1.0126
   69MOL   H13813874   3.774   1.115   3.949  0.0325 -0.6085 -2.7301
   69MOL   H13913875   4.069   1.080   3.916 -0.2840 -0.5676  0.4889
   69MOL   H14013876   4.089   1.121   3.580  1.7238 -2.3040 -0.1417
   69MOL   H14113877   4.171   1.106   3.728 -1.4705  0.1299  2.4836
   69MOL   C14213878   3.930   0.902   3.917  0.3825  0.5177 -0.0636
   69MOL   C14313879   4.036   0.795   3.876  0.2896 -0.4570  0.2972
   69MOL   C14413880   3.961   0.659   3.850  0.0427 -0.3497  0.8861
   69MOL   O14513881   3.921   0.646   3.737  0.5195 -0.0105  0.3713
   69MOL   N14613882   3.934   0.579   3.948 -0.9320  0.8574 -0.6346
   69MOL   H14713883   3.839   0.884   3.858  0.6631  1.1519 -0.6954
   69MOL   H14813884   3.898   0.882   4.019 -0.3583  2.2527  0.0557
   69MOL   H14913885   4.065   0.826   3.776  1.4885 -1.4473  0.3225
   69MOL   H15013886   3.957   0.585   4.047  1.2821  1.3903 -1.1593
   69MOL   H15113887   3.869   0.505   3.926  0.3369 -0.4533 -0.0126
   69MOL   C15213888   4.165   0.792   3.959 -0.0630 -0.0950 -0.3919
   69MOL   C15313889   4.295   0.780   3.878  0.3896 -0.5715  0.0885
   69MOL   C15413890   4.307   0.635   3.836 -0.0930  0.7782  0.4647
   69MOL   O15513891   4.326   0.553   3.926  0.4682  0.5094  0.2969
   69MOL   N15613892   4.318   0.598   3.711  0.6725 -0.8387 -0.6833
   69MOL   H15713893   4.163   0.713   4.035 -2.0906 -0.5697 -0.9145
   69MOL   H15813894   4.154   0.882   4.019 -1.3888 -0.3143 -0.2942
   69MOL   H15913895   4.285   0.835   3.784  0.0103  0.9199  0.9977
   69MOL   H16013896   4.322   0.659   3.631  0.0021  0.5679  0.3436
   69MOL   H16113897   4.332   0.500   3.690  2.8002 -0.7378  0.1228
   69MOL   C16213898   4.411   0.811   3.964  0.5116  0.2971  0.2521
   69MOL   C16313899   4.439   0.965   3.975  0.3332 -0.4534  0.0811
   69MOL   C16413900   4.446   1.033   3.830  0.4432 -0.1520  0.3482
   69MOL   O16513901   4.357   1.099   3.780  0.6493  0.2677  0.0166
   69MOL   N16613902   4.556   1.026   3.758 -0.0951  0.8302 -0.1983
   69MOL   H16713903   4.496   0.764   3.913  1.3173  0.5675  1.3509
   69MOL   H16813904   4.405   0.757   4.058 -0.2373 -0.2134 -0.0801
   69MOL   H16913905   4.349   1.008   4.021  0.0393  1.5896 -2.3137
   69MOL   H17013906   4.568   1.077   3.672  1.5544  1.3667  0.3364
   69MOL   H17113907   4.638   0.980   3.793 -0.6569  0.8088  1.1234
   69MOL   C17213908   4.563   0.994   4.057 -0.2858  0.4749  0.3673
   69MOL   C17313909   4.544   0.985   4.214 -0.3330  0.3914 -0.0530
   69MOL   C17413910   4.487   1.128   4.266  0.1266 -0.6215 -0.0826
   69MOL   O17513911   4.473   1.225   4.188 -0.5662 -0.6576 -0.2842
   69MOL   N17613912   4.464   1.138   4.397  0.1410  0.2521 -0.5369
   69MOL   H17713913   4.609   1.090   4.033  3.0370 -1.2224 -0.3679
   69MOL   H17813914   4.638   0.921   4.025  0.5505  1.0802  0.9129
   69MOL   H17913915   4.459   0.926   4.246  1.1713 -0.9766  1.5240
   69MOL   H18013916   4.487   1.058   4.454 -1.7926  0.0525  0.0250
   69MOL   H18113917   4.451   1.223   4.450 -0.6553 -1.8006  2.6876
   69MOL   C18213918   4.669   0.928   4.293 -0.0125  0.7251 -0.0620
   69MOL   C18313919   4.656   0.779   4.330 -0.2399  0.3051 -0.7122
   69MOL   C18413920   4.538   0.753   4.422  0.3477  0.9192  0.0738
   69MOL   O18513921   4.499   0.845   4.489 -0.3592 -0.9210 -0.3321
   69MOL   N18613922   4.481   0.631   4.424  0.2869 -0.2400  0.4562
   69MOL   H18713923   4.693   0.979   4.386 -1.2235 -0.5626  0.9593
   69MOL   H18813924   4.757   0.938   4.229 -0.8164  0.9782 -1.1403
   69MOL   H18913925   4.640   0.733   4.232 -0.0287 -0.0295 -0.5901
   69MOL   H19013926   4.404   0.608   4.485  0.1184 -0.3207  0.2152
   69MOL   H19113927   4.521   0.557   4.368 -1.9552 -1.0393 -0.1187
   69MOL   C19213928   4.783   0.721   4.391  0.6672  0.1603 -0.3128
   69MOL   C19313929   4.843   0.604   4.311  0.1265  0.1969  0.3507
   69MOL   C19413930   4.940   0.656   4.198 -0.0059  0.0269  0.1703
   69MOL   O19513931   4.960   0.775   4.171  0.3186 -0.1382  0.8734
   69MOL   N19613932   5.004   0.566   4.125 -0.6780  0.1418 -0.2902
   69MOL   H19713933   4.765   0.688   4.493  0.2158 -0.3576 -0.5567
   69MOL   H19813934   4.855   0.802   4.403  0.6441  0.0900  0.2892
   69MOL   H19913935   4.887   0.530   4.377  0.4079 -1.1893 -1.3641
   69MOL   H20013936   5.065   0.599   4.052  2.3001  0.0460  2.0663
   69MOL   H20113937   4.979   0.468   4.117  0.8309 -0.1612 -1.4538
   69MOL   H20213938   4.762   0.547   4.264  1.0179 -0.4325 -0.4389
   70MOL     C113939   4.408   6.840   1.409 -0.3284  0.8717  0.1025
   70MOL     C213940   4.301   6.925   1.479 -0.5204  0.2104 -0.5335
   70MOL     C313941   4.278   6.872   1.621 -0.2244 -0.1191 -0.4811
   70MOL     O413942   4.316   6.765   1.651 -0.6281  0.1152 -0.1942
   70MOL     N513943   4.204   6.946   1.702  0.0936  0.9147 -1.0912
   70MOL     H613944   4.502   6.849   1.462 -1.3941 -0.6988  2.3191
   70MOL     H713945   4.397   6.733   1.393  2.6032  0.4739  0.5283
   70MOL     H813946   4.347   7.023   1.470 -1.1726  0.4929 -0.8129
   70MOL     H913947   4.164   7.033   1.671 -0.1079  1.9202  1.8081
   70MOL    H1013948   4.186   6.908   1.794 -0.3029  0.6558 -1.2734
   70MOL    H1113949   4.435   6.882   1.312  1.7985  0.4306  0.4697
   70MOL    C1213950   4.167   6.922   1.409  1.1970 -0.7067  0.6931
   70MOL    C1313951   4.123   7.067   1.358  0.2070 -0.1588 -0.6356
   70MOL    C1413952   4.091   7.159   1.482  0.6941  0.3905  0.2890
   70MOL    O1513953   3.988   7.146   1.548 -0.1534 -0.2364 -0.4499
   70MOL    N1613954   4.184   7.255   1.509  0.1403 -0.1765 -0.0892
   70MOL    H1713955   4.090   6.875   1.471 -1.7238  0.9012 -1.6053
   70MOL    H1813956   4.176   6.853   1.325  0.0789  0.5755 -0.5050
   70MOL    H1913957   4.211   7.112   1.312 -0.6130  1.3214 -0.7592
   70MOL    H2013958   4.260   7.273   1.444  0.1682  0.5571  0.1456
   70MOL    H2113959   4.180   7.294   1.602 -1.0962  1.0285 -0.6327
   70MOL    C2213960   4.013   7.068   1.246  0.6283  0.8258 -0.3870
   70MOL    C2313961   3.953   7.211   1.211 -0.3385 -0.1298 -0.3414
   70MOL    C2413962   3.799   7.212   1.195  0.8395 -0.5450 -0.0555
   70MOL    O2513963   3.724   7.297   1.246  0.2602  0.0099  0.0792
   70MOL    N2613964   3.747   7.112   1.129 -0.8718 -0.2684 -0.5939
   70MOL    H2713965   3.939   6.991   1.270  0.1130  1.5029  0.2243
   70MOL    H2813966   4.052   7.026   1.153  0.8918 -1.1790  0.5878
   70MOL    H2913967   3.985   7.286   1.283  0.0601 -1.4012  0.8555
   70MOL    H3013968   3.806   7.038   1.093 -0.5444  0.4755 -1.6141
   70MOL    H3113969   3.646   7.102   1.130 -0.8250 -0.7016  1.3187
   70MOL    C3213970   4.015   7.269   1.082  0.4304 -0.0015 -0.2712
   70MOL    C3313971   4.060   7.416   1.088  0.3031 -0.2317  0.2383
   70MOL    C3413972   4.200   7.421   1.162 -0.1163 -0.0470  0.1529
   70MOL    O3513973   4.219   7.407   1.282  0.9128 -0.4749 -0.1594
   70MOL    N3613974   4.303   7.459   1.089 -0.1689 -0.8142 -0.6869
   70MOL    H3713975   3.949   7.252   0.997 -0.4591  1.6453  0.0735
   70MOL    H3813976   4.086   7.200   1.037 -0.6875 -0.4233 -1.4114
   70MOL    H3913977   4.087   7.457   0.991  3.3570 -1.0022  0.7138
   70MOL    H4013978   4.393   7.465   1.134 -1.5092  0.6769  1.8869
   70MOL    H4113979   4.296   7.492   0.994 -0.6868  0.4743 -0.2058
   70MOL    C4213980   3.951   7.512   1.144 -0.5425  0.3819 -0.4583
   70MOL    C4313981   3.955   0.007   1.103 -0.6825 -0.8747  0.4447
   70MOL    C4413982   4.086   0.073   1.155  0.2632 -0.1608 -0.4593
   70MOL    O4513983   4.098   0.092   1.268  0.0946  0.0658  0.2534
   70MOL    N4613984   4.181   0.109   1.070  0.4840  0.5125  0.2188
   70MOL    H4713985   3.958   7.508   1.253  2.6239 -0.6053 -0.6554
   70MOL    H4813986   3.852   7.478   1.113  0.3742 -2.7284 -0.1999
   70MOL    H4913987   3.966   0.004   0.995  3.7077  1.2136  0.7527
   70MOL    H5013988   4.166   0.099   0.971 -1.9248  0.5020  0.5419
   70MOL    H5113989   4.273   0.143   1.095  1.0044  0.2817 -1.3390
   70MOL    C5213990   3.829   0.085   1.138  0.2967  0.9943 -0.4670
   70MOL    C5313991   3.689   0.025   1.094  1.1067 -0.2262  0.0224
   70MOL    C5413992   3.678   0.010   0.940 -0.2470  0.5044  0.1560
   70MOL    O5513993   3.706   0.100   0.865  0.1480 -0.4790 -0.1253
   70MOL    N5613994   3.635   7.553   0.899 -0.6055  0.2327  0.9207
   70MOL    H5713995   3.842   0.186   1.100 -0.0550  0.9023 -0.8247
   70MOL    H5813996   3.832   0.103   1.246  0.1427 -2.0595  0.0888
   70MOL    H5913997   3.682   7.587   1.146 -0.3094  0.0628  0.3887
   70MOL    H6013998   3.619   7.483   0.969  1.1090  0.0791  1.1871
   70MOL    H6113999   3.591   7.544   0.808 -0.2527  0.4252  0.7302
   70MOL    C6214000   3.577   0.117   1.140 -0.0815  0.3574 -0.1565
   70MOL    C6314001   3.430   0.079   1.102 -0.2836  0.0058  0.3404
   70MOL    C6414002   3.353   0.207   1.063 -0.0406 -0.0199 -0.1411
   70MOL    O6514003   3.357   0.305   1.140  0.1326 -0.5054 -0.0554
   70MOL    N6614004   3.284   0.210   0.951  0.0124 -0.1199 -0.4923
   70MOL    H6714005   3.607   0.214   1.100  0.4619  0.4523  0.4702
   70MOL    H6814006   3.583   0.125   1.248 -0.0533 -1.3788 -0.0078
   70MOL    H6914007   3.412   0.009   1.021 -1.2850 -2.1094  2.3405
   70MOL    H7014008   3.218   0.283   0.930  0.6745  0.4078 -0.7561
   70MOL    H7114009   3.277   0.126   0.895 -3.9140 -0.8838  1.0002
   70MOL    C7214010   3.350   0.011   1.210 -0.9033  0.0132  0.3796
   70MOL    C7314011   3.403   7.527   1.243  0.4725 -0.3815  0.0848
   70MOL    C7414012   3.389   7.425   1.125 -0.1188 -0.2916 -0.0632
   70MOL    O7514013   3.285   7.419   1.054 -0.7726 -0.1566  0.1471
   70MOL    N7614014   3.484   7.344   1.101 -0.0816 -0.4013 -0.1471
   70MOL    H7714015   3.251   0.005   1.165 -0.0721 -2.4007 -1.2139
   70MOL    H7814016   3.353   0.071   1.301  0.1371  1.5817 -0.6772
   70MOL    H7914017   3.509   7.538   1.264 -0.0159 -0.0986  2.5735
   70MOL    H8014018   3.487   7.278   1.025  0.3227  0.8281 -1.2031
   70MOL    H8114019   3.564   7.347   1.163  0.3165  0.6032 -0.7060
   70MOL    C8214020   3.316   7.478   1.366  0.2973 -1.3636 -0.2832
   70MOL    C8314021   3.382   7.448   1.502 -0.2327 -0.0599 -0.2508
   70MOL    C8414022   3.262   7.425   1.598 -0.1386  0.0683  0.2965
   70MOL    O8514023   3.194   7.520   1.635  0.0385 -0.2175 -0.1988
   70MOL    N8614024   3.219   7.306   1.625 -0.2451 -0.2239  0.1521
   70MOL    H8714025   3.268   7.382   1.346 -0.5031 -1.3460  1.3863
   70MOL    H8814026   3.230   7.543   1.384  0.2102 -1.4160 -0.5095
   70MOL    H8914027   3.433   7.352   1.510  1.2119  0.8510  2.0452
   70MOL    H9014028   3.279   7.225   1.614  1.1153  0.3516  2.8442
   70MOL    H9114029   3.134   7.291   1.678  1.4061  0.2826  3.0318
   70MOL    C9214030   3.485   7.557   1.547 -0.7223 -0.1552  0.4344
   70MOL    C9314031   3.632   7.527   1.519 -0.4820 -0.1355  0.8206
   70MOL    C9414032   3.687   7.415   1.606 -0.5607  0.4049 -0.7409
   70MOL    O9514033   3.682   7.431   1.731 -0.6979 -0.1821  0.1193
   70MOL    N9614034   3.735   7.305   1.550  0.1414  0.3812 -0.5363
   70MOL    H9714035   3.476   7.585   1.652  0.7234  1.3636  0.1785
   70MOL    H9814036   3.444   7.650   1.506  1.6910  1.0795  0.7561
   70MOL    H9914037   3.628   7.499   1.414  0.3309  0.2701  0.6824
   70MOL   H10014038   3.759   7.307   1.452  2.0181 -1.4073 -0.1492
   70MOL   H10114039   3.747   7.219   1.601 -0.7904 -0.1392 -1.1693
   70MOL   C10214040   3.731   7.643   1.507 -0.7151  0.4731 -0.1710
   70MOL   C10314041   3.812   0.055   1.621  0.4115  0.2281 -0.2806
   70MOL   C10414042   3.713   0.114   1.722  0.6773  0.5261 -0.4984
   70MOL   O10514043   3.618   0.187   1.682 -0.4557  0.4044  0.1121
   70MOL   N10614044   3.718   0.081   1.851 -0.1587  0.1138  0.1126
   70MOL   H10714045   3.666   0.060   1.459 -1.3468 -0.7637 -1.2654
   70MOL   H10814046   3.800   7.610   1.429 -2.3088 -1.0105 -0.9978
   70MOL   H10914047   3.875   7.639   1.673 -1.1698 -1.1087 -0.2249
   70MOL   H11014048   3.648   0.119   1.914 -3.7735 -2.9302 -1.8283
   70MOL   H11114049   3.772   0.003   1.884 -0.4197 -0.4225 -0.7124
   70MOL   C11214050   3.896   0.166   1.553  0.0731  0.4068  0.4892
   70MOL   C11314051   4.002   0.240   1.637  0.2808  0.1702 -0.2084
   70MOL   C11414052   4.050   0.366   1.564  0.3572 -0.2996  0.4214
   70MOL   O11514053   4.058   0.473   1.627 -0.1107 -0.0949 -0.5179
   70MOL   N11614054   4.089   0.343   1.439 -0.4068 -0.3563 -0.2679
   70MOL   H11714055   3.823   0.242   1.523 -0.3681 -0.1628  0.1133
   70MOL   H11814056   3.938   0.128   1.460 -3.0804  0.2606 -0.9223
   70MOL   H11914057   3.951   0.278   1.726  0.8119  2.5915 -0.8989
   70MOL   H12014058   4.155   0.412   1.405 -0.5402 -0.1558 -0.1223
   70MOL   H12114059   4.088   0.255   1.390  2.4769 -0.6688  0.1735
   70MOL   C12214060   4.118   0.160   1.705  0.5755 -0.2372 -0.0128
   70MOL   C12314061   4.207   0.092   1.601 -0.2793  0.4827 -0.0784
   70MOL   C12414062   4.190   7.591   1.619 -0.3278 -0.1140  0.3608
   70MOL   O12514063   4.258   7.524   1.697 -0.0615  0.5912  0.4115
   70MOL   N12614064   4.087   7.548   1.545 -0.0538 -0.4460 -0.8662
   70MOL   H12714065   4.065   0.092   1.771  0.9203  0.3566  0.8815
   70MOL   H12814066   4.176   0.229   1.767 -0.0792  0.6186 -0.3509
   70MOL   H12914067   4.175   0.109   1.499  0.9099  2.5456 -0.1224
   70MOL   H13014068   4.059   7.451   1.546  0.0149 -0.4702  1.1864
   70MOL   H13114069   4.049   7.609   1.474 -2.4396 -2.2699 -1.2030
   70MOL   C13214070   4.353   0.140   1.611 -0.3572  0.1935  0.8428
   70MOL   C13314071   4.445   0.093   1.498  0.0825 -0.3292  0.2943
   70MOL   C13414072   4.586   0.070   1.547 -0.4800 -0.3155  0.4899
   70MOL   O13514073   4.644   0.154   1.620 -0.1905  0.7896 -0.1492
   70MOL   N13614074   4.672   7.641   1.487 -0.1536 -0.6570 -0.7006
   70MOL   H13714075   4.383   0.114   1.712 -0.2444 -2.8291  0.0805
   70MOL   H13814076   4.356   0.249   1.611 -1.3314  0.2309  0.4432
   70MOL   H13914077   4.423   7.645   1.476  1.1212 -0.1086 -2.0126
   70MOL   H14014078   4.773   7.642   1.495 -0.2681  1.1486  1.1544
   70MOL   H14114079   4.630   7.555   1.457  0.7005 -1.0587 -0.7598
   70MOL   C14214080   4.434   0.164   1.360  0.0230  0.3871  0.1972
   70MOL   C14314081   4.500   0.301   1.347 -0.7039  0.3861  0.6164
   70MOL   C14414082   4.439   0.418   1.425 -0.3112 -1.1063  0.6883
   70MOL   O14514083   4.328   0.460   1.393 -0.1194  0.2150 -0.0338
   70MOL   N14614084   4.514   0.478   1.521 -0.0103  0.1283  0.7369
   70MOL   H14714085   4.329   0.189   1.341 -0.9465 -4.1592 -1.0333
   70MOL   H14814086   4.465   0.100   1.277 -2.8442  0.3978 -0.9586
   70MOL   H14914087   4.603   0.286   1.377 -0.6468 -1.2247 -0.3466
   70MOL   H15014088   4.473   0.560   1.563  2.5220  1.8426  0.0038
   70MOL   H15114089   4.601   0.442   1.558  0.4304 -0.0661 -0.4370
   70MOL   C15214090   4.527   0.346   1.196  0.4145  0.0537  0.9472
   70MOL   C15314091   4.659   0.426   1.179  0.7401  0.1925  0.2192
   70MOL   C15414092   4.652   0.522   1.062 -0.2527  0.0794 -0.0716
   70MOL   O15514093   4.699   0.490   0.951 -0.5797  0.4615 -0.1028
   70MOL   N15614094   4.577   0.632   1.082 -0.5285  0.0549  0.6338
   70MOL   H15714095   4.437   0.389   1.152 -0.2805 -1.3080  0.9862
   70MOL   H15814096   4.532   0.248   1.149 -1.6647 -1.4365  3.6477
   70MOL   H15914097   4.666   0.491   1.267  0.2695  0.6904 -0.1064
   70MOL   H16014098   4.525   0.646   1.167 -1.0300 -1.9276  0.6954
   70MOL   H16114099   4.559   0.684   0.997  1.4689 -0.5330 -0.1872
   70MOL   C16214100   4.771   0.318   1.170 -0.0746 -0.6158 -0.1531
   70MOL   C16314101   4.913   0.368   1.211  0.1359 -0.1595 -0.5974
   70MOL   C16414102   5.019   0.333   1.099 -0.6198  0.2063 -0.5222
   70MOL   O16514103   5.032   0.211   1.069  0.1319 -0.3276  0.5559
   70MOL   N16614104   5.094   0.434   1.044 -0.9675 -0.4880 -0.5596
   70MOL   H16714105   4.773   0.281   1.067 -0.8132  0.5287 -0.5899
   70MOL   H16814106   4.748   0.224   1.222 -0.9578 -0.6009 -0.5044
   70MOL   H16914107   4.903   0.476   1.212  0.4497 -0.1294 -0.2779
   70MOL   H17014108   5.124   0.424   0.948 -0.9656 -1.6891 -0.4449
   70MOL   H17114109   5.063   0.523   1.079 -1.6987 -1.0690  0.2923
   70MOL   C17214110   4.956   0.304   1.343  0.4889  0.1186  0.6928
   70MOL   C17314111   5.075   0.373   1.419  0.2171 -0.4913 -0.2241
   70MOL   C17414112   5.215   0.310   1.402 -0.2502 -0.1944  0.1384
   70MOL   O17514113   5.226   0.197   1.359 -0.0634 -0.5775 -0.1673
   70MOL   N17614114   5.317   0.394   1.422  0.3521 -0.1226  0.1448
   70MOL   H17714115   4.979   0.198   1.327 -3.1371 -0.6961  0.5162
   70MOL   H17814116   4.874   0.292   1.414 -1.6323 -1.4493 -1.9432
   70MOL   H17914117   5.089   0.472   1.375 -1.1156  0.6285  1.7552
   70MOL   H18014118   5.413   0.364   1.417  0.5660  0.8084 -2.2211
   70MOL   H18114119   5.296   0.487   1.455 -3.8014 -1.2076  0.8714
   70MOL   C18214120   5.047   0.381   1.574  0.4349 -0.5902  0.5952
   70MOL   C18314121   4.940   0.479   1.641 -0.4220  0.3600  0.0787
   70MOL   C18414122   4.947   0.620   1.573  0.2842 -0.1784  0.1672
   70MOL   O18514123   5.051   0.659   1.515 -0.1913 -0.4016  0.6568
   70MOL   N18614124   4.839   0.691   1.568  0.8601  0.0971  0.3316
   70MOL   H18714125   5.142   0.411   1.618 -0.1359  0.8512  0.8748
   70MOL   H18814126   5.026   0.276   1.594 -2.2218 -0.2349 -0.0789
   70MOL   H18914127   4.839   0.438   1.631 -0.6721  0.8851  0.4174
   70MOL   H19014128   4.859   0.783   1.531  1.7197 -0.0768  0.3503
   70MOL   H19114129   4.771   0.668   1.639 -0.5586  1.7259 -0.4580
   70MOL   C19214130   4.972   0.476   1.793 -0.9289  0.3810  0.1845
   70MOL   C19314131   4.893   0.370   1.871  0.0020 -0.6110 -0.1923
   70MOL   C19414132   4.748   0.414   1.909 -0.2144 -0.2586  0.1288
   70MOL   O19514133   4.721   0.508   1.984  0.2258  0.6093 -0.5317
   70MOL   N19614134   4.646   0.339   1.853 -0.0965  0.8596 -0.1254
   70MOL   H19714135   4.950   0.575   1.832  2.6202  1.7716 -1.1506
   70MOL   H19814136   5.080   0.474   1.809 -0.5995 -0.7403 -2.0869
   70MOL   H19914137   4.901   0.277   1.814  2.3514 -1.1683  0.9528
   70MOL   H20014138   4.551   0.348   1.885 -0.0301 -1.2421  0.7282
   70MOL   H20114139   4.679   0.263   1.796  1.9978  1.1007  0.6986
   70MOL   H20214140   4.951   0.346   1.960  0.9720  0.9869 -0.3769
   71MOL     C114141   4.794   0.909   7.550 -0.1697 -0.3806 -0.3581
   71MOL     C214142   4.638   0.920   7.536  0.1169 -0.0759  0.2773
   71MOL     C314143   4.572   0.924   0.018 -0.3171 -0.4450  0.3010
   71MOL     O414144   4.612   0.858   0.115  0.3880 -0.1691  0.5837
   71MOL     N514145   4.460   1.002   0.034 -0.0955 -0.5708  0.1179
   71MOL     H614146   4.827   0.931   7.449  0.0105  1.9635  0.1807
   71MOL     H714147   4.829   0.984   7.621  0.6400 -0.4757 -0.6544
   71MOL     H814148   4.615   1.013   7.484  1.7237 -0.7491 -1.7060
   71MOL     H914149   4.414   0.996   0.124  0.7552 -0.1607  0.5885
   71MOL    H1014150   4.412   1.051   7.617  2.3583  1.3035 -0.2896
   71MOL    H1114151   4.827   0.807   7.564 -3.4734 -1.7464 -2.0017
   71MOL    C1214152   4.588   0.809   7.450 -0.1239  0.0038 -0.0235
   71MOL    C1314153   4.635   0.827   7.303  0.1259  0.3585  0.0940
   71MOL    C1414154   4.523   0.802   7.210  0.1933 -0.7364 -0.0969
   71MOL    O1514155   4.472   0.691   7.193 -0.4121 -0.0940  0.0251
   71MOL    N1614156   4.485   0.898   7.124  0.0035  0.3165 -0.0067
   71MOL    H1714157   4.479   0.810   7.441 -0.2637 -2.4465  0.8996
   71MOL    H1814158   4.620   0.712   7.488 -0.9461 -0.6424 -0.9494
   71MOL    H1914159   4.661   0.931   7.283 -0.5358  0.7361  1.1399
   71MOL    H2014160   4.397   0.890   7.076 -0.1471  1.6694  0.0141
   71MOL    H2114161   4.532   0.987   7.116  2.0027 -0.6311  0.7676
   71MOL    C2214162   4.755   0.731   7.270  0.3881 -0.3105  0.5883
   71MOL    C2314163   4.844   0.769   7.147 -0.5377 -0.5778  0.1956
   71MOL    C2414164   4.790   0.711   7.014  0.4463 -0.1184  0.1991
   71MOL    O2514165   4.783   0.590   6.994  0.3682  0.6437  0.2075
   71MOL    N2614166   4.739   0.794   6.926 -0.3486 -0.7330  0.0239
   71MOL    H2714167   4.721   0.628   7.257  1.5294 -0.5145 -0.7770
   71MOL    H2814168   4.816   0.730   7.361 -0.0108  2.5679  0.9415
   71MOL    H2914169   4.858   0.876   7.130  0.8309 -1.0030 -1.4973
   71MOL    H3014170   4.694   0.753   6.846  0.0167 -1.2882  0.1049
   71MOL    H3114171   4.734   0.892   6.949  0.1602 -0.1451 -2.2781
   71MOL    C3214172   4.989   0.709   7.164  0.1327  0.1460  0.1391
   71MOL    C3314173   5.084   0.773   7.265 -0.2197  0.4943 -0.4306
   71MOL    C3414174   5.150   0.906   7.214  0.5741  0.1846  0.6543
   71MOL    O3514175   5.110   1.016   7.254  0.4547  0.3765  0.6486
   71MOL    N3614176   5.253   0.901   7.119 -0.6949 -0.0155 -0.3347
   71MOL    H3714177   5.045   0.697   7.072 -0.5068 -1.1951 -0.0848
   71MOL    H3814178   4.978   0.603   7.187 -3.4856  0.5782  0.7815
   71MOL    H3914179   5.022   0.798   7.351 -0.0642  0.7888 -0.4038
   71MOL    H4014180   5.298   0.987   7.094 -0.7770  0.1632  0.1141
   71MOL    H4114181   5.279   0.814   7.075 -1.4346  0.2598 -1.3251
   71MOL    C4214182   5.193   0.680   7.313  0.1276 -0.0508  0.7305
   71MOL    C4314183   5.157   0.598   7.451  0.1993  0.1594  0.6300
   71MOL    C4414184   5.176   0.698   7.568 -0.0394 -0.9238  0.3200
   71MOL    O4514185   5.272   0.774   7.574  0.5386 -0.1823  0.1859
   71MOL    N4614186   5.091   0.698   0.014  0.6830  0.1168 -0.0446
   71MOL    H4714187   5.285   0.738   7.325  2.3096 -3.5667  1.7879
   71MOL    H4814188   5.225   0.602   7.243 -0.4601  0.2347  0.1517
   71MOL    H4914189   5.054   0.562   7.443 -0.4926  2.4900 -1.3503
   71MOL    H5014190   5.108   0.770   0.082 -0.6521  0.2655  0.1409
   71MOL    H5114191   5.010   0.638   0.006 -0.0881  1.3043 -1.4688
   71MOL    C5214192   5.251   0.481   7.468  0.3946 -0.3104  0.1257
   71MOL    C5314193   5.192   0.356   7.542  0.6871 -0.1546  0.3579
   71MOL    C5414194   5.236   0.343   0.035 -0.3793 -0.2302  0.2108
   71MOL    O5514195   5.355   0.336   0.063  0.2463  0.0744  0.1103
   71MOL    N5614196   5.140   0.352   0.121 -0.2683 -0.8710 -0.2843
   71MOL    H5714197   5.327   0.526   7.532 -1.9115  2.3295  1.1513
   71MOL    H5814198   5.294   0.452   7.372  2.5079 -1.3317  1.3462
   71MOL    H5914199   5.084   0.362   7.532  0.6770 -1.6622 -0.5437
   71MOL    H6014200   5.144   0.365   0.221 -2.2420  0.9302 -0.4144
   71MOL    H6114201   5.051   0.348   0.074 -0.8722 -2.3822  0.9350
   71MOL    C6214202   5.222   0.224   7.460 -0.2365 -0.2186  0.1284
   71MOL    C6314203   5.116   0.187   7.353 -0.0116  0.9011  0.2881
   71MOL    C6414204   5.130   0.039   7.323 -0.0986 -0.2440 -0.1988
   71MOL    O6514205   5.216   0.007   7.237 -0.0488  0.1925  0.2121
   71MOL    N6614206   5.059   7.597   7.388  0.0819  0.5133 -0.6289
   71MOL    H6714207   5.234   0.140   7.529  2.3565 -0.4576 -0.5492
   71MOL    H6814208   5.323   0.238   7.420 -0.0983  1.0952  0.9052
   71MOL    H6914209   5.015   0.193   7.393 -0.9772 -2.3777 -1.4623
   71MOL    H7014210   5.069   7.509   7.340  1.5557 -0.1822  0.8878
   71MOL    H7114211   4.996   7.601   7.467  0.4881  0.8324 -0.3151
   71MOL    C7214212   5.124   0.275   7.228 -0.0992  0.1830  0.3272
   71MOL    C7314213   5.027   0.249   7.113  0.2809 -0.5913 -0.2613
   71MOL    C7414214   5.067   0.327   6.988 -0.1359 -0.0171  0.3510
   71MOL    O7514215   5.076   0.450   6.987 -0.2721  0.2297  0.0059
   71MOL    N7614216   5.093   0.265   6.870 -0.1925  0.3445  0.4097
   71MOL    H7714217   5.224   0.280   7.186 -0.7083  1.0053 -1.0661
   71MOL    H7814218   5.103   0.377   7.261 -1.3119  0.0148  0.1007
   71MOL    H7914219   5.046   0.145   7.087 -0.1478 -1.6528  3.3942
   71MOL    H8014220   5.091   0.165   6.852  1.9159  0.4291 -0.3716
   71MOL    H8114221   5.110   0.321   6.789 -1.3282  0.6811  0.3930
   71MOL    C8214222   4.886   0.290   7.161 -0.2551  0.2694  0.0472
   71MOL    C8314223   4.760   0.256   7.070 -0.3289 -0.8479  0.2214
   71MOL    C8414224   4.617   0.308   7.115 -0.9144 -0.0338  0.2358
   71MOL    O8514225   4.546   0.242   7.186  0.2163  0.5305  0.3739
   71MOL    N8614226   4.571   0.423   7.069  0.1931 -0.2087 -0.0730
   71MOL    H8714227   4.880   0.399   7.164  0.3479  0.2879  0.5733
   71MOL    H8814228   4.869   0.252   7.261  0.4295 -1.1841 -0.3869
   71MOL    H8914229   4.773   0.302   6.973  0.8533 -2.6227 -0.4969
   71MOL    H9014230   4.471   0.434   7.076  0.2532  0.3345 -0.0259
   71MOL    H9114231   4.618   0.486   7.006  2.7088 -1.9543 -0.0172
   71MOL    C9214232   4.748   0.096   7.041 -0.4022 -0.1649 -0.1639
   71MOL    C9314233   4.799   0.058   6.898 -0.0755  0.2046 -0.4687
   71MOL    C9414234   4.713   0.105   6.778  0.2115 -0.2890 -0.1668
   71MOL    O9514235   4.608   0.162   6.792 -0.1459  0.6169 -0.5080
   71MOL    N9614236   4.759   0.094   6.655  0.0959 -0.0402 -0.5185
   71MOL    H9714237   4.647   0.059   7.059 -0.8397  1.0881  0.0063
   71MOL    H9814238   4.811   0.045   7.114 -0.5587 -0.2299 -0.0755
   71MOL    H9914239   4.895   0.109   6.887 -0.0239  0.3573  0.6414
   71MOL   H10014240   4.710   0.135   6.577  0.1256  2.2168  0.5995
   71MOL   H10114241   4.851   0.055   6.639  0.2602 -0.3036  0.9967
   71MOL   C10214242   4.822   7.566   6.891  0.0897  0.8043 -0.2366
   71MOL   C10314243   4.964   7.513   6.938  0.3838 -0.2375  0.5214
   71MOL   C10414244   5.075   7.552   6.838  0.1531  0.2549  0.5315
   71MOL   O10514245   5.059   7.647   6.763  0.3147  0.0294  0.0607
   71MOL   N10614246   5.194   7.499   6.850  0.0462  0.1333  0.5103
   71MOL   H10714247   4.834   7.545   6.785  0.1468  0.9398 -0.2574
   71MOL   H10814248   4.735   7.514   6.931  0.4138  1.0026  0.7346
   71MOL   H10914249   4.991   7.554   7.035 -0.5350  1.6170  0.0133
   71MOL   H11014250   5.210   7.412   6.898 -1.5642  0.0587  0.9343
   71MOL   H11114251   5.268   7.541   6.796  1.6157 -0.6702  1.9875
   71MOL   C11214252   4.954   7.361   6.974 -0.3739  0.1265 -0.2088
   71MOL   C11314253   4.958   7.253   6.860  0.1468 -0.3491 -0.1652
   71MOL   C11414254   4.838   7.251   6.773  0.0599 -0.5402  0.1480
   71MOL   O11514255   4.725   7.239   6.817 -0.5044 -0.2994 -0.2902
   71MOL   N11614256   4.851   7.274   6.644  0.4804  0.2910 -0.3832
   71MOL   H11714257   4.868   7.345   7.039  0.4319  1.4605  1.2197
   71MOL   H11814258   5.037   7.334   7.040 -0.4948 -1.2655 -0.5972
   71MOL   H11914259   5.041   7.278   6.794  0.8062 -0.3709  0.6434
   71MOL   H12014260   4.940   7.307   6.611  0.3265  0.9145 -0.1926
   71MOL   H12114261   4.775   7.267   6.578 -0.8105 -0.0388  1.0860
   71MOL   C12214262   4.979   7.107   6.918 -0.3908  0.3555  0.0630
   71MOL   C12314263   5.127   7.084   6.960  0.1812  0.3848 -0.7421
   71MOL   C12414264   5.207   7.024   6.847  0.3245  0.0716 -0.9897
   71MOL   O12514265   5.173   6.917   6.797 -0.1360 -0.1362  0.0495
   71MOL   N12614266   5.313   7.089   6.810 -0.7334 -0.0216 -0.1496
   71MOL   H12714267   4.945   7.032   6.846 -1.7483  0.9645  0.0488
   71MOL   H12814268   4.908   7.082   6.998 -0.9946  0.3916 -0.4570
   71MOL   H12914269   5.168   7.180   6.991  0.1875 -0.3186  1.4782
   71MOL   H13014270   5.374   7.078   6.731  0.6806  1.9543  0.6067
   71MOL   H13114271   5.340   7.162   6.875  0.8355  0.3104 -1.1604
   71MOL   C13214272   5.144   6.998   7.088  0.1417 -0.2542  0.1508
   71MOL   C13314273   5.267   7.023   7.184 -0.2485  0.6274 -0.3023
   71MOL   C13414274   5.387   6.938   7.142 -0.0584 -0.1457  0.1134
   71MOL   O13514275   5.388   6.819   7.177  0.3766  0.4072  0.5545
   71MOL   N13614276   5.483   6.993   7.062 -0.2668  0.1121 -0.3963
   71MOL   H13714277   5.138   6.891   7.069  1.0941 -0.1434 -0.8309
   71MOL   H13814278   5.056   7.018   7.149 -1.1249 -0.1460 -1.6817
   71MOL   H13914279   5.301   7.126   7.177  0.7098  0.3144 -0.3681
   71MOL   H14014280   5.550   6.936   7.013  0.8371  0.4893  0.6541
   71MOL   H14114281   5.473   7.085   7.022 -0.4154  0.2649 -0.0076
   71MOL   C14214282   5.227   7.001   7.332  0.0154  0.6976  0.2308
   71MOL   C14314283   5.218   7.122   7.423 -0.6134  0.5732 -0.0890
   71MOL   C14414284   5.102   7.215   7.402  0.1747 -0.4586  0.0278
   71MOL   O14514285   5.124   7.316   7.333 -0.0624  0.0793 -0.2718
   71MOL   N14614286   4.981   7.195   7.461 -0.1447  0.4988 -0.0397
   71MOL   H14714287   5.302   6.939   7.381  1.9102  2.4051 -0.4202
   71MOL   H14814288   5.131   6.951   7.339 -0.4470  1.8857  2.8647
   71MOL   H14914289   5.203   7.078   7.521  2.6364  1.0447  0.6909
   71MOL   H15014290   4.911   7.267   7.454  0.4206  0.9784 -0.8716
   71MOL   H15114291   4.976   7.114   7.522  3.7061  0.4115  0.3168
   71MOL   C15214292   5.360   7.183   7.442 -0.1289 -0.2944 -0.3194
   71MOL   C15314293   5.381   7.295   7.549  0.6723  0.3466  0.2715
   71MOL   C15414294   5.467   7.418   7.498 -0.0028  0.0861 -0.1235
   71MOL   O15514295   5.594   7.400   7.493  0.1951 -0.0589 -0.1714
   71MOL   N15614296   5.414   7.530   7.450 -0.1632  0.0329 -0.3938
   71MOL   H15714297   5.394   7.230   7.350 -2.3779  1.5818 -0.2137
   71MOL   H15814298   5.437   7.110   7.469  0.2730  0.6493  1.1137
   71MOL   H15914299   5.296   7.363   7.539 -0.4904 -1.2613 -1.1882
   71MOL   H16014300   5.470   7.603   7.408  1.6517 -0.9584  0.2427
   71MOL   H16114301   5.315   7.549   7.460 -0.3753 -2.4632  2.9589
   71MOL   C16214302   5.402   7.267   0.041  0.3199 -0.3817  0.2574
   71MOL   C16314303   5.290   7.296   0.144  0.1198 -0.4295  0.2294
   71MOL   C16414304   5.265   7.446   0.156 -0.0603 -0.2622 -0.0661
   71MOL   O16514305   5.351   7.525   0.191 -0.2152  0.3289  0.1873
   71MOL   N16614306   5.147   7.490   0.118  0.3504 -0.4755  0.3071
   71MOL   H16714307   5.481   7.334   0.075 -2.1531  1.9092  1.5962
   71MOL   H16814308   5.437   7.165   0.061 -0.0159 -0.1125  2.2343
   71MOL   H16914309   5.202   7.242   0.108  1.5049 -0.7294 -2.9064
   71MOL   H17014310   5.071   7.446   0.068  0.4645  0.0382 -0.3304
   71MOL   H17114311   5.131   7.589   0.134  1.0726  0.0043 -1.7802
   71MOL   C17214312   5.313   7.243   0.291  0.7442  0.6035  0.1616
   71MOL   C17314313   5.410   7.126   0.314 -0.4495  0.4548  0.0012
   71MOL   C17414314   5.368   6.994   0.244  0.8655 -0.4708 -0.0335
   71MOL   O17514315   5.254   6.953   0.255 -0.4348 -0.1013  0.4306
   71MOL   N17614316   5.462   6.934   0.171 -0.3202 -0.4399  0.0310
   71MOL   H17714317   5.215   7.210   0.324  0.9210 -0.0104  0.0632
   71MOL   H17814318   5.354   7.323   0.352  0.2656  0.1489  1.0868
   71MOL   H17914319   5.506   7.154   0.271 -0.2403 -0.6457 -0.2588
   71MOL   H18014320   5.559   6.962   0.163 -0.4162  0.1340  0.8086
   71MOL   H18114321   5.429   6.853   0.121  0.6478 -1.4094  0.9232
   71MOL   C18214322   5.449   7.103   0.465 -0.1933 -0.6833 -0.8148
   71MOL   C18314323   5.558   6.997   0.507 -0.1195  0.1022 -0.1690
   71MOL   C18414324   5.496   6.855   0.512 -0.2782 -0.5383 -0.6205
   71MOL   O18514325   5.414   6.826   0.595 -0.2555  0.1059 -0.2176
   71MOL   N18614326   5.529   6.767   0.420 -0.1130 -0.5046 -0.1301
   71MOL   H18714327   5.352   7.084   0.509 -0.6530  0.5926 -1.2361
   71MOL   H18814328   5.486   7.200   0.498 -3.2535  0.6721 -1.1885
   71MOL   H18914329   5.639   7.001   0.434  0.7836 -0.8832  0.7603
   71MOL   H19014330   5.477   6.680   0.425 -1.3573  0.3449  2.9035
   71MOL   H19114331   5.604   6.773   0.353  0.8347 -0.2299  0.9659
   71MOL   C19214332   5.615   7.033   0.651  0.0799  1.0097 -0.5825
   71MOL   C19314333   5.722   7.142   0.657 -0.1444  1.1081 -0.1834
   71MOL   C19414334   5.853   7.106   0.601 -0.1190  0.0262 -0.4915
   71MOL   O19514335   5.950   7.072   0.670  0.1544 -0.6248  0.7291
   71MOL   N19614336   5.858   7.132   0.473  0.5371  0.0534  0.2345
   71MOL   H19714337   5.658   6.941   0.691 -2.0194 -1.1348 -3.0431
   71MOL   H19814338   5.534   7.050   0.723  0.1007  0.9318 -0.5413
   71MOL   H19914339   5.683   7.235   0.617 -2.4619 -0.1363 -0.9171
   71MOL   H20014340   5.950   7.122   0.431 -0.3098 -2.8039 -1.0672
   71MOL   H20114341   5.780   7.173   0.424 -0.0484  1.9190  2.6401
   71MOL   H20214342   5.743   7.169   0.761  2.1519 -0.1817 -0.2904
   72MOL     C114343   3.789   2.766   5.065 -0.9710 -0.4388  0.2198
   72MOL     C214344   3.720   2.625   5.094  0.0895 -0.7101  0.0635
   72MOL     C314345   3.699   2.607   5.251 -0.2809 -0.3000  0.2236
   72MOL     O414346   3.793   2.570   5.326  0.4750  0.5276  0.0706
   72MOL     N514347   3.574   2.625   5.300  0.4381  0.6039  0.1657
   72MOL     H614348   3.885   2.783   5.113 -1.4478  1.1341  0.6369
   72MOL     H714349   3.821   2.778   4.961  0.3176 -0.4639  0.6128
   72MOL     H814350   3.623   2.625   5.044  0.8783 -0.4323 -1.4953
   72MOL     H914351   3.555   2.607   5.397 -0.5253  1.1865  0.0917
   72MOL    H1014352   3.512   2.684   5.246  0.1223 -0.8996 -1.1567
   72MOL    H1114353   3.724   2.849   5.091  0.7262  0.5209  1.4537
   72MOL    C1214354   3.806   2.509   5.036  0.3816 -0.4310 -0.4572
   72MOL    C1314355   3.749   2.366   5.056  0.0468 -0.1871  0.0830
   72MOL    C1414356   3.846   2.252   5.032  0.3911  0.1993 -1.0127
   72MOL    O1514357   3.942   2.266   4.956 -0.0850  0.2678  0.0337
   72MOL    N1614358   3.836   2.138   5.102  0.3233 -0.1343  0.3667
   72MOL    H1714359   3.907   2.512   5.075  0.3148  3.2350 -0.3632
   72MOL    H1814360   3.814   2.525   4.928  1.8144 -0.7647 -0.4121
   72MOL    H1914361   3.724   2.358   5.161  0.8876  0.3716  0.3268
   72MOL    H2014362   3.904   2.069   5.074  0.1063  0.4149 -1.6114
   72MOL    H2114363   3.758   2.125   5.165 -0.6195  1.7858 -0.3562
   72MOL    C2214364   3.608   2.355   4.982 -0.2018  0.3852 -1.0987
   72MOL    C2314365   3.606   2.343   4.828 -0.3318 -0.4548 -0.1067
   72MOL    C2414366   3.595   2.481   4.761  1.3384  0.8236  0.0198
   72MOL    O2514367   3.521   2.573   4.807 -0.0465  0.1288 -0.4975
   72MOL    N2614368   3.665   2.491   4.645  0.3179 -0.1579  0.4165
   72MOL    H2714369   3.535   2.425   5.021 -0.4057 -1.1779  1.4387
   72MOL    H2814370   3.567   2.265   5.028 -0.8613  1.8691  1.3115
   72MOL    H2914371   3.691   2.288   4.786  2.4104  1.8171  2.2272
   72MOL    H3014372   3.653   2.577   4.594 -1.7185  0.3188  1.6474
   72MOL    H3114373   3.709   2.408   4.608 -0.8134 -0.8743  0.6511
   72MOL    C3214374   3.479   2.260   4.795  0.1453  0.5865 -0.3978
   72MOL    C3314375   3.332   2.308   4.822  0.4752  0.3581 -0.1973
   72MOL    C3414376   3.276   2.276   4.962  0.7595  0.2476  0.0533
   72MOL    O3514377   3.340   2.254   5.059 -0.4602  0.2437  0.3668
   72MOL    N3614378   3.139   2.261   4.969  0.0563  0.1393 -0.2059
   72MOL    H3714379   3.483   2.160   4.838 -0.8255 -0.0115 -1.6602
   72MOL    H3814380   3.492   2.242   4.689  0.0724 -3.3070  0.2098
   72MOL    H3914381   3.327   2.416   4.815 -1.7681  0.3059  0.2013
   72MOL    H4014382   3.084   2.259   4.884 -1.0316  1.0574  0.4603
   72MOL    H4114383   3.100   2.226   5.055 -0.8000 -1.8599 -1.3930
   72MOL    C4214384   3.227   2.274   4.717 -0.3409  0.5260 -0.2038
   72MOL    C4314385   3.172   2.122   4.706 -0.3930  0.4816 -0.2203
   72MOL    C4414386   3.285   2.040   4.644 -0.4836  0.1438 -0.3505
   72MOL    O4514387   3.328   2.062   4.532  0.1265 -0.1240  0.3736
   72MOL    N4614388   3.334   1.947   4.717 -0.4750 -0.0230  0.4662
   72MOL    H4714389   3.277   2.291   4.622 -1.2907 -0.5237 -0.9088
   72MOL    H4814390   3.147   2.347   4.719 -0.2595  0.6814 -1.6266
   72MOL    H4914391   3.149   2.082   4.805 -1.7993 -0.1485 -0.7867
   72MOL    H5014392   3.308   1.940   4.814  0.7904 -0.2772  0.7953
   72MOL    H5114393   3.390   1.877   4.672 -1.5581  0.8249 -2.3577
   72MOL    C5214394   3.035   2.100   4.640 -0.3458 -0.3843  0.9302
   72MOL    C5314395   3.005   2.135   4.490 -0.3263 -0.5077 -0.6881
   72MOL    C5414396   3.047   2.278   4.453  0.3997  1.0259  0.2745
   72MOL    O5514397   3.130   2.306   4.366  0.2004  0.5890 -0.2682
   72MOL    N5614398   2.977   2.372   4.518 -0.5635  0.4547 -0.1746
   72MOL    H5714399   2.967   2.151   4.709 -1.1457 -0.0459 -0.0961
   72MOL    H5814400   3.006   1.995   4.646 -0.3784 -0.5360 -1.3487
   72MOL    H5914401   3.069   2.063   4.437  1.9546  0.4575  0.6686
   72MOL    H6014402   2.997   2.470   4.506 -4.0577  1.3181  0.3917
   72MOL    H6114403   2.911   2.341   4.588 -0.3004 -0.1690 -0.1994
   72MOL    C6214404   2.862   2.096   4.457 -0.0756 -0.3166 -0.7903
   72MOL    C6314405   2.843   2.012   4.332 -0.4542  0.0312  0.1691
   72MOL    C6414406   2.856   1.860   4.350  0.1827 -0.2239  0.0359
   72MOL    O6514407   2.902   1.801   4.447 -0.8268 -0.0544 -0.1416
   72MOL    N6614408   2.822   1.784   4.247 -0.3934 -0.0799 -0.1839
   72MOL    H6714409   2.817   2.191   4.429  0.2329  0.5485  1.5026
   72MOL    H6814410   2.805   2.054   4.541  1.0105 -0.2477 -0.0081
   72MOL    H6914411   2.735   2.016   4.318 -0.2941  0.1029 -1.1219
   72MOL    H7014412   2.790   1.840   4.169  1.4535  0.8702 -0.2933
   72MOL    H7114413   2.834   1.684   4.245 -0.4680 -0.0726 -2.2987
   72MOL    C7214414   2.909   2.068   4.206 -0.3882 -0.0818 -0.1535
   72MOL    C7314415   2.814   2.157   4.123  0.1685 -0.0917  0.0511
   72MOL    C7414416   2.706   2.067   4.050 -0.4370  0.8460  0.5657
   72MOL    O7514417   2.716   1.944   4.065 -0.6132  0.0593  0.6205
   72MOL    N7614418   2.613   2.128   3.977  0.3323 -0.1977 -0.1141
   72MOL    H7714419   2.947   1.990   4.140  1.9819  1.6600 -0.9487
   72MOL    H7814420   2.996   2.129   4.232 -0.4969 -0.3094  0.7486
   72MOL    H7914421   2.757   2.225   4.187 -0.7046  0.6122 -1.4681
   72MOL    H8014422   2.637   2.220   3.942  1.5461 -0.4750 -0.0567
   72MOL    H8114423   2.542   2.077   3.928  0.2067  0.4448 -0.6073
   72MOL    C8214424   2.899   2.230   4.022 -0.3611  0.1543 -0.8096
   72MOL    C8314425   2.977   2.359   4.070  0.3953  0.3409 -0.4952
   72MOL    C8414426   2.884   2.452   4.132  0.4778 -0.6137 -0.0408
   72MOL    O8514427   2.779   2.485   4.078  0.0386 -0.2341  0.3612
   72MOL    N8614428   2.915   2.510   4.245 -1.7228 -0.3212 -0.2285
   72MOL    H8714429   2.835   2.257   3.938 -1.6255  0.3167  0.1786
   72MOL    H8814430   2.975   2.168   3.975  0.6838  2.4832 -2.2676
   72MOL    H8914431   3.060   2.329   4.134  0.3088 -0.6155 -0.8294
   72MOL    H9014432   2.998   2.483   4.297 -0.6618  2.1370 -0.5594
   72MOL    H9114433   2.844   2.560   4.296 -1.3046  0.1466 -0.1000
   72MOL    C9214434   3.045   2.431   3.950  0.1662 -0.1004  0.2635
   72MOL    C9314435   3.150   2.537   3.999  0.1040  0.0422 -0.2525
   72MOL    C9414436   3.113   2.680   3.945  0.3867 -0.0984  0.0461
   72MOL    O9514437   3.108   2.701   3.826 -0.1190  0.3193 -0.5150
   72MOL    N9614438   3.092   2.777   4.041 -0.1030 -0.3792  0.3908
   72MOL    H9714439   2.971   2.476   3.884  1.8701  2.1036 -0.1872
   72MOL    H9814440   3.086   2.348   3.892 -1.3181 -1.5847  1.3152
   72MOL    H9914441   3.156   2.541   4.108  1.8201 -1.4608 -0.2652
   72MOL   H10014442   3.105   2.771   4.141  2.0138  2.1967  0.2989
   72MOL   H10114443   3.051   2.862   4.006 -0.9656 -0.1476  1.9353
   72MOL   C10214444   3.288   2.494   3.960  0.1682  0.3840  0.1553
   72MOL   C10314445   3.405   2.551   4.047  0.2338 -0.0460 -0.1931
   72MOL   C10414446   3.456   2.678   3.986  0.1107  0.8075  0.0279
   72MOL   O10514447   3.539   2.677   3.895 -0.3047  0.4843  0.2601
   72MOL   N10614448   3.429   2.787   4.046  0.0161 -0.1578 -0.5100
   72MOL   H10714449   3.298   2.518   3.854 -1.1415  1.4525  0.2639
   72MOL   H10814450   3.294   2.385   3.958 -0.1354  0.3795 -0.8459
   72MOL   H10914451   3.371   2.575   4.148 -0.3066  0.6730 -0.5418
   72MOL   H11014452   3.450   2.869   3.991  0.4242 -1.0201 -1.6727
   72MOL   H11114453   3.374   2.797   4.130  1.1686 -0.6869  0.3304
   72MOL   C11214454   3.523   2.460   4.062 -0.1938  0.6430  0.2614
   72MOL   C11314455   3.514   2.354   4.182 -0.2316  1.0541 -0.2779
   72MOL   C11414456   3.498   2.405   4.331 -0.0920  0.1193  0.1816
   72MOL   O11514457   3.580   2.487   4.378  0.2393 -0.5170 -0.1373
   72MOL   N11614458   3.395   2.366   4.408 -0.1983  0.2210 -0.6057
   72MOL   H11714459   3.611   2.523   4.076 -1.4896  2.4146  0.6368
   72MOL   H11814460   3.549   2.411   3.968 -0.5995 -1.6585  1.3318
   72MOL   H11914461   3.419   2.306   4.157  1.5841 -2.2500 -1.0478
   72MOL   H12014462   3.321   2.312   4.367  2.5204 -3.3500 -1.0412
   72MOL   H12114463   3.410   2.373   4.508 -4.2286 -0.6932  0.1197
   72MOL   C12214464   3.626   2.245   4.169  0.4281 -0.2390 -0.6804
   72MOL   C12314465   3.770   2.284   4.205  1.0217 -0.3254 -0.1525
   72MOL   C12414466   3.848   2.359   4.098 -0.0867  0.2197  0.3743
   72MOL   O12514467   3.863   2.311   3.984  0.2744 -0.8213 -0.2767
   72MOL   N12614468   3.916   2.468   4.142  0.0703  0.6449 -0.0161
   72MOL   H12714469   3.624   2.205   4.067  1.0733 -0.2280 -0.6960
   72MOL   H12814470   3.587   2.163   4.229  1.0657 -0.8893 -1.1591
   72MOL   H12914471   3.761   2.347   4.294  0.3135  0.1261 -0.5422
   72MOL   H13014472   3.985   2.511   4.082  1.7510 -1.3269  0.4167
   72MOL   H13114473   3.898   2.502   4.235  0.2173 -0.0692  0.2778
   72MOL   C13214474   3.854   2.162   4.254  0.0385  0.0182 -0.1938
   72MOL   C13314475   3.893   2.154   4.412  0.3896  1.4580 -0.0950
   72MOL   C13414476   3.775   2.121   4.509 -0.4459  0.2070  0.0558
   72MOL   O13514477   3.692   2.206   4.544 -0.8275  0.2524  0.2685
   72MOL   N13614478   3.765   1.999   4.549 -0.3665  0.7578 -0.9826
   72MOL   H13714479   3.950   2.163   4.202 -1.6767  0.0053 -3.4957
   72MOL   H13814480   3.810   2.063   4.242  1.8092 -0.8009 -0.0960
   72MOL   H13914481   3.962   2.070   4.427  0.9731  1.4330 -2.7409
   72MOL   H14014482   3.822   1.930   4.501  0.5305 -0.9358  2.4023
   72MOL   H14114483   3.690   1.968   4.609  0.8215  0.1822  0.2285
   72MOL   C14214484   3.979   2.273   4.444  0.2269 -0.2024  0.2401
   72MOL   C14314485   4.060   2.260   4.578  0.9008 -0.3301  0.0093
   72MOL   C14414486   4.078   2.399   4.649 -0.5955 -0.4414 -0.7033
   72MOL   O14514487   4.134   2.484   4.586 -0.4027  0.1419  0.0209
   72MOL   N14614488   4.027   2.431   4.771 -0.1535 -0.0027 -0.3938
   72MOL   H14714489   3.908   2.355   4.457  0.1301 -0.3499  0.6732
   72MOL   H14814490   4.040   2.303   4.359 -3.4706  0.9628 -2.1227
   72MOL   H14914491   4.003   2.207   4.654 -0.5920  2.1276  0.6501
   72MOL   H15014492   4.045   2.525   4.800  2.6709 -0.4682 -0.4859
   72MOL   H15114493   3.993   2.358   4.832  0.9759 -1.8819 -1.9389
   72MOL   C15214494   4.194   2.191   4.547 -0.5471 -0.3365 -0.7831
   72MOL   C15314495   4.282   2.141   4.667 -0.4884  0.1901 -0.0589
   72MOL   C15414496   4.424   2.141   4.620 -0.2889  0.6572 -0.2767
   72MOL   O15514497   4.466   2.070   4.527  0.2018  0.1246  0.0755
   72MOL   N15614498   4.501   2.224   4.687 -0.3895 -0.0325 -0.1294
   72MOL   H15714499   4.249   2.266   4.491 -1.9719  1.9059  0.7125
   72MOL   H15814500   4.178   2.109   4.477  1.5357  1.3089 -3.2249
   72MOL   H15914501   4.272   2.219   4.742 -1.9150 -0.8523  0.8513
   72MOL   H16014502   4.467   2.281   4.764  3.0053 -0.3058  1.7026
   72MOL   H16114503   4.598   2.234   4.662 -0.1914 -1.8164 -0.1252
   72MOL   C16214504   4.239   2.017   4.745 -0.5777 -0.2282  0.0736
   72MOL   C16314505   4.285   2.006   4.896 -0.1170  0.2513  0.0735
   72MOL   C16414506   4.423   1.949   4.916 -0.7881 -0.0396  0.0982
   72MOL   O16514507   4.488   1.973   5.019  0.5342 -0.2268 -0.3997
   72MOL   N16614508   4.474   1.868   4.818  0.5578 -0.0386 -0.3389
   72MOL   H16714509   4.269   1.928   4.691  1.2048 -0.6976  1.7759
   72MOL   H16814510   4.130   2.018   4.739 -0.4758 -2.2230 -2.9723
   72MOL   H16914511   4.281   2.112   4.922  0.7218  0.7494 -1.7291
   72MOL   H17014512   4.574   1.856   4.805  0.6389  0.9298 -0.6896
   72MOL   H17114513   4.411   1.837   4.746  0.0856  1.9926 -0.8324
   72MOL   C17214514   4.175   1.938   4.983 -0.0031 -0.4927 -0.2447
   72MOL   C17314515   4.198   1.963   5.136 -0.3364 -0.5613  0.2161
   72MOL   C17414516   4.127   1.863   5.232  0.7006 -0.1397  1.0878
   72MOL   O17514517   4.005   1.870   5.245  0.0715 -0.2974 -0.5370
   72MOL   N17614518   4.192   1.771   5.297  0.1000  0.2658 -0.2481
   72MOL   H17714519   4.174   1.829   4.973  1.0344 -0.6644  1.2796
   72MOL   H17814520   4.075   1.972   4.959 -0.1687  0.0404  1.1610
   72MOL   H17914521   4.305   1.958   5.159 -0.1198 -0.3174 -0.7160
   72MOL   H18014522   4.137   1.699   5.343 -1.5568  2.1836  0.8568
   72MOL   H18114523   4.291   1.752   5.297 -0.1216 -1.2075 -3.2121
   72MOL   C18214524   4.172   2.117   5.162  0.4076 -0.0572 -0.2168
   72MOL   C18314525   4.132   2.168   5.305 -0.1695 -0.4945 -0.1221
   72MOL   C18414526   4.102   2.321   5.286  0.1684  0.2123 -0.1817
   72MOL   O18514527   4.186   2.395   5.237  0.2456 -0.1538 -0.3277
   72MOL   N18614528   3.986   2.371   5.322  0.0644 -1.0207  0.0389
   72MOL   H18714529   4.091   2.147   5.095 -0.0861  0.1367  0.4686
   72MOL   H18814530   4.263   2.167   5.128  0.7830 -1.6197 -1.5415
   72MOL   H18914531   4.040   2.114   5.325  1.0103 -1.6149  2.5471
   72MOL   H19014532   3.929   2.299   5.364  1.6532 -0.9627  2.3785
   72MOL   H19114533   3.962   2.468   5.324  0.5426 -0.8853 -0.4683
   72MOL   C19214534   4.235   2.137   5.409 -0.9021 -0.5372 -0.8683
   72MOL   C19314535   4.191   2.153   5.557  0.2734  0.1207  0.1326
   72MOL   C19414536   4.287   2.226   5.648  0.0594  0.8194 -0.1660
   72MOL   O19514537   4.407   2.218   5.636  0.1165  0.6225 -0.7022
   72MOL   N19614538   4.224   2.294   5.741  0.0811  0.1361  0.0606
   72MOL   H19714539   4.329   2.190   5.393 -0.0954 -1.4185  0.8071
   72MOL   H19814540   4.266   2.034   5.391  1.6061  0.2000 -0.9450
   72MOL   H19914541   4.093   2.200   5.549 -0.0591 -0.6581 -0.4517
   72MOL   H20014542   4.124   2.286   5.743 -0.0839  0.8981 -3.1468
   72MOL   H20114543   4.276   2.338   5.816 -1.5137 -0.2992  1.4444
   72MOL   H20214544   4.176   2.056   5.606  0.8217 -0.3488 -0.6218
   73MOL     C114545   6.493   2.744   1.216  0.1519  0.0993  0.1799
   73MOL     C214546   6.380   2.782   1.321  0.3045  0.4012 -1.2968
   73MOL     C314547   6.415   2.742   1.468 -0.0339  0.8249 -0.1472
   73MOL     O414548   6.449   2.627   1.504  0.6832 -0.1040 -0.9351
   73MOL     N514549   6.429   2.843   1.553 -0.3852 -0.2096 -0.0245
   73MOL     H614550   6.552   2.830   1.183  0.0846  0.0974  0.0543
   73MOL     H714551   6.566   2.670   1.250 -1.2569 -2.3974 -2.0552
   73MOL     H814552   6.359   2.888   1.305  1.5702  1.0695  1.1444
   73MOL     H914553   6.395   2.931   1.517 -2.2658 -1.1144 -0.5284
   73MOL    H1014554   6.471   2.831   1.644  0.0004  1.3126  0.0109
   73MOL    H1114555   6.456   2.700   1.124  0.1171  2.5987 -1.0382
   73MOL    C1214556   6.246   2.709   1.283  0.0075 -0.6903 -0.2640
   73MOL    C1314557   6.117   2.748   1.358  0.7125  0.2889  0.2413
   73MOL    C1414558   6.073   2.640   1.454  0.0388 -1.3235 -0.0960
   73MOL    O1514559   6.044   2.534   1.403 -0.0797 -0.1150  0.0955
   73MOL    N1614560   6.060   2.668   1.583 -0.6186 -0.0607  0.0444
   73MOL    H1714561   6.260   2.601   1.278  1.7604 -0.4655 -0.5790
   73MOL    H1814562   6.228   2.735   1.178 -2.3818 -0.9045  0.0698
   73MOL    H1914563   6.146   2.840   1.408  4.0822  0.0168 -1.0720
   73MOL    H2014564   6.080   2.761   1.617 -2.4963  0.5532 -0.4769
   73MOL    H2114565   6.046   2.591   1.646  3.0730  0.7023  1.9426
   73MOL    C2214566   6.005   2.791   1.252  0.1033  0.2546  0.0528
   73MOL    C2314567   5.875   2.869   1.312  0.9378 -0.4683  0.5281
   73MOL    C2414568   5.757   2.774   1.348 -0.0122  0.5116  0.8141
   73MOL    O2514569   5.658   2.761   1.280 -0.4617  0.5387 -0.0327
   73MOL    N2614570   5.766   2.707   1.461  0.3273  0.1464  0.2785
   73MOL    H2714571   5.971   2.714   1.183  2.2159 -0.2889 -0.4111
   73MOL    H2814572   6.055   2.865   1.189 -0.6918 -0.6582 -1.6841
   73MOL    H2914573   5.902   2.927   1.400  1.2964 -0.5235  0.4541
   73MOL    H3014574   5.845   2.702   1.524  0.5841  0.7421  0.0059
   73MOL    H3114575   5.698   2.634   1.478  0.8686 -0.3784  0.2146
   73MOL    C3214576   5.815   2.979   1.213  0.4954  0.2632 -0.6097
   73MOL    C3314577   5.918   3.092   1.165  0.0016 -0.4899  0.2453
   73MOL    C3414578   6.014   3.131   1.275 -0.1017 -0.1619  0.3017
   73MOL    O3514579   5.973   3.181   1.374  0.3393 -0.6056  0.1840
   73MOL    N3614580   6.140   3.119   1.242  0.4359 -0.0127  0.1469
   73MOL    H3714581   5.740   3.037   1.267  1.0435  0.7755 -0.3837
   73MOL    H3814582   5.764   2.941   1.125 -0.2498 -1.0169  0.3558
   73MOL    H3914583   5.971   3.045   1.082 -0.1759 -3.2672  1.6534
   73MOL    H4014584   6.178   3.092   1.152  1.5967 -0.3612  0.7387
   73MOL    H4114585   6.206   3.146   1.313  0.5572  1.0170 -0.3595
   73MOL    C4214586   5.839   3.213   1.111 -0.3199  0.1838  0.4046
   73MOL    C4314587   5.916   3.344   1.079 -0.3127  0.1445 -0.3142
   73MOL    C4414588   5.868   3.458   1.171  0.4172  0.1577  0.9399
   73MOL    O4514589   5.750   3.490   1.170  0.1374 -0.0175 -0.9433
   73MOL    N4614590   5.948   3.517   1.259 -0.2268 -0.3355  0.0495
   73MOL    H4714591   5.760   3.233   1.184  0.1742 -1.7118  1.4911
   73MOL    H4814592   5.778   3.167   1.033  3.0668  0.4521 -2.4910
   73MOL    H4914593   6.023   3.338   1.100  0.0781  1.2914 -1.8568
   73MOL    H5014594   5.911   3.585   1.324  0.1472 -0.5481  0.4905
   73MOL    H5114595   6.037   3.476   1.281  0.7619  2.4310  1.4017
   73MOL    C5214596   5.901   3.391   0.935  0.3625 -0.4303 -0.6929
   73MOL    C5314597   5.991   3.308   0.835  0.3718 -0.2116  0.3833
   73MOL    C5414598   6.137   3.347   0.839  0.6335  0.0146  0.6989
   73MOL    O5514599   6.180   3.463   0.825  0.1526  0.6815 -0.3380
   73MOL    N5614600   6.232   3.250   0.856 -0.0200  0.0331  0.5771
   73MOL    H5714601   5.919   3.498   0.919 -0.3300 -0.0844  0.7871
   73MOL    H5814602   5.798   3.372   0.905 -0.9330  6.4133 -1.3448
   73MOL    H5914603   5.983   3.202   0.856  1.3741 -0.5787 -1.0487
   73MOL    H6014604   6.328   3.280   0.852 -0.3621  1.0981  0.2663
   73MOL    H6114605   6.204   3.153   0.850 -1.3061  0.3743  0.9458
   73MOL    C6214606   5.957   3.343   0.687 -0.6206  0.2001  0.2034
   73MOL    C6314607   5.810   3.302   0.645  0.1381 -0.1247 -0.2963
   73MOL    C6414608   5.771   3.166   0.687 -0.4527  0.4813  0.2000
   73MOL    O6514609   5.825   3.066   0.633  0.4017 -0.1354 -0.1044
   73MOL    N6614610   5.668   3.160   0.768 -1.3480 -0.2641 -0.2227
   73MOL    H6714611   6.024   3.293   0.617 -0.8428 -0.0450  0.1659
   73MOL    H6814612   5.961   3.450   0.666 -2.7566  0.3157  0.3045
   73MOL    H6914613   5.742   3.372   0.694 -2.0397 -1.9406 -0.6139
   73MOL    H7014614   5.624   3.238   0.815 -0.9683  0.2058 -0.6437
   73MOL    H7114615   5.636   3.071   0.804 -1.5485 -0.4591 -0.8821
   73MOL    C7214616   5.791   3.315   0.494  0.1108  0.0439 -0.5185
   73MOL    C7314617   5.639   3.325   0.447  0.2521  0.5151  0.0163
   73MOL    C7414618   5.566   3.196   0.435  0.3509  0.7724 -0.3828
   73MOL    O7514619   5.600   3.121   0.345  0.1557  0.7192 -0.6596
   73MOL    N7614620   5.464   3.178   0.515  0.3109  0.4230  0.0027
   73MOL    H7714621   5.831   3.226   0.445 -2.6976 -0.8381 -1.2635
   73MOL    H7814622   5.850   3.396   0.450 -2.0052  0.9866 -1.7102
   73MOL    H7914623   5.587   3.391   0.517  0.5074 -0.0696  0.7650
   73MOL    H8014624   5.404   3.100   0.493  1.9482 -0.4049 -1.6900
   73MOL    H8114625   5.432   3.254   0.574  2.0759 -0.1595  1.7447
   73MOL    C8214626   5.643   3.402   0.313 -0.1273 -0.2191 -0.1829
   73MOL    C8314627   5.503   3.469   0.272 -0.3176  0.1577 -0.5849
   73MOL    C8414628   5.510   3.476   0.117 -0.3105  0.1882  0.4413
   73MOL    O8514629   5.609   3.508   0.053  0.6459  0.4191 -0.0578
   73MOL    N8614630   5.397   3.469   0.055  0.0729 -0.1894 -0.5153
   73MOL    H8714631   5.689   3.339   0.237 -2.3239 -0.0441 -1.7178
   73MOL    H8814632   5.714   3.484   0.320 -3.8008  3.0377  0.4835
   73MOL    H8914633   5.423   3.403   0.305 -0.2040  0.1555 -0.3080
   73MOL    H9014634   5.390   3.463   7.611  1.0387  3.7423 -0.9020
   73MOL    H9114635   5.314   3.470   0.112 -0.8208  0.2946 -1.8081
   73MOL    C9214636   5.495   3.606   0.336  0.2316  0.8005 -0.2972
   73MOL    C9314637   5.359   3.675   0.323 -0.0976 -0.0601  0.5148
   73MOL    C9414638   5.235   3.586   0.352 -0.3696  0.8498 -0.4734
   73MOL    O9514639   5.171   3.524   0.267  0.6516  0.6404 -0.2908
   73MOL    N9614640   5.204   3.567   0.479 -0.4317  0.2666 -0.1523
   73MOL    H9714641   5.572   3.677   0.307  0.0024  0.4043 -1.9165
   73MOL    H9814642   5.510   3.602   0.444  0.8665  0.9494 -0.3744
   73MOL    H9914643   5.365   3.747   0.404  0.0349  1.3500 -0.7295
   73MOL   H10014644   5.278   3.606   0.535  0.0507  1.0096 -1.2971
   73MOL   H10114645   5.142   3.499   0.520 -0.6716 -0.0904 -1.1004
   73MOL   C10214646   5.341   3.761   0.201 -0.5318  0.2223  0.4173
   73MOL   C10314647   5.285   3.905   0.221  0.5844 -0.2185  0.3908
   73MOL   C10414648   5.149   3.909   0.307  0.2121  0.1284  0.5297
   73MOL   O10514649   5.046   3.860   0.254  0.0715  0.0385  0.1106
   73MOL   N10614650   5.146   3.967   0.433 -0.0561 -0.3028 -0.8145
   73MOL   H10714651   5.288   3.709   0.121 -0.1047 -0.0185  0.2896
   73MOL   H10814652   5.440   3.778   0.158 -0.4314 -1.1536  0.0798
   73MOL   H10914653   5.356   3.953   0.288  1.1938  2.1398 -1.8759
   73MOL   H11014654   5.061   3.980   0.485  1.5692  0.5350  1.7197
   73MOL   H11114655   5.225   4.021   0.466  1.3753 -3.0969  0.5162
   73MOL   C11214656   5.274   3.988   0.085 -1.0286 -0.3151  0.3903
   73MOL   C11314657   5.331   4.134   0.077  0.8811  0.0960  0.3216
   73MOL   C11414658   5.280   4.231   0.195  0.5795 -0.2782 -0.3104
   73MOL   O11514659   5.160   4.242   0.220  0.4161  0.0252  0.3211
   73MOL   N11614660   5.375   4.294   0.257 -0.1159  0.3914  0.0556
   73MOL   H11714661   5.170   3.981   0.053 -1.0991  1.4754  0.2219
   73MOL   H11814662   5.325   3.931   0.008 -0.0795  0.8774  0.1331
   73MOL   H11914663   5.440   4.123   0.081  0.6873 -1.5395  1.2654
   73MOL   H12014664   5.342   4.370   0.314 -1.7991 -0.0680 -0.2892
   73MOL   H12114665   5.470   4.285   0.225  0.3384  2.0065  0.9002
   73MOL   C12214666   5.311   4.196   7.591  0.6612 -0.2627 -0.3216
   73MOL   C12314667   5.408   4.157   7.473  0.3258 -0.0161 -0.2711
   73MOL   C12414668   5.508   4.276   7.459 -0.6364 -0.2800  0.7975
   73MOL   O12514669   5.503   4.361   7.372  0.2715 -0.2553 -0.0329
   73MOL   N12614670   5.601   4.286   7.554  0.6010  0.4450  0.1068
   73MOL   H12714671   5.304   4.304   7.601 -1.1062 -0.2669 -1.3436
   73MOL   H12814672   5.210   4.160   7.572  0.4393  0.2614 -0.1379
   73MOL   H12914673   5.480   4.079   7.499  2.0649  1.1182 -1.5254
   73MOL   H13014674   5.676   4.351   7.535 -2.1121  3.0595 -2.0280
   73MOL   H13114675   5.618   4.222   7.630 -2.3249 -1.5927 -0.8931
   73MOL   C13214676   5.341   4.127   7.335 -0.1113 -0.3028 -0.2085
   73MOL   C13314677   5.362   3.990   7.259 -0.5852 -0.0659  0.3299
   73MOL   C13414678   5.287   3.879   7.344 -0.2429  0.3020  0.0111
   73MOL   O13514679   5.346   3.815   7.429  0.0277 -0.5880  0.2601
   73MOL   N13614680   5.156   3.855   7.327 -0.3520 -0.0791 -0.0853
   73MOL   H13714681   5.377   4.191   7.254  1.4218 -2.1685 -1.0406
   73MOL   H13814682   5.236   4.155   7.333 -0.2703 -0.5961  2.5315
   73MOL   H13914683   5.316   3.999   7.161  0.2705  0.3306 -0.0339
   73MOL   H14014684   5.099   3.893   7.253 -0.6529  2.5203  1.4109
   73MOL   H14114685   5.113   3.793   7.394 -0.1388 -0.5782 -0.4113
   73MOL   C14214686   5.511   3.957   7.234  0.3128  0.0322  0.8053
   73MOL   C14314687   5.573   4.048   7.120  0.0681 -0.8714 -0.7012
   73MOL   C14414688   5.519   4.007   6.985 -0.0604 -0.3087 -0.6073
   73MOL   O14514689   5.565   3.903   6.929 -0.5023  0.0638 -0.4076
   73MOL   N14614690   5.413   4.066   6.929  0.3101 -0.6354  0.5244
   73MOL   H14714691   5.525   3.852   7.209  2.5399  0.3272  0.6546
   73MOL   H14814692   5.567   3.978   7.325  1.9265 -1.8701  0.2702
   73MOL   H14914693   5.547   4.150   7.148 -0.6204 -0.8291 -1.4605
   73MOL   H15014694   5.374   4.010   6.855  0.3728  1.7170 -1.3682
   73MOL   H15114695   5.366   4.146   6.970  0.8676 -0.6831  1.2935
   73MOL   C15214696   5.729   4.043   7.124  0.4911 -0.4638 -0.4871
   73MOL   C15314697   5.815   4.133   7.033 -0.0890  0.3556  0.9203
   73MOL   C15414698   5.963   4.092   7.044  0.1560  0.2511  0.9590
   73MOL   O15514699   6.017   4.057   7.148 -0.0084  0.0683 -0.0566
   73MOL   N15614700   6.027   4.087   6.927  0.1079 -0.0623  0.3281
   73MOL   H15714701   5.759   3.938   7.130 -0.4988 -0.7543 -0.4442
   73MOL   H15814702   5.758   4.068   7.226  0.2781 -1.6702 -0.1189
   73MOL   H15914703   5.778   4.102   6.935  0.2683 -0.2932  0.9848
   73MOL   H16014704   6.115   4.039   6.928  1.1159  1.7084  3.5300
   73MOL   H16114705   5.987   4.136   6.848 -1.7605  0.2983  1.4720
   73MOL   C16214706   5.798   4.280   7.051  0.0659  0.0175  0.0141
   73MOL   C16314707   5.830   4.364   6.917 -0.7694  0.3682 -0.0244
   73MOL   C16414708   5.843   4.512   6.954 -0.8570  0.0852  0.0455
   73MOL   O16514709   5.815   4.556   7.069  0.2134 -0.1186 -0.1438
   73MOL   N16614710   5.898   4.597   6.865 -0.1832 -0.3052  0.6085
   73MOL   H16714711   5.871   4.321   7.121 -0.2111  2.7268 -1.2134
   73MOL   H16814712   5.701   4.305   7.092  0.1474 -1.2850  1.0382
   73MOL   H16914713   5.928   4.329   6.887 -0.1474  0.1404  2.1790
   73MOL   H17014714   5.912   4.559   6.772 -1.2011 -2.4685  1.3030
   73MOL   H17114715   5.911   4.692   6.896  0.2296 -0.7624  1.8633
   73MOL   C17214716   5.728   4.344   6.806  0.3349  0.2426  0.2611
   73MOL   C17314717   5.790   4.267   6.683 -0.1428  0.2537  0.7025
   73MOL   C17414718   5.867   4.365   6.588  0.4108  0.5807 -0.0439
   73MOL   O17514719   5.885   4.480   6.620 -0.1630 -0.3284  0.3829
   73MOL   N17614720   5.918   4.318   6.477 -0.3596 -0.1362  0.4532
   73MOL   H17714721   5.675   4.435   6.777 -2.3321 -1.4776 -0.3529
   73MOL   H17814722   5.648   4.281   6.844  0.1507 -0.6316 -1.5082
   73MOL   H17914723   5.858   4.185   6.703  1.9694  1.6954 -0.3540
   73MOL   H18014724   5.992   4.359   6.422 -0.5385 -0.3845  0.0197
   73MOL   H18114725   5.875   4.233   6.443  2.1205 -0.7571 -1.2713
   73MOL   C18214726   5.676   4.209   6.597 -0.1458 -0.6619  0.9132
   73MOL   C18314727   5.636   4.064   6.636  0.0211  0.6849  0.2457
   73MOL   C18414728   5.748   3.962   6.621 -0.5438  0.5811 -0.5816
   73MOL   O18514729   5.803   3.954   6.517 -0.0515  0.8802  0.1358
   73MOL   N18614730   5.771   3.870   6.719 -0.4295  0.0968 -0.3518
   73MOL   H18714731   5.703   4.197   6.492  0.3112 -1.4005  1.1144
   73MOL   H18814732   5.587   4.272   6.584 -0.3260 -1.0557  0.2008
   73MOL   H18914733   5.615   4.063   6.742 -2.0546 -1.0822 -0.1530
   73MOL   H19014734   5.697   3.867   6.788 -0.4463  0.9846 -0.3258
   73MOL   H19114735   5.846   3.804   6.708  1.1143  1.4073  1.8436
   73MOL   C19214736   5.510   4.008   6.573 -0.0405  0.5895  0.7124
   73MOL   C19314737   5.517   3.986   6.427 -0.4100  0.1290  0.1410
   73MOL   C19414738   5.385   3.996   6.352  0.8031 -0.0942  0.3243
   73MOL   O19514739   5.331   3.895   6.303  0.2496  0.1893  0.0815
   73MOL   N19614740   5.323   4.114   6.337 -0.8929  0.3051 -0.5288
   73MOL   H19714741   5.426   4.074   6.594  0.5418  1.2656  0.9399
   73MOL   H19814742   5.486   3.913   6.621  0.1858  0.7749  1.1972
   73MOL   H19914743   5.579   4.064   6.383  0.2700 -1.2462 -1.4221
   73MOL   H20014744   5.232   4.120   6.293 -1.4796  1.8462  0.8439
   73MOL   H20114745   5.380   4.196   6.349  0.4256 -0.6585  0.0239
   73MOL   H20214746   5.563   3.889   6.406 -1.5248  0.0327 -2.0370
   74MOL     C114747   7.512   6.713   5.759  0.2380  0.5357 -0.0053
   74MOL     C214748   7.571   6.840   5.826  0.9856  0.1468 -0.2493
   74MOL     C314749   0.023   6.798   5.927  0.0201 -0.0454 -0.1109
   74MOL     O414750   0.069   6.686   5.931 -0.0229  0.4505 -0.3047
   74MOL     N514751   0.069   6.891   6.013 -0.6329  0.1950 -0.2828
   74MOL     H614752   7.473   6.641   5.830  1.1260 -0.0951 -0.1376
   74MOL     H714753   7.429   6.744   5.695 -0.2366 -2.1216 -0.7708
   74MOL     H814754   7.627   6.889   5.746  0.9181  1.2205  0.3507
   74MOL     H914755   0.145   6.880   6.080  1.6478 -0.8783 -2.9485
   74MOL    H1014756   0.022   6.981   6.021  1.4907  1.3118  0.0838
   74MOL    H1114757   7.589   6.663   5.699  1.7871  0.5335  1.9310
   74MOL    C1214758   7.462   6.933   5.875  0.5802 -0.6889 -0.2848
   74MOL    C1314759   7.403   6.923   6.022  0.6933 -0.2360 -0.6319
   74MOL    C1414760   7.306   6.808   6.052  0.4552  0.4899 -0.0875
   74MOL    O1514761   7.204   6.799   5.988 -0.4273  0.6292  0.2790
   74MOL    N1614762   7.320   6.735   6.157 -0.0264 -0.2711 -1.1677
   74MOL    H1714763   7.381   6.916   5.804 -0.8610  0.4888  1.0369
   74MOL    H1814764   7.495   7.035   5.854 -1.1897  0.1360  0.7545
   74MOL    H1914765   7.482   6.907   6.095 -0.0685  0.4992  0.3641
   74MOL    H2014766   7.405   6.748   6.211 -0.5577 -2.1265  0.1473
   74MOL    H2114767   7.251   6.668   6.189  1.5413 -1.2787  0.1969
   74MOL    C2214768   7.340   7.069   6.059  0.1133  0.3600  0.1241
   74MOL    C2314769   7.424   7.165   6.139 -0.3298  0.5377 -0.3485
   74MOL    C2414770   7.544   7.207   6.062  0.3397 -0.2880 -0.2534
   74MOL    O2514771   7.650   7.142   6.079 -0.7633 -0.3710  0.1109
   74MOL    N2614772   7.533   7.299   5.968 -0.0710 -0.2599  0.0407
   74MOL    H2714773   7.253   7.055   6.124  1.5129 -4.3007  1.1687
   74MOL    H2814774   7.309   7.126   5.971 -0.7316  0.1625  0.2865
   74MOL    H2914775   7.359   7.252   6.150  0.7650  1.8151 -3.3496
   74MOL    H3014776   7.601   7.326   5.898  0.9499 -2.7800  0.0018
   74MOL    H3114777   7.441   7.334   5.945  0.6621  2.5421  1.1338
   74MOL    C3214778   7.454   7.122   6.281  0.5552 -0.8391 -0.4008
   74MOL    C3314779   7.499   7.238   6.377  0.0474  0.1254 -0.1949
   74MOL    C3414780   7.641   7.207   6.434  0.1590  0.1267 -0.2052
   74MOL    O3514781   0.009   7.099   6.483  0.4854  0.1370 -0.3078
   74MOL    N3614782   0.064   7.311   6.440  0.2122  0.0929 -0.5939
   74MOL    H3714783   7.525   7.040   6.267  0.6122 -0.0571 -5.3345
   74MOL    H3814784   7.363   7.069   6.312  0.4422 -1.2109 -1.3356
   74MOL    H3914785   7.489   7.328   6.317 -1.0489 -1.2013 -2.0301
   74MOL    H4014786   0.145   7.316   6.500 -0.1542 -0.9374  0.0029
   74MOL    H4114787   0.035   7.400   6.403  2.9927  0.9999 -0.6691
   74MOL    C4214788   7.392   7.248   6.488  0.0505  0.6869  0.4761
   74MOL    C4314789   7.420   7.354   6.606  0.1561  0.0722  0.2622
   74MOL    C4414790   7.327   7.319   6.722  0.2588  0.3504 -0.3689
   74MOL    O4514791   7.203   7.326   6.709 -0.7522 -0.0619  0.1688
   74MOL    N4614792   7.371   7.267   6.835 -0.3872  0.7815  0.4422
   74MOL    H4714793   7.380   7.152   6.537  4.0693  0.0854  0.4596
   74MOL    H4814794   7.296   7.267   6.440 -0.2621 -0.8847  0.4447
   74MOL    H4914795   7.517   7.327   6.648  0.3130  0.0338 -0.1222
   74MOL    H5014796   7.467   7.249   6.859 -0.3903  0.8942  0.5375
   74MOL    H5114797   7.315   7.221   6.906 -0.3759  1.4447  0.8785
   74MOL    C5214798   7.401   7.501   6.547 -0.4485 -0.4419  0.2595
   74MOL    C5314799   7.433   7.628   6.646  0.0543  0.0035 -0.4013
   74MOL    C5414800   7.339   0.091   6.615  0.7103 -0.4422 -0.2245
   74MOL    O5514801   7.339   0.145   6.506  0.2688  0.0551 -0.3679
   74MOL    N5614802   7.257   0.135   6.713 -0.2833 -0.2246 -0.6139
   74MOL    H5714803   7.294   7.519   6.536 -0.5084 -0.8448  0.1756
   74MOL    H5814804   7.440   7.518   6.447 -1.5874  0.5932 -0.0246
   74MOL    H5914805   7.397   7.621   6.749 -0.0835 -0.3575 -0.4770
   74MOL    H6014806   7.259   0.091   6.803  0.0984  0.0600 -0.4822
   74MOL    H6114807   7.190   0.209   6.694 -1.9263 -1.3159  0.7606
   74MOL    C6214808   7.581   0.012   6.640  0.2624  0.0475  0.1468
   74MOL    C6314809   0.017   7.646   6.764  0.1201  0.0155 -0.2189
   74MOL    C6414810   0.047   7.504   6.807  0.2119 -0.1561  0.2528
   74MOL    O6514811   0.100   7.434   6.728 -1.1591 -0.1253  0.0641
   74MOL    N6614812   0.001   7.465   6.919 -0.0293  0.0546 -0.0600
   74MOL    H6714813   7.584   0.121   6.629 -2.4785  0.4495  2.6222
   74MOL    H6814814   7.627   7.634   6.548 -0.1079 -0.1048  0.0197
   74MOL    H6914815   0.109   0.026   6.719  0.7781 -2.2120 -0.7998
   74MOL    H7014816   0.014   7.368   6.944  4.1734  0.5863  0.1021
   74MOL    H7114817   7.624   7.530   6.989 -1.7118 -0.5774 -0.2505
   74MOL    C7214818   7.638   0.085   6.885 -0.0642 -0.4901 -0.6229
   74MOL    C7314819   0.090   0.149   6.973  0.4471  0.2080  0.0962
   74MOL    C7414820   0.142   0.275   6.905 -0.6510 -0.7659 -0.5931
   74MOL    O7514821   0.221   0.266   6.808 -0.6757 -0.2086  1.2338
   74MOL    N7614822   0.089   0.391   6.945  0.2923 -0.5942 -0.6782
   74MOL    H7714823   7.570   0.032   6.951  0.4309 -2.2180 -1.4781
   74MOL    H7814824   7.569   0.163   6.853 -0.6988 -1.0425 -0.6197
   74MOL    H7914825   0.027   0.183   7.055 -2.7625  0.4262 -2.3596
   74MOL    H8014826   0.043   0.401   7.035  2.8135  0.2377  0.5690
   74MOL    H8114827   0.126   0.473   6.900 -0.4017  1.2259  1.9167
   74MOL    C8214828   0.190   0.042   7.032  0.2745 -0.0960 -0.2515
   74MOL    C8314829   0.277   0.085   7.156 -0.3195 -0.5272 -0.6963
   74MOL    C8414830   0.431   0.083   7.136  0.9950 -0.2083  0.2263
   74MOL    O8514831   0.491   7.639   7.097  1.0326  0.1004 -0.6201
   74MOL    N8614832   0.502   0.194   7.158 -0.0309 -0.6150 -0.2876
   74MOL    H8714833   0.259   0.016   6.953 -2.5412 -1.3169 -2.3728
   74MOL    H8814834   0.131   7.611   7.058 -0.3582 -0.0827 -1.6254
   74MOL    H8914835   0.255   0.185   7.194 -0.7742 -1.0002  0.2992
   74MOL    H9014836   0.448   0.277   7.179 -0.3622 -0.8883 -0.0492
   74MOL    H9114837   0.601   0.177   7.173 -0.3125 -2.2610 -0.2638
   74MOL    C9214838   0.233   0.004   7.281  0.5857 -0.2323  0.9639
   74MOL    C9314839   0.286   0.033   7.426  0.1141 -0.7081 -0.0252
   74MOL    C9414840   0.265   0.180   7.462 -0.0326  0.2359 -0.4796
   74MOL    O9514841   0.156   0.227   7.486  0.3142  0.4035 -0.0538
   74MOL    N9614842   0.374   0.262   7.484  0.4881  0.1029  0.2989
   74MOL    H9714843   0.240   7.554   7.260 -0.7761 -0.0465 -0.5781
   74MOL    H9814844   0.125   0.018   7.288  0.2904 -0.0997 -2.6373
   74MOL    H9914845   0.221   7.631   7.489 -1.8462  0.8180 -0.5815
   74MOL   H10014846   0.464   0.221   7.462  0.6891  1.8519 -2.4023
   74MOL   H10114847   0.356   0.358   7.513 -2.3885  0.5667 -2.7444
   74MOL   C10214848   0.433   7.641   7.450  0.0770  0.9070  0.1363
   74MOL   C10314849   0.452   7.487   7.421 -0.2713 -0.3382 -0.5623
   74MOL   C10414850   0.365   7.407   7.518  0.3724 -0.2475  0.0037
   74MOL   O10514851   0.386   7.418   7.634 -0.2595 -0.0635  0.3478
   74MOL   N10614852   0.265   7.338   7.472  0.0609  0.1246  0.5067
   74MOL   H10714853   0.464   0.006   7.552 -1.0695 -0.7758  0.8644
   74MOL   H10814854   0.499   0.045   7.387  0.8261 -1.0268 -0.9989
   74MOL   H10914855   0.410   7.458   7.325 -1.5759 -0.6259  0.0947
   74MOL   H11014856   0.264   7.335   7.371 -2.8364 -1.4161  0.5292
   74MOL   H11114857   0.186   7.303   7.524 -2.5750  1.2321 -2.5873
   74MOL   C11214858   0.599   7.458   7.428 -0.3675 -0.7925  0.3450
   74MOL   C11314859   0.637   7.309   7.423 -0.4450  0.7901  0.5326
   74MOL   C11414860   0.770   7.283   7.497  0.2139 -0.7352 -0.8856
   74MOL   O11514861   0.868   7.356   7.488  0.3918 -0.0432  0.1127
   74MOL   N11614862   0.779   7.173   7.572  0.3740  0.0023 -0.3316
   74MOL   H11714863   0.642   7.520   7.507  1.3810 -1.1627 -0.3029
   74MOL   H11814864   0.655   7.497   7.343  0.3301 -1.0862  0.6667
   74MOL   H11914865   0.563   7.248   7.476  0.1335  1.8324  2.6096
   74MOL   H12014866   0.698   7.113   7.582  0.6546 -0.6222 -1.6433
   74MOL   H12114867   0.860   7.159   7.630  1.2119  0.2065 -1.4251
   74MOL   C12214868   0.650   7.262   7.275 -0.1264  0.1741 -0.7351
   74MOL   C12314869   0.680   7.109   7.256 -0.8452 -0.0594  0.1820
   74MOL   C12414870   0.731   7.069   7.116 -0.0464  0.1695  0.3848
   74MOL   O12514871   0.721   7.150   7.023 -0.0360  0.3096  0.3794
   74MOL   N12614872   0.773   6.944   7.087  0.0275 -0.0341 -0.0242
   74MOL   H12714873   0.724   7.321   7.220  1.8155 -2.1021 -0.6494
   74MOL   H12814874   0.551   7.285   7.235  0.0027  1.6570 -0.2295
   74MOL   H12914875   0.770   7.088   7.313 -1.6391 -0.2203  1.3788
   74MOL   H13014876   0.770   6.877   7.163  2.9341  1.1154  1.1500
   74MOL   H13114877   0.806   6.918   6.995  0.4290 -1.8578  0.6244
   74MOL   C13214878   0.576   7.013   7.312 -0.0714 -0.1921  0.2114
   74MOL   C13314879   0.427   7.031   7.264  0.1103 -0.6449 -0.4985
   74MOL   C13414880   0.319   6.968   7.360 -0.3695 -0.7496  0.5635
   74MOL   O13514881   0.227   7.039   7.401 -0.0746  0.0666 -0.2082
   74MOL   N13614882   0.333   6.840   7.384 -0.0461  0.0443 -0.1752
   74MOL   H13714883   0.589   7.012   7.420  1.1220 -1.5480  0.0690
   74MOL   H13814884   0.611   6.912   7.287  0.8925 -0.3355  2.1182
   74MOL   H13914885   0.411   7.138   7.277  0.3142 -0.6858  0.0987
   74MOL   H14014886   0.409   6.790   7.340  0.0475 -0.5774  0.6709
   74MOL   H14114887   0.257   6.791   7.430 -0.4548  0.0556 -0.8351
   74MOL   C14214888   0.407   7.016   7.111  0.1152  0.6412 -0.4368
   74MOL   C14314889   0.283   7.084   7.043  0.9012  0.6274 -0.3804
   74MOL   C14414890   0.274   7.238   7.080 -0.7803 -0.8153  0.6932
   74MOL   O14514891   0.223   7.277   7.188 -0.0444 -0.4820  0.2634
   74MOL   N14614892   0.306   7.325   6.987 -0.0640  0.3315  0.3221
   74MOL   H14714893   0.427   6.914   7.078 -0.8499  0.2073  0.3053
   74MOL   H14814894   0.491   7.073   7.069  1.5964  0.0610  1.6453
   74MOL   H14914895   0.288   7.076   6.934 -0.7392 -0.2828 -0.3938
   74MOL   H15014896   0.281   7.421   7.004 -1.1759 -0.0714  0.9835
   74MOL   H15114897   0.327   7.280   6.898  2.5479 -0.8948  1.4997
   74MOL   C15214898   0.154   7.004   7.072 -0.3318 -0.4579  0.0629
   74MOL   C15314899   0.060   6.987   6.950  0.2213  0.0284  0.2834
   74MOL   C15414900   0.022   7.124   6.897 -0.2359  0.5802  0.2094
   74MOL   O15514901   7.616   7.203   6.969  0.4142  0.3548  0.0471
   74MOL   N15614902   0.065   7.163   6.776 -0.0658 -0.6060 -0.6823
   74MOL   H15714903   0.093   7.058   7.146 -1.3303 -1.7359  0.1884
   74MOL   H15814904   0.174   6.912   7.127 -1.4577 -1.6874 -1.5589
   74MOL   H15914905   0.117   6.926   6.881  0.4533 -0.8901  1.2763
   74MOL   H16014906   0.061   7.261   6.752 -0.3746 -0.7663 -1.2834
   74MOL   H16114907   0.123   7.097   6.726  2.6352  0.6842  0.6326
   74MOL   C16214908   7.588   6.908   6.991  0.0832 -0.0585  0.6026
   74MOL   C16314909   7.490   6.868   6.869  0.2444 -0.2415 -0.4434
   74MOL   C16414910   7.344   6.877   6.916  0.7430  0.3626  0.3879
   74MOL   O16514911   7.304   6.807   7.005 -0.3230  0.1879 -0.0407
   74MOL   N16614912   7.262   6.962   6.851 -0.5912  0.6778 -0.7286
   74MOL   H16714913   7.540   6.950   7.079  1.3019  0.1716  1.1747
   74MOL   H16814914   7.616   6.815   7.039  0.4601 -0.0120  0.4763
   74MOL   H16914915   7.497   6.947   6.794 -0.7020  0.3537  0.0783
   74MOL   H17014916   7.170   6.985   6.886  0.1438 -1.3316  2.7753
   74MOL   H17114917   7.294   7.015   6.771  2.0992  1.2445  0.6704
   74MOL   C17214918   7.526   6.732   6.806  0.0766  0.5176  0.2166
   74MOL   C17314919   7.517   6.725   6.652  0.3034  0.2285 -0.7960
   74MOL   C17414920   7.368   6.718   6.606 -0.4445 -0.0194 -0.2807
   74MOL   O17514921   7.285   6.651   6.666 -0.4132  0.1463  0.4964
   74MOL   N17614922   7.339   6.787   6.500 -0.2433  0.0755  0.9971
   74MOL   H17714923   7.462   6.652   6.845 -1.2545  1.4125 -0.1133
   74MOL   H17814924   7.628   6.705   6.834 -0.2218 -2.0299 -0.9476
   74MOL   H17914925   7.556   6.821   6.618  0.5360  0.9679  1.4833
   74MOL   H18014926   7.413   6.830   6.447 -0.0150  0.1030  1.3396
   74MOL   H18114927   7.250   6.782   6.452 -0.0976 -1.0944  0.8436
   74MOL   C18214928   7.600   6.604   6.594  0.6022 -0.2606 -0.3732
   74MOL   C18314929   7.637   6.620   6.446  0.5554 -0.0157  0.4293
   74MOL   C18414930   7.647   6.762   6.390  0.5030 -0.1129  0.2016
   74MOL   O18514931   7.546   6.824   6.349  0.2711 -0.5665  0.6639
   74MOL   N18614932   0.105   6.822   6.395  0.1677 -0.0923 -0.0325
   74MOL   H18714933   7.548   6.509   6.602 -0.1902 -0.0825 -3.0494
   74MOL   H18814934   0.028   6.600   6.663 -1.0723  1.7515  1.9055
   74MOL   H18914935   0.083   6.585   6.442  0.7987  0.5175  1.5879
   74MOL   H19014936   0.092   6.920   6.376 -2.0440 -0.6869 -1.7084
   74MOL   H19114937   0.180   6.785   6.453 -1.4591 -3.2595  0.1179
   74MOL   C19214938   7.559   6.518   6.344  0.4994  0.4882 -0.0108
   74MOL   C19314939   7.615   6.525   6.197 -0.6595  1.1150  0.0308
   74MOL   C19414940   7.571   6.415   6.108 -0.2779 -0.1488  0.4837
   74MOL   O19514941   7.487   6.335   6.142 -0.1617  0.0165  0.4578
   74MOL   N19614942   7.617   6.422   5.988  0.3135 -0.2055  0.2611
   74MOL   H19714943   7.451   6.531   6.347  0.5291  0.5207  1.5182
   74MOL   H19814944   7.574   6.414   6.376 -1.1083 -0.0805 -1.0532
   74MOL   H19914945   7.597   6.616   6.140 -1.9944 -0.8231 -2.7408
   74MOL   H20014946   7.595   6.360   5.911 -0.1534  1.9760 -1.4019
   74MOL   H20114947   0.020   6.498   5.958 -0.0040  0.6616  1.7655
   74MOL   H20214948   0.066   6.527   6.208 -0.5554 -1.3007 -0.3311
   75MOL     C114949   0.435   2.546   5.695  0.1334  0.0073  0.3654
   75MOL     C214950   0.543   2.530   5.810  0.1162  0.3885  0.1536
   75MOL     C314951   0.560   2.667   5.879  0.2541  0.2196 -0.3690
   75MOL     O414952   0.563   2.773   5.817 -0.2624 -0.2311  0.1468
   75MOL     N514953   0.566   2.659   6.013 -0.2239  0.1698 -0.0982
   75MOL     H614954   0.345   2.595   5.733 -0.8679 -2.0309  0.6760
   75MOL     H714955   0.477   2.590   5.604 -2.0869 -0.2859 -0.8368
   75MOL     H814956   0.501   2.457   5.880 -0.4376  1.7321  1.2451
   75MOL     H914957   0.573   2.565   6.050  1.4222  0.1420 -0.4361
   75MOL    H1014958   0.583   2.738   6.073 -1.4928  0.1669  0.2834
   75MOL    H1114959   0.392   2.447   5.678  1.1011 -0.5280  1.0240
   75MOL    C1214960   0.667   2.469   5.747  0.1023 -0.3931  0.5569
   75MOL    C1314961   0.784   2.407   5.833  0.7806  0.1223 -0.3532
   75MOL    C1414962   0.734   2.306   5.943  0.0449 -0.4222  0.0190
   75MOL    O1514963   0.665   2.346   6.034 -0.3174 -0.0203 -0.5461
   75MOL    N1614964   0.765   2.181   5.923 -0.6725 -0.0044  0.2894
   75MOL    H1714965   0.718   2.528   5.671  0.2030 -2.4840 -1.0377
   75MOL    H1814966   0.627   2.385   5.690 -0.1662  0.6671 -0.8346
   75MOL    H1914967   0.851   2.345   5.773 -0.3460 -0.5314 -0.9548
   75MOL    H2014968   0.729   2.120   5.995  1.5277  2.5865  3.7620
   75MOL    H2114969   0.821   2.147   5.846  0.7526  1.5717  0.6176
   75MOL    C2214970   0.882   2.513   5.893 -0.9422 -0.2092 -0.5533
   75MOL    C2314971   0.981   2.570   5.794  0.4018  0.1621  0.4939
   75MOL    C2414972   1.090   2.469   5.764 -0.0534  0.0112 -0.0201
   75MOL    O2514973   1.150   2.415   5.852 -1.0727 -0.2358 -0.4460
   75MOL    N2614974   1.114   2.441   5.634 -0.1946 -0.8508  0.1143
   75MOL    H2714975   0.950   2.470   5.966 -0.3278  1.7058  0.0505
   75MOL    H2814976   0.820   2.584   5.948 -1.8595  0.5750 -2.5613
   75MOL    H2914977   0.934   2.593   5.698  0.7198 -0.4215  0.1987
   75MOL    H3014978   1.074   2.498   5.561  1.2577 -2.1886 -1.7551
   75MOL    H3114979   1.173   2.366   5.601  0.3301  0.0918 -1.1262
   75MOL    C3214980   1.057   2.701   5.846  0.4548 -0.4999  0.6791
   75MOL    C3314981   0.977   2.822   5.802 -0.7527  1.0719  0.3193
   75MOL    C3414982   1.039   2.895   5.680  1.2505  0.5663  0.1034
   75MOL    O3514983   0.986   2.878   5.570 -0.3914 -0.1269 -0.0450
   75MOL    N3614984   1.145   2.971   5.700  0.6233  0.0898 -0.1779
   75MOL    H3714985   1.157   2.708   5.805 -0.1205  0.4826 -0.5980
   75MOL    H3814986   1.063   2.687   5.954  0.3513  0.9096  0.8779
   75MOL    H3914987   0.876   2.789   5.780  0.5054 -0.6719 -3.4839
   75MOL    H4014988   1.195   3.026   5.632  2.1723  0.3068  1.1203
   75MOL    H4114989   1.194   2.956   5.787  1.6958 -0.1266 -0.8053
   75MOL    C4214990   0.948   2.908   5.923  0.2380 -0.1273  0.7313
   75MOL    C4314991   0.811   2.979   5.930 -0.1992  0.4133 -0.5499
   75MOL    C4414992   0.786   3.059   5.806  0.1850  0.3703 -0.1825
   75MOL    O4514993   0.869   3.145   5.769 -0.0520 -0.8639 -0.6274
   75MOL    N4614994   0.671   3.028   5.751 -0.0428  0.1757 -0.2612
   75MOL    H4714995   1.025   2.981   5.947  1.7932 -1.0579 -1.2402
   75MOL    H4814996   0.942   2.841   6.009 -0.9970 -1.6237 -0.4809
   75MOL    H4914997   0.738   2.898   5.932 -0.1604  0.3888  3.3516
   75MOL    H5014998   0.641   3.077   5.668  3.2019  0.2169 -1.4832
   75MOL    H5114999   0.614   2.957   5.794  0.3794 -0.0242 -0.0234
   75MOL    C5215000   0.794   3.058   6.060  0.5109  0.4506  0.1565
   75MOL    C5315001   0.739   2.971   6.174 -0.3673 -0.4053  0.2214
   75MOL    C5415002   0.586   2.984   6.192  0.0246 -0.1332 -0.8713
   75MOL    O5515003   0.521   3.076   6.138  0.3815  0.2887 -0.1994
   75MOL    N5615004   0.518   2.887   6.265 -0.5029  0.1802  0.3875
   75MOL    H5715005   0.731   3.145   6.043 -0.0818 -0.2179 -1.1018
   75MOL    H5815006   0.888   3.100   6.097  0.1577  1.4494 -0.0768
   75MOL    H5915007   0.770   2.870   6.149  2.0104  0.0342  1.2464
   75MOL    H6015008   0.568   2.809   6.306  0.0916  1.0457  1.3704
   75MOL    H6115009   0.417   2.889   6.270 -0.5092 -0.5695  0.6053
   75MOL    C6215010   0.825   2.975   6.307  0.5351 -0.1005  0.0235
   75MOL    C6315011   0.849   3.120   6.371  0.2629  0.6425 -0.8541
   75MOL    C6415012   0.976   3.120   6.459  0.1617 -0.9326 -0.3235
   75MOL    O6515013   0.977   3.060   6.567  0.3254  0.4872  0.3390
   75MOL    N6615014   1.068   3.207   6.432 -0.2524  0.3287  0.3954
   75MOL    H6715015   0.918   2.921   6.291 -1.8919 -3.9873 -1.9335
   75MOL    H6815016   0.774   2.917   6.384 -1.5901  1.5944 -0.0646
   75MOL    H6915017   0.847   3.198   6.295 -1.1616  0.4980 -0.9856
   75MOL    H7015018   1.148   3.233   6.488 -0.3149  1.0064  0.1675
   75MOL    H7115019   1.054   3.260   6.348 -1.0424  0.1720  0.4297
   75MOL    C7215020   0.727   3.165   6.457  0.1958  0.2370  0.0704
   75MOL    C7315021   0.716   3.324   6.494  0.1573 -0.0937  0.2881
   75MOL    C7415022   0.788   3.360   6.625  0.2275 -0.0564  0.3602
   75MOL    O7515023   0.743   3.322   6.729  0.6204  0.3034  0.3980
   75MOL    N7615024   0.890   3.443   6.613  0.6080 -0.2988 -0.1359
   75MOL    H7715025   0.730   3.101   6.545  0.5919  0.4447  0.2068
   75MOL    H7815026   0.635   3.141   6.403 -0.2520 -0.7909  1.2708
   75MOL    H7915027   0.772   3.379   6.419  0.8153 -0.9586  0.1347
   75MOL    H8015028   0.935   3.470   6.699  0.3077 -0.1210 -0.0380
   75MOL    H8115029   0.942   3.452   6.527 -0.4224  0.9571 -0.6416
   75MOL    C8215030   0.570   3.380   6.496 -0.1610 -0.0887  0.7845
   75MOL    C8315031   0.565   3.530   6.531 -1.0661 -0.5187 -0.2758
   75MOL    C8415032   0.423   3.559   6.572  0.4510 -1.0192  0.6058
   75MOL    O8515033   0.326   3.519   6.517  0.0861  0.3061 -0.5033
   75MOL    N8615034   0.410   3.658   6.657 -0.5097  0.5083  0.4334
   75MOL    H8715035   0.516   3.321   6.569  0.4902 -1.4763  0.1855
   75MOL    H8815036   0.534   3.363   6.394 -0.8713  1.7876  0.7063
   75MOL    H8915037   0.623   3.550   6.621  0.9800  0.6881 -1.8501
   75MOL    H9015038   0.329   3.665   6.717 -0.4278  1.4165  0.4397
   75MOL    H9115039   0.494   3.709   6.680 -0.9021  1.5080 -0.3404
   75MOL    C9215040   0.615   3.615   6.412  0.0153 -0.3103  0.6111
   75MOL    C9315041   0.631   3.764   6.438 -0.2643  0.2870  0.7352
   75MOL    C9415042   0.716   3.804   6.563  0.4411 -0.6443  0.2647
   75MOL    O9515043   0.664   3.828   6.673 -0.1256 -0.0154 -0.5523
   75MOL    N9615044   0.847   3.795   6.549 -0.5744 -0.1430 -0.4416
   75MOL    H9715045   0.557   3.607   6.320  0.1943  1.0611  0.3678
   75MOL    H9815046   0.717   3.582   6.393  0.7113  2.4178 -0.6240
   75MOL    H9915047   0.694   3.795   6.355 -0.4984 -1.2977 -0.0439
   75MOL   H10015048   0.892   3.757   6.467  1.6627 -0.7432  1.0325
   75MOL   H10115049   0.904   3.810   6.631 -1.9159 -0.5487  0.6011
   75MOL   C10215050   0.499   3.852   6.420  0.6523 -0.3465  0.0786
   75MOL   C10315051   0.406   3.822   6.293 -0.4138 -0.2201 -0.2425
   75MOL   C10415052   0.475   3.818   6.152 -0.5229 -0.2384 -0.2336
   75MOL   O10515053   0.582   3.872   6.135  0.1646 -0.4981  0.4759
   75MOL   N10615054   0.423   3.742   6.058 -0.1887  0.0842  0.0101
   75MOL   H10715055   0.528   3.956   6.404 -0.6154  0.2858  1.7262
   75MOL   H10815056   0.429   3.848   6.503 -0.2145 -1.2070 -0.6794
   75MOL   H10915057   0.378   3.719   6.317  0.1456 -0.1358  0.7982
   75MOL   H11015058   0.472   3.739   5.970  1.0385 -0.6398  0.7078
   75MOL   H11115059   0.337   3.693   6.075  0.6579 -1.7197 -0.7866
   75MOL   C11215060   0.273   3.902   6.289 -0.4009 -0.0240 -0.1820
   75MOL   C11315061   0.155   3.809   6.331 -0.3313  0.5458  0.8590
   75MOL   C11415062   0.121   3.700   6.223  0.7822  0.6515 -0.5328
   75MOL   O11515063   0.074   3.733   6.116 -0.2655 -0.3097  0.0038
   75MOL   N11615064   0.148   3.573   6.259 -0.1236  0.4872  0.8456
   75MOL   H11715065   0.251   3.946   6.192  2.1261  0.6762 -0.4916
   75MOL   H11815066   0.286   3.978   6.366 -2.4103  0.0799  0.0725
   75MOL   H11915067   0.194   3.757   6.418  1.5660 -0.5286 -0.5887
   75MOL   H12015068   0.137   3.503   6.187  0.9671 -0.7955  1.9068
   75MOL   H12115069   0.201   3.550   6.342 -0.0630  0.7599  0.8843
   75MOL   C12215070   0.036   3.891   6.373  0.2722  0.6109 -0.3171
   75MOL   C12315071   0.043   3.959   6.515 -0.2664 -0.3005 -0.2242
   75MOL   C12415072   0.054   3.854   6.633  0.1678 -0.3354  0.0174
   75MOL   O12515073   7.644   3.751   6.639  0.3452  0.4345 -0.1908
   75MOL   N12615074   0.151   3.867   6.725  0.3683  0.1668  0.7588
   75MOL   H12715075   7.594   3.846   6.368 -0.8885  3.1230 -0.5661
   75MOL   H12815076   0.033   3.972   6.300  2.4037  0.4140 -0.6714
   75MOL   H12915077   0.134   4.019   6.522  0.3046 -1.2288  0.3522
   75MOL   H13015078   0.169   3.789   6.787  0.1879 -0.6951 -0.2742
   75MOL   H13115079   0.183   3.961   6.745  0.8150 -0.0372  1.0228
   75MOL   C13215080   7.581   4.059   6.549 -0.5851  0.4615  0.5847
   75MOL   C13315081   7.603   4.192   6.473  0.4903  0.1348  0.3704
   75MOL   C13415082   0.067   4.272   6.532  0.1960 -0.3113  0.0536
   75MOL   O13515083   0.105   4.247   6.649 -0.4295  0.2007 -0.0748
   75MOL   N13615084   0.134   4.360   6.457 -0.2960 -0.3428  0.0614
   75MOL   H13715085   7.581   4.078   6.657 -3.1810  0.1889  0.6696
   75MOL   H13815086   7.489   4.004   6.529 -1.0373  1.3214  0.2640
   75MOL   H13915087   7.604   4.188   6.364  0.1312 -1.0983  0.4088
   75MOL   H14015088   0.224   4.399   6.478  0.1081  0.2632 -2.5620
   75MOL   H14115089   0.108   4.368   6.360  1.2052 -1.4503 -0.4544
   75MOL   C14215090   7.479   4.274   6.503 -0.2425  0.0032 -0.7963
   75MOL   C14315091   7.366   4.278   6.394 -0.4844  0.4058 -0.3663
   75MOL   C14415092   7.314   4.416   6.376 -0.1749  0.3716  0.7302
   75MOL   O14515093   7.251   4.475   6.469  0.2285 -0.2824  0.3382
   75MOL   N14615094   7.349   4.484   6.265 -0.2739 -0.6505  0.3412
   75MOL   H14715095   7.511   4.378   6.503 -0.4000  0.0538  0.6578
   75MOL   H14815096   7.448   4.258   6.606  0.4409 -0.9168 -0.7291
   75MOL   H14915097   7.411   4.257   6.297  1.1184  1.4571  0.1381
   75MOL   H15015098   7.382   4.446   6.177  0.6756  0.5077  0.1951
   75MOL   H15115099   7.325   4.581   6.255  1.2302 -0.3305 -0.2273
   75MOL   C15215100   7.264   4.167   6.434  0.1380 -0.3924 -0.4487
   75MOL   C15315101   7.129   4.163   6.361 -0.3866 -0.7017 -0.0582
   75MOL   C15415102   7.019   4.235   6.435 -0.1069 -0.6398  0.0534
   75MOL   O15515103   6.967   4.177   6.529 -0.4164  0.2412 -0.1800
   75MOL   N15615104   6.957   4.345   6.393 -0.0985 -0.3999  0.2026
   75MOL   H15715105   7.246   4.175   6.542  1.5139  0.7809 -0.2822
   75MOL   H15815106   7.318   4.074   6.414 -0.6570 -1.2308  1.1962
   75MOL   H15915107   7.150   4.214   6.267  2.9995 -0.2492  0.8493
   75MOL   H16015108   6.987   4.399   6.313 -4.5382  2.6754  0.4328
   75MOL   H16115109   6.878   4.380   6.446 -1.0714 -3.3732  0.7784
   75MOL   C16215110   7.081   4.017   6.342 -0.3763 -0.1396 -0.0506
   75MOL   C16315111   7.162   3.941   6.231  0.3506  0.3764 -0.4445
   75MOL   C16415112   7.114   3.983   6.089  0.3225 -0.0058 -0.0833
   75MOL   O16515113   7.004   4.025   6.069 -0.4559  0.4167  0.4463
   75MOL   N16615114   7.198   3.968   5.987  0.0259 -0.3839  0.3086
   75MOL   H16715115   6.975   4.018   6.314 -0.9137  1.4910  1.9157
   75MOL   H16815116   7.075   3.953   6.429  2.9782 -0.6418 -0.1274
   75MOL   H16915117   7.268   3.964   6.242  0.0125  0.8913  2.0471
   75MOL   H17015118   7.167   3.980   5.892 -1.4872  0.4471  0.8849
   75MOL   H17115119   7.296   3.947   6.002  0.3454  2.1620  2.1553
   75MOL   C17215120   7.141   3.787   6.252 -0.3803  0.2640 -0.1931
   75MOL   C17315121   7.237   3.715   6.354  0.5807  0.1557 -0.1563
   75MOL   C17415122   7.364   3.659   6.280 -0.4952  0.2110 -0.1560
   75MOL   O17515123   7.408   3.546   6.315  0.1923 -0.2866  0.4783
   75MOL   N17615124   7.436   3.744   6.197  0.5214  0.6606  0.1811
   75MOL   H17715125   7.152   3.737   6.156 -0.9374 -0.3918  0.0783
   75MOL   H17815126   7.035   3.775   6.276 -0.7088  1.3465 -1.0704
   75MOL   H17915127   7.276   3.792   6.421  0.0882 -1.2377  1.7858
   75MOL   H18015128   7.526   3.706   6.172 -0.1104 -1.9831  1.6980
   75MOL   H18115129   7.409   3.837   6.167  1.9392  0.7298 -0.9543
   75MOL   C18215130   7.173   3.614   6.454  0.0640  0.3780  0.3576
   75MOL   C18315131   7.162   3.647   6.602 -0.5057 -0.6654  1.3967
   75MOL   C18415132   7.305   3.646   6.660  0.6133 -0.6033  0.2057
   75MOL   O18515133   7.362   3.539   6.689 -0.7580  0.2822  0.5770
   75MOL   N18615134   7.357   3.757   6.712  0.4276 -0.0150 -0.9215
   75MOL   H18715135   7.218   3.515   6.450  0.5577  0.5641  1.1068
   75MOL   H18815136   7.070   3.597   6.422 -0.1500  2.3206 -0.0520
   75MOL   H18915137   7.127   3.749   6.620  1.0577  0.3407 -1.0507
   75MOL   H19015138   7.452   3.742   6.741 -0.4599 -1.9748  1.1127
   75MOL   H19115139   7.317   3.850   6.722  0.0805 -0.3591  1.1039
   75MOL   C19215140   7.077   3.551   6.676  0.2323  0.0022 -0.1767
   75MOL   C19315141   7.073   3.566   6.824  0.9009  0.3193  0.0946
   75MOL   C19415142   7.023   3.703   6.874 -0.5281  0.2305  0.5542
   75MOL   O19515143   6.908   3.742   6.857 -0.0918 -0.2528  0.3746
   75MOL   N19615144   7.111   3.778   6.939 -0.2298  0.2439  0.0736
   75MOL   H19715145   7.109   3.449   6.651 -0.2401 -0.6144  1.6833
   75MOL   H19815146   6.976   3.553   6.636  1.3539 -1.8194 -3.3485
   75MOL   H19915147   6.997   3.494   6.854 -0.3899  1.0608 -1.3099
   75MOL   H20015148   7.090   3.870   6.977 -2.4672  0.4627 -1.5976
   75MOL   H20115149   7.207   3.746   6.939 -0.0008  0.9008 -0.1662
   75MOL   H20215150   7.168   3.538   6.868  1.3423  1.3127 -0.1920
   76MOL     C115151   7.212   1.660   0.281  0.6306 -0.3460 -0.7312
   76MOL     C215152   7.267   1.712   0.419  0.0874  0.1736  0.2847
   76MOL     C315153   7.378   1.613   0.474 -0.2617 -0.6972 -0.4069
   76MOL     O415154   7.369   1.533   0.564  0.4167  0.6402  0.3070
   76MOL     N515155   7.496   1.648   0.426 -0.0282  0.0699 -0.4988
   76MOL     H615156   7.192   1.745   0.216  1.2963 -0.0127 -0.5165
   76MOL     H715157   7.286   1.604   0.224  0.5304 -0.0095 -1.1939
   76MOL     H815158   7.318   1.807   0.405 -1.0890  0.9024  0.8839
   76MOL     H915159   7.507   1.709   0.346  1.5120 -1.7248 -1.7109
   76MOL    H1015160   7.585   1.611   0.457 -1.0629 -0.6949  1.6556
   76MOL    H1115161   7.122   1.601   0.293  0.0152  0.4497 -1.3761
   76MOL    C1215162   7.152   1.740   0.520 -0.4970 -0.1915 -0.1773
   76MOL    C1315163   7.175   1.846   0.631  0.4766 -1.0445 -0.1118
   76MOL    C1415164   7.312   1.844   0.700 -0.7062 -0.6937  0.1719
   76MOL    O1515165   7.346   1.768   0.787 -0.3475 -0.2926 -0.1235
   76MOL    N1615166   7.396   1.936   0.655  0.4204 -0.3879  0.1865
   76MOL    H1715167   7.122   1.642   0.557 -2.4760  0.5642  0.2697
   76MOL    H1815168   7.070   1.770   0.455 -1.7164 -0.8011  1.0454
   76MOL    H1915169   7.163   1.947   0.594  2.6960 -0.2092  1.3395
   76MOL    H2015170   7.376   1.994   0.574  1.6331  0.3495  0.3973
   76MOL    H2115171   7.488   1.962   0.687  1.3164 -1.5247 -1.3905
   76MOL    C2215172   7.062   1.834   0.734  0.5674 -0.5319 -0.3798
   76MOL    C2315173   6.920   1.854   0.678  0.3636 -0.5763 -0.3447
   76MOL    C2415174   6.892   1.986   0.605  0.5445  0.0987 -0.1062
   76MOL    O2515175   6.913   2.099   0.645  0.3074 -0.3465  0.1605
   76MOL    N2615176   6.838   1.973   0.482  0.4508 -0.9255  0.3960
   76MOL    H2715177   7.072   1.903   0.818 -4.5307 -0.6645  0.4726
   76MOL    H2815178   7.048   1.733   0.773  2.8606 -0.5319  0.5435
   76MOL    H2915179   6.906   1.771   0.610  1.2685  0.3138 -1.6266
   76MOL    H3015180   6.810   1.881   0.451  0.9437 -1.2301  0.8465
   76MOL    H3115181   6.811   2.054   0.429  1.4749 -1.5250 -1.0850
   76MOL    C3215182   6.816   1.822   0.793  0.3284  0.1351 -0.1979
   76MOL    C3315183   6.667   1.816   0.763 -1.0151  0.1670  0.7323
   76MOL    C3415184   6.593   1.944   0.807  0.2490 -0.4597  0.4252
   76MOL    O3515185   6.598   1.982   0.920  0.4660 -0.4366  0.2220
   76MOL    N3615186   6.513   2.001   0.719 -0.8419  0.1001  0.8863
   76MOL    H3715187   6.843   1.897   0.868 -0.8301  0.8968 -0.5128
   76MOL    H3815188   6.832   1.722   0.833  0.8296 -0.0093 -0.7640
   76MOL    H3915189   6.655   1.819   0.655 -0.0842  0.4422  0.6323
   76MOL    H4015190   6.531   1.974   0.623 -0.6280 -1.0714  1.2361
   76MOL    H4115191   6.451   2.067   0.762 -0.5329 -0.1509  1.7425
   76MOL    C4215192   6.605   1.681   0.819  0.0708 -0.4468  0.3267
   76MOL    C4315193   6.450   1.667   0.844 -0.7555 -0.4361  1.0111
   76MOL    C4415194   6.437   1.526   0.900  0.3448 -0.2778 -1.0990
   76MOL    O4515195   6.483   1.429   0.839  0.1019  0.1492 -0.3061
   76MOL    N4615196   6.392   1.512   1.021 -0.2484  0.5187 -0.4409
   76MOL    H4715197   6.660   1.650   0.908 -1.3116  0.6622  1.6032
   76MOL    H4815198   6.640   1.608   0.746 -1.7806  1.1348 -2.2184
   76MOL    H4915199   6.420   1.733   0.925  0.1240  0.8415  0.3227
   76MOL    H5015200   6.353   1.584   1.080  1.1690 -1.0958  2.6177
   76MOL    H5115201   6.380   1.415   1.048  0.3979  0.3268 -0.8261
   76MOL    C5215202   6.351   1.698   0.732  0.0915  1.0488 -0.1537
   76MOL    C5315203   6.365   1.631   0.591  0.1041  1.1787 -0.4386
   76MOL    C5415204   6.476   1.696   0.500  0.2464  1.3295 -0.0977
   76MOL    O5515205   6.476   1.813   0.470  0.1776 -0.1294  0.1499
   76MOL    N5615206   6.583   1.616   0.473 -0.0219 -0.3062 -0.1376
   76MOL    H5715207   6.337   1.806   0.721 -1.9409  0.8763  0.5182
   76MOL    H5815208   6.253   1.663   0.767  0.2246  1.6065  0.7759
   76MOL    H5915209   6.389   1.526   0.613  0.7647  1.8004  2.0321
   76MOL    H6015210   6.597   1.522   0.509  0.1004 -0.3199 -0.2236
   76MOL    H6115211   6.663   1.660   0.432 -0.2182 -1.0133 -1.3091
   76MOL    C6215212   6.226   1.623   0.515 -0.1359 -0.2732 -0.1876
   76MOL    C6315213   6.177   1.750   0.440  0.0070 -0.3399 -0.1008
   76MOL    C6415214   6.127   1.853   0.540 -0.0406 -0.8947  0.4407
   76MOL    O6515215   6.020   1.834   0.596 -0.0809  0.3887 -0.4750
   76MOL    N6615216   6.197   1.962   0.551 -1.0732 -0.3370 -0.3494
   76MOL    H6715217   6.145   1.598   0.584 -2.0988  0.1076 -2.2658
   76MOL    H6815218   6.241   1.543   0.443 -2.2754 -1.1279  0.2575
   76MOL    H6915219   6.255   1.800   0.383 -2.2174  0.6847 -2.2872
   76MOL    H7015220   6.166   2.024   0.624  1.6323  0.1798  0.4321
   76MOL    H7115221   6.271   2.002   0.495 -0.2512 -1.5308 -0.1622
   76MOL    C7215222   6.066   1.700   0.343  0.1852  0.3126 -0.8519
   76MOL    C7315223   6.005   1.792   0.240  0.1064  0.0380 -0.3348
   76MOL    C7415224   5.900   1.878   0.298 -0.5178  0.3737  0.5383
   76MOL    O7515225   5.814   1.821   0.367  0.0488  0.1762 -0.5761
   76MOL    N7615226   5.912   2.008   0.284 -0.1557 -0.5230  0.2728
   76MOL    H7715227   5.991   1.643   0.399  0.4949  0.5401 -0.2005
   76MOL    H7815228   6.113   1.616   0.292 -0.2519 -0.1791 -0.4633
   76MOL    H7915229   6.082   1.860   0.203 -0.1964  1.1294  0.9788
   76MOL    H8015230   5.852   2.060   0.346  2.4563  0.5238  1.9695
   76MOL    H8115231   5.986   2.055   0.233  0.1325 -1.6560 -0.3875
   76MOL    C8215232   5.963   1.713   0.112 -0.1040 -0.2049 -0.5598
   76MOL    C8315233   5.919   1.787   7.639 -0.0360  0.1454  0.2877
   76MOL    C8415234   6.015   1.892   7.585  0.0593 -0.4954  0.3682
   76MOL    O8515235   5.978   2.004   7.549  0.5511 -0.6526  0.1809
   76MOL    N8615236   6.140   1.855   7.589  0.4791 -0.1174  0.8032
   76MOL    H8715237   5.878   1.648   0.134 -0.4546 -0.3590 -2.3345
   76MOL    H8815238   6.051   1.655   0.085 -0.2779 -0.7590  0.0589
   76MOL    H8915239   5.914   1.712   7.560 -1.4839 -1.2865  1.6762
   76MOL    H9015240   6.166   1.772   7.640  1.8823  0.5808  1.2462
   76MOL    H9115241   6.214   1.919   7.566 -0.0873  1.0560  2.1451
   76MOL    C9215242   5.776   1.850   7.629  0.3718 -0.8839 -0.3522
   76MOL    C9315243   5.658   1.772   0.035  0.0856 -0.1291 -0.1930
   76MOL    C9415244   5.620   1.635   7.632 -0.1643 -0.2074  0.0755
   76MOL    O9515245   5.695   1.571   7.564 -0.4966 -0.4388 -0.3945
   76MOL    N9615246   5.504   1.575   0.014 -0.1456 -0.0988 -0.3492
   76MOL    H9715247   5.770   1.858   7.521  2.5532 -1.6790 -0.5623
   76MOL    H9815248   5.781   1.956   7.655  2.0513 -0.7506 -1.1478
   76MOL    H9915249   5.687   1.765   0.140  1.5508  1.7741 -0.4433
   76MOL   H10015250   5.485   1.479   7.649 -1.0249  0.4409 -2.0964
   76MOL   H10115251   5.442   1.620   0.080 -1.0561  1.9954 -2.5576
   76MOL   C10215252   5.532   1.861   0.023 -0.3999  0.1093  0.7188
   76MOL   C10315253   5.484   1.913   0.156  0.2346  0.3221 -0.2578
   76MOL   C10415254   5.442   1.802   0.255  0.1133 -0.3879  0.0605
   76MOL   O10515255   5.381   1.700   0.226 -0.1175  0.2111 -0.2018
   76MOL   N10615256   5.482   1.815   0.385 -0.0193 -0.4019 -0.0995
   76MOL   H10715257   5.444   1.820   7.629  1.2215 -2.0111 -0.4851
   76MOL   H10815258   5.559   1.947   7.618 -2.3532  0.3161  0.1162
   76MOL   H10915259   5.570   1.962   0.202  0.5121  0.7301 -1.1932
   76MOL   H11015260   5.556   1.883   0.397 -0.5267  0.3056 -0.9257
   76MOL   H11115261   5.471   1.742   0.454 -0.9322 -0.1759  0.0033
   76MOL   C11215262   5.369   2.018   0.136  0.3516  0.1890 -0.4568
   76MOL   C11315263   5.325   2.098   0.263 -0.2214 -0.6251  0.2554
   76MOL   C11415264   5.172   2.121   0.266 -0.8046 -0.8197  0.1805
   76MOL   O11515265   5.109   2.117   0.165  0.2620 -0.5986  0.6537
   76MOL   N11615266   5.118   2.140   0.383  0.3203  0.6166 -0.0271
   76MOL   H11715267   5.284   1.982   0.078  1.1229 -0.1767 -1.3670
   76MOL   H11815268   5.416   2.087   0.066  0.8317  1.1709  0.8149
   76MOL   H11915269   5.337   2.038   0.353  1.4834 -2.3726 -1.0905
   76MOL   H12015270   5.171   2.180   0.460 -0.0074  1.6239 -0.3193
   76MOL   H12115271   5.019   2.158   0.383  1.0456  5.3190  0.6019
   76MOL   C12215272   5.391   2.237   0.287  0.0044 -0.0110 -0.1117
   76MOL   C12315273   5.518   2.252   0.373  0.4108 -0.9020 -0.4512
   76MOL   C12415274   5.493   2.204   0.519  0.9983  0.0143 -0.1832
   76MOL   O12515275   5.379   2.203   0.573 -0.3967  0.2886  0.2010
   76MOL   N12615276   5.602   2.170   0.591 -0.1615  0.1241  0.5387
   76MOL   H12715277   5.319   2.317   0.307  1.1754  0.2209  3.5757
   76MOL   H12815278   5.440   2.269   0.195  1.2742  1.1256  0.9411
   76MOL   H12915279   5.593   2.184   0.333 -0.1280 -1.4561 -0.5213
   76MOL   H13015280   5.688   2.191   0.542 -1.1302 -1.2046 -1.8301
   76MOL   H13115281   5.600   2.130   0.683  0.7787 -0.1197  0.4552
   76MOL   C13215282   5.571   2.401   0.375  0.0135 -0.1356 -0.0201
   76MOL   C13315283   5.687   2.428   0.281 -0.3917 -0.5664  0.0526
   76MOL   C13415284   5.810   2.349   0.308 -0.1796 -0.0019 -0.3258
   76MOL   O13515285   5.821   2.287   0.413 -0.5370 -0.0898 -0.4871
   76MOL   N13615286   5.891   2.323   0.209 -0.0253 -0.1361 -0.1498
   76MOL   H13715287   5.602   2.436   0.474 -1.1390 -0.6318  0.5263
   76MOL   H13815288   5.489   2.461   0.336 -0.6702 -0.7742  0.4164
   76MOL   H13915289   5.655   2.411   0.179  1.9181  2.2896 -1.2154
   76MOL   H14015290   5.869   2.364   0.120 -2.7153 -0.6920  0.1907
   76MOL   H14115291   5.982   2.283   0.225  0.4780  1.1895  0.4025
   76MOL   C14215292   5.718   2.580   0.305 -0.2891  0.0417 -0.0672
   76MOL   C14315293   5.786   2.651   0.183 -0.0194 -0.3721  0.4818
   76MOL   C14415294   5.820   2.793   0.243  0.7360 -0.0988 -0.3519
   76MOL   O14515295   5.925   2.812   0.306  0.1374  0.4121  0.0421
   76MOL   N14615296   5.733   2.891   0.228  0.3139 -0.1344  0.1150
   76MOL   H14715297   5.780   2.593   0.393  0.5907  2.5145 -1.0204
   76MOL   H14815298   5.626   2.635   0.322 -0.7286 -0.3876 -0.9812
   76MOL   H14915299   5.875   2.591   0.162 -0.0613 -0.9188  1.7930
   76MOL   H15015300   5.654   2.879   0.166 -0.8707 -3.2653  2.0902
   76MOL   H15115301   5.730   2.976   0.283  0.0726  1.6662 -2.5548
   76MOL   C15215302   5.695   2.660   0.055 -0.1747 -0.9657  0.3113
   76MOL   C15315303   5.764   2.648   7.574  0.0810  0.1782 -0.8710
   76MOL   C15415304   5.806   2.502   7.544 -0.1323 -0.8061  0.0604
   76MOL   O15515305   5.821   2.419   7.632 -0.2339 -0.6877 -0.3468
   76MOL   N15615306   5.831   2.482   7.416 -0.4879  0.1540  0.6472
   76MOL   H15715307   5.621   2.740   0.057 -0.6009 -1.3272 -0.5747
   76MOL   H15815308   5.628   2.576   0.075 -1.1692 -0.7704 -2.0466
   76MOL   H15915309   5.701   2.671   7.488 -1.1643  0.7197  0.1826
   76MOL   H16015310   5.852   2.391   7.379 -1.6624 -0.2094  0.8549
   76MOL   H16115311   5.836   2.556   7.348  1.8599 -1.4492 -0.9854
   76MOL   C16215312   5.887   2.734   7.548 -0.1272 -0.1028  0.0298
   76MOL   C16315313   5.859   2.882   7.555 -0.3267  0.4783  0.1217
   76MOL   C16415314   5.805   2.939   7.418 -0.5643 -0.3598  0.1258
   76MOL   O16515315   5.865   2.920   7.318 -0.0652 -0.1074 -0.0398
   76MOL   N16615316   5.690   3.004   7.414  0.3579 -0.0430  0.1725
   76MOL   H16715317   5.929   2.708   7.451  0.5845  0.3575  0.2064
   76MOL   H16815318   5.968   2.703   7.614 -0.1673 -1.3583 -0.4900
   76MOL   H16915319   5.781   2.894   7.629  1.2122 -1.0052  2.0500
   76MOL   H17015320   5.652   3.040   7.501 -3.4250 -0.7638 -1.0900
   76MOL   H17115321   5.674   3.058   7.331 -3.1362 -4.1601 -2.0271
   76MOL   C17215322   5.991   2.965   7.590 -0.2657 -0.0296  0.0665
   76MOL   C17315323   5.972   3.090   0.024 -1.0924 -0.2637 -0.4376
   76MOL   C17415324   5.894   3.200   7.601 -0.6907 -0.5811 -0.3341
   76MOL   O17515325   5.953   3.268   7.516 -0.5126  0.3529 -0.0566
   76MOL   N17615326   5.769   3.223   7.638 -0.3791 -0.3167  0.1579
   76MOL   H17715327   6.040   2.993   7.497  0.2322  2.3602  1.0176
   76MOL   H17815328   6.060   2.902   7.645  0.3131  0.6596  0.1360
   76MOL   H17915329   5.910   3.056   0.107  0.7641 -0.6938  0.7925
   76MOL   H18015330   5.722   3.306   7.606  0.1128 -0.1358 -0.0988
   76MOL   H18115331   5.728   3.173   0.059 -2.1120  1.3715  0.3719
   76MOL   C18215332   6.104   3.152   0.074  0.2793  0.4294 -0.3705
   76MOL   C18315333   6.151   3.080   0.205 -0.3839 -0.0576 -0.4078
   76MOL   C18415334   6.081   3.134   0.333 -0.2634  0.0081 -0.4055
   76MOL   O18515335   6.080   3.249   0.355  0.1261  0.0517 -0.0400
   76MOL   N18615336   6.035   3.050   0.419 -0.0433  0.6099  0.0898
   76MOL   H18715337   6.091   3.260   0.089 -1.3581  0.1992  0.0071
   76MOL   H18815338   6.188   3.133   0.007  0.8926 -1.6938  0.9795
   76MOL   H18915339   6.136   2.974   0.186  2.5045 -0.3078 -1.6121
   76MOL   H19015340   5.990   3.093   0.498  0.3297  1.7451 -0.3102
   76MOL   H19115341   6.006   2.961   0.381  0.9207  0.3889 -0.1513
   76MOL   C19215342   6.306   3.097   0.222  0.3451 -0.3409 -0.2105
   76MOL   C19315343   6.360   3.034   0.359 -0.3150 -0.8657  0.1593
   76MOL   C19415344   6.516   3.027   0.361  0.6293 -0.2840  1.1582
   76MOL   O19515345   6.562   2.963   0.270 -0.5004 -0.3116  0.9897
   76MOL   N19615346   6.593   3.102   0.437  0.3567  0.2340 -0.7101
   76MOL   H19715347   6.338   3.201   0.212 -2.3786  0.3171 -2.9148
   76MOL   H19815348   6.366   3.055   0.142  2.9074 -0.9700  1.9443
   76MOL   H19915349   6.326   3.093   0.444 -0.4311  0.9242 -1.0970
   76MOL   H20015350   6.691   3.078   0.442  0.3221 -0.0859 -1.5095
   76MOL   H20115351   6.551   3.161   0.507 -0.7381 -1.2263 -0.0837
   76MOL   H20215352   6.322   2.938   0.392 -4.0998  0.8384  0.9622
   77MOL     C115353   2.934   0.892   5.104 -0.4895 -0.7262  0.0620
   77MOL     C215354   3.017   0.988   5.012 -0.3538  0.5481  0.7767
   77MOL     C315355   2.927   1.094   4.936  0.8587  0.8371  0.2654
   77MOL     O415356   2.815   1.052   4.899  0.0954 -0.1955 -0.4956
   77MOL     N515357   2.969   1.209   4.910  0.1435  0.6434  0.5551
   77MOL     H615358   2.982   0.861   5.197  1.3225  2.3757  0.2096
   77MOL     H715359   2.843   0.937   5.144  1.4707  1.8698  1.7656
   77MOL     H815360   3.056   1.043   5.098  1.6973 -0.5938  0.5954
   77MOL     H915361   3.062   1.241   4.935  0.0617  1.1697  0.1954
   77MOL    H1015362   2.906   1.268   4.857  0.5805  0.8635  0.2777
   77MOL    H1115363   2.910   0.798   5.054  0.4020  0.4351 -2.6300
   77MOL    C1215364   3.127   0.911   4.924  0.0564  0.4620  0.5599
   77MOL    C1315365   3.204   0.966   4.801 -0.0355 -0.3370 -0.4367
   77MOL    C1415366   3.288   1.091   4.842  0.1851  0.1018 -0.3505
   77MOL    O1515367   3.267   1.171   4.932 -0.8887  0.0861 -0.8155
   77MOL    N1615368   3.403   1.103   4.777  0.3035  0.0124  0.2827
   77MOL    H1715369   3.080   0.820   4.887  0.4762  0.3636  0.2602
   77MOL    H1815370   3.204   0.877   4.992  0.3917  1.9746  0.9646
   77MOL    H1915371   3.267   0.878   4.788 -0.5408 -0.8279  0.4091
   77MOL    H2015372   3.463   1.184   4.779 -1.0321  1.0153  1.5490
   77MOL    H2115373   3.415   1.038   4.701  0.0634 -0.3177  0.5281
   77MOL    C2215374   3.121   0.982   4.671 -0.1970 -1.2370  0.2314
   77MOL    C2315375   3.201   0.967   4.538 -0.3599 -0.4730 -0.1437
   77MOL    C2415376   3.194   1.094   4.447  0.5680 -0.5504  0.6032
   77MOL    O2515377   3.083   1.135   4.407  0.4087  0.7890  0.4369
   77MOL    N2615378   3.310   1.148   4.407 -0.1774  0.0705  0.0360
   77MOL    H2715379   3.060   1.072   4.675  0.8790 -0.5775  1.9298
   77MOL    H2815380   3.034   0.916   4.674 -1.2699 -0.0381 -2.4120
   77MOL    H2915381   3.308   0.958   4.558 -0.4907  1.4768  1.5216
   77MOL    H3015382   3.390   1.098   4.443 -0.5842 -1.2469 -0.8291
   77MOL    H3115383   3.310   1.213   4.330  0.2432 -0.3322 -0.3056
   77MOL    C3215384   3.163   0.843   4.451  0.1311  0.6873 -0.2330
   77MOL    C3315385   3.224   0.711   4.500  0.2633 -0.4853  0.5195
   77MOL    C3415386   3.369   0.683   4.439  1.1250  0.0970 -0.8726
   77MOL    O3515387   3.382   0.684   4.317 -0.1097 -0.7299  0.4247
   77MOL    N3615388   3.467   0.652   4.527  0.6785  0.6672  0.9991
   77MOL    H3715389   3.212   0.861   4.356  2.0708 -0.4931  0.4938
   77MOL    H3815390   3.055   0.843   4.440  0.3860  0.4722 -3.1134
   77MOL    H3915391   3.242   0.723   4.607 -3.0526 -0.5670  1.1273
   77MOL    H4015392   3.438   0.636   4.622  0.1740 -2.7730  0.3464
   77MOL    H4115393   3.568   0.646   4.521  0.6975  1.4478  0.3662
   77MOL    C4215394   3.136   0.588   4.466 -0.0275 -0.3183  0.4279
   77MOL    C4315395   2.997   0.581   4.516 -0.5846  0.1790 -0.2528
   77MOL    C4415396   2.984   0.629   4.662  0.2675  0.3735 -0.0669
   77MOL    O4515397   3.065   0.596   4.746 -0.2194 -0.2317  0.1159
   77MOL    N4615398   2.886   0.707   4.706  0.1941 -0.1730 -0.2831
   77MOL    H4715399   3.193   0.499   4.494 -1.2760 -1.3318 -0.1726
   77MOL    H4815400   3.130   0.570   4.359 -1.9019 -2.1361  0.8165
   77MOL    H4915401   2.937   0.649   4.455  0.4490  2.5323  1.2821
   77MOL    H5015402   2.877   0.734   4.803 -0.7866 -1.5602  0.0401
   77MOL    H5115403   2.815   0.741   4.642 -1.0870 -0.2074  1.1054
   77MOL    C5215404   2.942   0.439   4.509 -0.1822  0.1743 -0.3628
   77MOL    C5315405   2.902   0.377   4.367  0.0523  0.5672  0.1193
   77MOL    C5415406   2.765   0.430   4.313 -1.0412  0.3469  0.9451
   77MOL    O5515407   2.665   0.364   4.342 -0.1315 -0.0577 -0.1955
   77MOL    N5615408   2.770   0.539   4.241 -0.4228 -0.5344  0.3606
   77MOL    H5715409   2.867   0.428   4.587  2.5209 -2.0119  2.0410
   77MOL    H5815410   3.022   0.378   4.550  0.4324  0.0302 -1.7395
   77MOL    H5915411   2.983   0.413   4.304  0.5917  0.8847  0.9758
   77MOL    H6015412   2.857   0.575   4.202 -0.4802 -1.6932 -0.8659
   77MOL    H6115413   2.685   0.582   4.207  0.5984  1.9586  0.8030
   77MOL    C6215414   2.896   0.227   4.383 -0.6268 -0.4014  0.2328
   77MOL    C6315415   2.878   0.149   4.252 -0.1640  0.0185  0.4914
   77MOL    C6415416   2.851   7.656   4.279  0.7089  0.3229  0.4730
   77MOL    O6515417   2.879   7.575   4.192  0.3229  0.5683 -0.1498
   77MOL    N6615418   2.790   7.616   4.387  0.1704  0.6141 -0.4622
   77MOL    H6715419   2.821   0.190   4.453 -0.5074 -0.5743  0.2703
   77MOL    H6815420   2.993   0.186   4.411 -1.3404 -1.7840  0.7039
   77MOL    H6915421   2.788   0.187   4.204 -0.1845  1.0790  1.3546
   77MOL    H7015422   2.736   0.024   4.443  0.9310  1.5459 -0.7790
   77MOL    H7115423   2.763   7.519   4.390  1.8554  0.1529  1.1659
   77MOL    C7215424   3.004   0.171   4.149 -0.6358  0.3154  0.2335
   77MOL    C7315425   2.987   0.132   3.998 -0.4467 -0.8510  0.5612
   77MOL    C7415426   3.113   0.165   3.920  0.2978 -0.3756 -0.1402
   77MOL    O7515427   3.222   0.175   3.972  0.6271  0.2940  0.3368
   77MOL    N7615428   3.103   0.154   3.787  0.2523 -0.4871  1.1730
   77MOL    H7715429   3.091   0.119   4.188 -1.4468 -1.4961 -0.2877
   77MOL    H7815430   3.028   0.277   4.153  3.0989 -0.2567 -3.7291
   77MOL    H7915431   2.959   0.027   3.982 -3.2763  0.2237 -2.1090
   77MOL    H8015432   3.010   0.145   3.749  0.8059  1.3672 -0.7297
   77MOL    H8115433   3.186   0.159   3.729 -1.1626  0.3757 -0.8399
   77MOL    C8215434   2.863   0.201   3.946  0.6346  0.3164  0.0066
   77MOL    C8315435   2.743   0.118   3.891  0.0399 -0.3316  0.0150
   77MOL    C8415436   2.778   0.049   3.762 -0.0921 -0.2987 -0.2047
   77MOL    O8515437   2.828   0.113   3.674 -0.2750  0.1610  0.1644
   77MOL    N8615438   2.762   7.578   3.742  0.2022  0.2179 -0.1505
   77MOL    H8715439   2.886   0.264   3.860  1.2243  1.6017  1.0956
   77MOL    H8815440   2.829   0.270   4.023  0.0281  0.1859 -0.1369
   77MOL    H8915441   2.727   0.042   3.968  2.7303 -1.3080 -0.3411
   77MOL    H9015442   2.705   7.516   3.798 -1.1760  0.9154 -0.7539
   77MOL    H9115443   2.793   7.542   3.653  0.0787 -1.0384  0.3009
   77MOL    C9215444   2.616   0.198   3.876 -0.1287  0.5691 -0.6160
   77MOL    C9315445   2.531   0.241   4.000 -0.3207 -0.5636 -0.0655
   77MOL    C9415446   2.473   0.129   4.085  0.2509  0.2731  0.1318
   77MOL    O9515447   2.394   0.049   4.036 -0.4719  0.7795 -0.9150
   77MOL    N9615448   2.505   0.132   4.217 -0.6105 -0.1278  0.2597
   77MOL    H9715449   2.550   0.146   3.807  0.2359  2.0681 -2.1195
   77MOL    H9815450   2.636   0.284   3.813 -0.5772  1.2155  0.1047
   77MOL    H9915451   2.595   0.308   4.057  0.7918 -1.4934 -0.2060
   77MOL   H10015452   2.479   0.053   4.274  1.0914  1.1257  2.8194
   77MOL   H10115453   2.555   0.214   4.248 -0.6447 -0.1209  0.2960
   77MOL   C10215454   2.420   0.340   3.956 -0.0709  0.4708  0.2372
   77MOL   C10315455   2.289   0.365   4.035  0.1677 -0.2375 -0.5648
   77MOL   C10415456   2.189   0.453   3.950 -0.6408 -0.3648  1.1807
   77MOL   O10515457   2.232   0.549   3.881  0.1635  0.1734 -0.0038
   77MOL   N10615458   2.056   0.423   3.939  0.1577 -0.8369 -0.2393
   77MOL   H10715459   2.389   0.305   3.858 -0.1205 -2.1288  1.1382
   77MOL   H10815460   2.478   0.431   3.937  1.6039 -0.2894  1.5769
   77MOL   H10915461   2.245   0.267   4.054  0.8249 -0.1176  1.6273
   77MOL   H11015462   1.994   0.477   3.881 -0.0380  0.0920  0.8233
   77MOL   H11115463   2.014   0.364   4.009  1.4131 -1.8277 -0.2983
   77MOL   C11215464   2.317   0.432   4.177 -0.7320 -0.5390 -0.7011
   77MOL   C11315465   2.201   0.429   4.282 -0.2309 -0.1190 -0.6058
   77MOL   C11415466   2.210   0.545   4.381 -0.2146 -0.1564  0.0321
   77MOL   O11515467   2.314   0.586   4.425  0.2381 -0.0746 -0.1389
   77MOL   N11615468   2.101   0.610   4.414 -0.5667  0.5262 -0.3341
   77MOL   H11715469   2.333   0.538   4.157 -2.9491 -0.2002 -0.8638
   77MOL   H11815470   2.415   0.401   4.213 -0.6153  2.2985  1.5290
   77MOL   H11915471   2.100   0.433   4.240 -1.2464  1.0089  1.7977
   77MOL   H12015472   2.111   0.692   4.473 -0.6646  0.1899  0.1566
   77MOL   H12115473   2.007   0.594   4.380 -0.9710  0.5043  0.7404
   77MOL   C12215474   2.206   0.284   4.351  0.0401  0.1606 -0.2551
   77MOL   C12315475   2.092   0.261   4.460 -0.1861  0.7261 -0.2796
   77MOL   C12415476   2.139   0.150   4.559 -0.1279 -0.8846 -0.8793
   77MOL   O12515477   2.185   0.042   4.528 -0.0913 -0.0113 -0.7612
   77MOL   N12615478   2.131   0.182   4.688 -0.2843  0.3454  0.4051
   77MOL   H12715479   2.306   0.267   4.392 -0.0745 -1.0164 -0.4631
   77MOL   H12815480   2.204   0.209   4.272 -1.5973 -0.7484  0.6296
   77MOL   H12915481   2.077   0.355   4.512  1.0477 -0.0868  1.6239
   77MOL   H13015482   2.102   0.273   4.722 -1.2049  0.0794  0.3275
   77MOL   H13115483   2.160   0.107   4.748  1.6508  0.6088 -0.1715
   77MOL   C13215484   1.957   0.234   4.407 -0.5744 -0.5584  0.6237
   77MOL   C13315485   1.923   0.109   4.318  0.0722 -0.4006 -0.0939
   77MOL   C13415486   1.938   0.131   4.168 -0.1310  0.0250  0.0965
   77MOL   O13515487   1.895   0.237   4.119 -0.0942  0.1403 -0.0197
   77MOL   N13615488   2.010   0.044   4.095 -0.5484  0.0321 -0.0588
   77MOL   H13715489   1.914   0.329   4.375 -0.2856 -0.3257  0.9266
   77MOL   H13815490   1.895   0.223   4.497 -1.6197 -4.4273 -0.4607
   77MOL   H13915491   1.998   0.031   4.329 -0.9932 -1.4980 -0.5348
   77MOL   H14015492   2.081   7.645   4.140 -1.4922 -1.8069 -0.8498
   77MOL   H14115493   2.009   0.065   3.996 -1.0647  0.4121  0.0227
   77MOL   C14215494   1.785   0.047   4.364  0.0544  0.0209 -0.0219
   77MOL   C14315495   1.745   7.572   4.293 -0.2140 -0.2358 -0.0164
   77MOL   C14415496   1.596   7.555   4.309 -0.3918  0.4816  0.1985
   77MOL   O14515497   1.541   7.515   4.414  0.5172 -0.9206 -0.4693
   77MOL   N14615498   1.522   7.603   4.206 -0.0796 -0.4507  0.1467
   77MOL   H14715499   1.709   0.125   4.354  0.8962  0.7909 -0.4339
   77MOL   H14815500   1.779   0.031   4.472 -1.0946  2.2247  0.2818
   77MOL   H14915501   1.769   7.574   4.187  1.9515  0.4215  0.4568
   77MOL   H15015502   1.545   0.012   4.133  0.3531 -1.9634 -1.1293
   77MOL   H15115503   1.421   7.592   4.209 -0.1841  0.1111 -0.9156
   77MOL   C15215504   1.834   7.456   4.350 -0.0579  0.2782 -0.2566
   77MOL   C15315505   1.913   7.367   4.243  0.0175  0.4590 -0.0476
   77MOL   C15415506   1.822   7.278   4.153  0.7390 -0.2354  0.1919
   77MOL   O15515507   1.820   7.154   4.148 -0.6002  0.4677  0.6975
   77MOL   N15615508   1.763   7.342   4.050 -0.2237 -0.0551  0.0709
   77MOL   H15715509   1.777   7.392   4.417  0.3875 -0.0201 -0.1619
   77MOL   H15815510   1.909   7.496   4.418 -0.0692 -2.2406  1.2826
   77MOL   H15915511   1.963   7.440   4.180 -1.9579 -0.0478 -2.2517
   77MOL   H16015512   1.696   7.293   3.992  1.5296  0.6815 -2.6328
   77MOL   H16115513   1.761   7.443   4.054 -0.2238  0.0160 -1.5042
   77MOL   C16215514   2.035   7.287   4.305  0.7702  0.1906  0.3346
   77MOL   C16315515   2.156   7.377   4.352  0.2420 -0.7297 -0.3269
   77MOL   C16415516   2.216   7.465   4.242 -0.1732  0.1851 -0.4166
   77MOL   O16515517   2.230   7.418   4.131  0.0741  0.1205  0.3834
   77MOL   N16615518   2.238   7.595   4.267 -0.5362 -0.1988 -0.0718
   77MOL   H16715519   2.082   7.225   4.228  0.9613 -1.0784  1.4622
   77MOL   H16815520   2.004   7.224   4.389 -1.8244 -0.0866 -0.7776
   77MOL   H16915521   2.116   7.445   4.426 -0.9176  0.7473 -2.2444
   77MOL   H17015522   2.279   7.649   4.192 -2.3310  0.6157 -0.5028
   77MOL   H17115523   2.234   7.616   4.365  3.9339  0.8651  0.0003
   77MOL   C17215524   2.270   7.293   4.415 -0.3795 -0.1152 -0.1219
   77MOL   C17315525   2.362   7.200   4.327 -0.2753  0.6695 -0.5119
   77MOL   C17415526   2.372   7.051   4.367  0.0910  0.5045  0.1496
   77MOL   O17515527   2.421   7.013   4.477  0.1180 -0.1291 -0.1570
   77MOL   N17615528   2.332   6.977   4.269  0.0069  0.3697 -0.0002
   77MOL   H17715529   2.223   7.230   4.492 -1.8264 -0.1723 -1.0405
   77MOL   H17815530   2.332   7.364   4.469 -0.9637 -1.3406  2.2565
   77MOL   H17915531   2.329   7.210   4.224 -3.0700 -0.1427  0.2567
   77MOL   H18015532   2.282   7.007   4.186 -1.0072  1.1566  0.8888
   77MOL   H18115533   2.331   6.877   4.283 -0.2531  0.4064  0.2424
   77MOL   C18215534   2.506   7.274   4.334  0.2633  0.0539 -0.3558
   77MOL   C18315535   2.620   7.214   4.238 -0.0722  0.4665 -0.4574
   77MOL   C18415536   2.764   7.246   4.279  0.1239 -0.0383 -0.2962
   77MOL   O18515537   2.776   7.332   4.363 -0.1873 -0.0856 -0.4077
   77MOL   N18615538   2.867   7.172   4.242  0.2647 -0.0595 -0.2988
   77MOL   H18715539   2.541   7.276   4.437 -1.0117 -0.2133  0.0936
   77MOL   H18815540   2.487   7.380   4.318 -0.8107  0.0327  0.6683
   77MOL   H18915541   2.596   7.108   4.244 -1.4316  0.6224 -2.4507
   77MOL   H19015542   2.964   7.185   4.266  0.3996 -2.3022  0.5696
   77MOL   H19115543   2.849   7.085   4.194 -1.7385 -1.2925  2.5062
   77MOL   C19215544   2.603   7.247   4.088 -0.9769  0.6032 -0.4702
   77MOL   C19315545   2.572   7.390   4.049  0.4834  0.5014  0.5762
   77MOL   C19415546   2.519   7.407   3.901  0.3858 -0.0231  0.0074
   77MOL   O19515547   2.589   7.384   3.804 -0.1876  1.0081 -0.1771
   77MOL   N19615548   2.397   7.463   3.884 -0.5752 -0.0885  0.4972
   77MOL   H19715549   2.526   7.182   4.047  0.2058  0.0595 -1.8808
   77MOL   H19815550   2.690   7.213   4.031 -1.3643  0.3302 -0.9020
   77MOL   H19915551   2.495   7.429   4.115  0.0831  0.3403  0.2010
   77MOL   H20015552   2.356   7.469   3.975  0.5372  1.6387  0.9183
   77MOL   H20115553   2.349   7.471   3.795 -3.8778 -1.5770  2.0704
   77MOL   H20215554   2.662   7.447   4.072  0.6792 -0.0366  1.1615
   78MOL     C115555   1.909   7.202   6.131  0.5683 -0.1185  0.0145
   78MOL     C215556   1.973   7.073   6.181  0.3892  0.9448  0.2923
   78MOL     C315557   2.126   7.091   6.200  0.1635  0.4000  0.5684
   78MOL     O415558   2.201   7.109   6.104  0.4168  0.4549  0.0327
   78MOL     N515559   2.169   7.073   6.323  0.6129 -0.4687  0.0827
   78MOL     H615560   1.966   7.247   6.049  1.3768  1.0043  1.1721
   78MOL     H715561   1.811   7.173   6.095  0.1469  0.0827  1.0057
   78MOL     H815562   1.928   7.060   6.279 -0.8238 -0.2501 -0.4046
   78MOL     H915563   2.267   7.081   6.347  0.4979 -0.6217  0.6039
   78MOL    H1015564   2.101   7.072   6.398 -0.6837  1.3013 -1.0154
   78MOL    H1115565   1.907   7.265   6.220 -0.9959 -1.3203  0.8491
   78MOL    C1215566   1.934   6.941   6.101 -0.3184 -0.5348  0.2355
   78MOL    C1315567   1.983   6.805   6.164 -0.0418 -0.4119 -0.1655
   78MOL    C1415568   2.119   6.758   6.121  0.0442  0.2445  0.2339
   78MOL    O1515569   2.179   6.670   6.190 -0.8336 -0.3723 -0.7293
   78MOL    N1615570   2.178   6.812   6.014 -0.1435  0.1062 -0.4820
   78MOL    H1715571   1.969   6.946   5.998  0.3704 -0.0393  0.4831
   78MOL    H1815572   1.825   6.940   6.101 -0.3221 -0.2350 -0.4791
   78MOL    H1915573   1.998   6.838   6.267  1.0303  2.2056 -1.1240
   78MOL    H2015574   2.142   6.902   5.985  1.3981  0.3482 -1.7413
   78MOL    H2115575   2.270   6.779   5.987  0.5971  1.0265  0.8174
   78MOL    C2215576   1.881   6.687   6.165  0.1882 -0.0838 -0.6011
   78MOL    C2315577   1.863   6.602   6.033 -0.6762  0.0940 -0.0421
   78MOL    C2415578   1.783   6.685   5.934  0.6559  0.3134  0.2923
   78MOL    O2515579   1.676   6.742   5.974 -0.0088 -0.4929 -0.2316
   78MOL    N2615580   1.836   6.694   5.811 -0.5948  0.1399  0.1314
   78MOL    H2715581   1.783   6.717   6.202  0.4932  0.4263 -0.2033
   78MOL    H2815582   1.909   6.624   6.250 -0.3511  2.2173  1.3496
   78MOL    H2915583   1.958   6.573   5.990 -0.7263  0.7390 -0.5992
   78MOL    H3015584   1.776   6.741   5.744  0.4303  1.2581 -0.0313
   78MOL    H3115585   1.921   6.650   5.779  0.2730  2.1186 -0.3527
   78MOL    C3215586   1.788   6.470   6.081 -0.1570  0.4049  0.0946
   78MOL    C3315587   1.780   6.343   5.989  0.1395  0.6535 -0.5067
   78MOL    C3415588   1.684   6.372   5.872 -0.1315  0.3064  0.6995
   78MOL    O3515589   1.564   6.391   5.890 -0.1340  0.2011 -0.3432
   78MOL    N3615590   1.735   6.374   5.752 -0.0780 -0.0477  0.2833
   78MOL    H3715591   1.685   6.500   6.100 -0.6413 -1.5560  0.6901
   78MOL    H3815592   1.843   6.430   6.166 -0.8149 -2.0258 -0.5667
   78MOL    H3915593   1.877   6.314   5.950 -0.1599 -0.8103 -0.2070
   78MOL    H4015594   1.827   6.348   5.720 -1.1246  0.2938 -3.1427
   78MOL    H4115595   1.669   6.415   5.688  0.4774 -0.5319 -0.5976
   78MOL    C4215596   1.729   6.213   6.065 -0.3989 -0.1583 -0.6214
   78MOL    C4315597   1.828   6.139   6.152  0.9329  0.2149  0.4166
   78MOL    C4415598   1.794   5.996   6.141 -0.1027  0.0229  0.5776
   78MOL    O4515599   1.679   5.959   6.159 -0.0835 -0.2738 -0.2501
   78MOL    N4615600   1.894   5.908   6.128 -1.1080 -0.4794 -0.4405
   78MOL    H4715601   1.688   6.146   5.991  2.1088  2.8068 -4.9217
   78MOL    H4815602   1.644   6.246   6.124 -1.1787 -0.4634 -1.5783
   78MOL    H4915603   1.925   6.162   6.110  1.6213 -1.3505  1.1282
   78MOL    H5015604   1.872   5.813   6.105 -1.6302 -0.5997  0.5324
   78MOL    H5115605   1.989   5.941   6.118 -0.9231 -0.7151  0.4527
   78MOL    C5215606   1.825   6.190   6.297  0.6041  0.5884 -0.3820
   78MOL    C5315607   1.957   6.217   6.367 -0.0407  0.2244  0.0018
   78MOL    C5415608   2.041   6.092   6.370  0.0105  0.3381 -0.0336
   78MOL    O5515609   2.008   5.987   6.428 -0.0460  0.2657  0.0135
   78MOL    N5615610   2.161   6.097   6.306 -0.3638 -0.3288  0.0900
   78MOL    H5715611   1.769   6.113   6.350 -1.3615  1.1244 -1.6422
   78MOL    H5815612   1.765   6.281   6.299 -2.6410 -1.4787  0.2864
   78MOL    H5915613   2.018   6.278   6.301  2.2017  0.7251  2.4645
   78MOL    H6015614   2.200   6.178   6.261 -1.4078  0.1384  0.0028
   78MOL    H6115615   2.217   6.014   6.298  1.3005  0.8306 -0.5924
   78MOL    C6215616   1.949   6.286   6.500  0.6330  0.4336  0.0774
   78MOL    C6315617   2.080   6.330   6.565 -0.2039  0.1446 -0.0195
   78MOL    C6415618   2.121   6.235   6.677 -0.0569 -0.1210  0.0225
   78MOL    O6515619   2.035   6.185   6.752 -0.6525  0.6881  0.2966
   78MOL    N6615620   2.246   6.193   6.684 -0.9865  0.0445  0.6174
   78MOL    H6715621   1.878   6.230   6.560  0.2018  0.1056 -0.7333
   78MOL    H6815622   1.878   6.368   6.484 -2.8847 -2.4833  0.1422
   78MOL    H6915623   2.152   6.339   6.484 -0.4384 -1.6517 -0.4375
   78MOL    H7015624   2.277   6.129   6.755  1.4377 -1.2280 -1.4971
   78MOL    H7115625   2.313   6.235   6.620 -0.3095  1.5342  2.2769
   78MOL    C7215626   2.083   6.481   6.606 -0.3364  0.2904  0.4789
   78MOL    C7315627   2.028   6.522   6.750 -0.1332 -0.6344  0.0693
   78MOL    C7415628   1.876   6.507   6.764  0.7122 -0.0159  0.0599
   78MOL    O7515629   1.799   6.609   6.761  0.0102 -0.0750  0.2440
   78MOL    N7615630   1.825   6.386   6.759  0.4662  0.1220 -0.5837
   78MOL    H7715631   2.044   6.537   6.521 -1.0180  1.0847  1.3136
   78MOL    H7815632   2.188   6.510   6.609  0.5988 -2.9830  1.7992
   78MOL    H7915633   2.068   6.452   6.823  0.3062  0.7611  1.1751
   78MOL    H8015634   1.726   6.381   6.775  0.3670  0.0035 -1.2273
   78MOL    H8115635   1.888   6.307   6.756  1.4347  0.7350  2.0287
   78MOL    C8215636   2.075   6.664   6.788 -0.1099 -0.6114  0.2848
   78MOL    C8315637   2.217   6.681   6.838 -0.0114 -0.2365  0.0415
   78MOL    C8415638   2.229   6.637   6.988 -0.0188  0.3248 -0.3248
   78MOL    O8515639   2.155   6.682   7.074 -0.1605 -0.0078  0.0144
   78MOL    N8615640   2.304   6.533   7.023 -0.5092 -0.2280  0.5823
   78MOL    H8715641   2.015   6.708   6.868 -1.1464 -1.9281  0.2307
   78MOL    H8815642   2.058   6.726   6.700 -0.4687 -3.1529 -1.4929
   78MOL    H8915643   2.285   6.611   6.791  0.7151  1.2239 -1.1433
   78MOL    H9015644   2.356   6.478   6.957 -0.1685 -0.6882  1.2362
   78MOL    H9115645   2.305   6.523   7.124 -0.1877 -2.8086  0.3372
   78MOL    C9215646   2.269   6.829   6.809 -0.5849  0.7166  0.4132
   78MOL    C9315647   2.260   6.888   6.667  0.1325  0.0913 -0.0027
   78MOL    C9415648   2.304   6.787   6.558  0.4583 -0.5498  0.2992
   78MOL    O9515649   2.396   6.709   6.567  0.2512 -0.1001 -0.1966
   78MOL    N9615650   2.226   6.780   6.450 -0.4626  0.2524 -0.6840
   78MOL    H9715651   2.374   6.812   6.835 -0.7125 -0.1305  0.4144
   78MOL    H9815652   2.232   6.902   6.881 -0.3325 -0.2992  1.5991
   78MOL    H9915653   2.155   6.908   6.649 -0.0774 -0.6666  0.3258
   78MOL   H10015654   2.154   6.849   6.435 -0.6627  0.6491  1.8861
   78MOL   H10115655   2.237   6.709   6.379 -3.8888 -1.1541  0.0994
   78MOL   C10215656   2.331   7.024   6.649 -0.3399 -0.6348 -0.6223
   78MOL   C10315657   2.477   7.040   6.692  0.4709  0.0846 -0.3999
   78MOL   C10415658   2.491   7.112   6.831  0.2543 -0.2124 -0.0541
   78MOL   O10515659   2.516   7.055   6.933 -0.1805  0.0536  0.0451
   78MOL   N10615660   2.466   7.243   6.837  0.2072  0.6433 -0.0708
   78MOL   H10715661   2.271   7.098   6.700 -0.9605 -2.2298  1.0210
   78MOL   H10815662   2.318   7.049   6.543  0.0886 -2.5733 -1.1643
   78MOL   H10915663   2.508   6.938   6.713  0.3897 -0.0366 -0.8477
   78MOL   H11015664   2.485   7.307   6.912  4.1926 -1.3428  0.7431
   78MOL   H11115665   2.448   7.282   6.745 -0.0342 -1.4945 -0.9634
   78MOL   C11215666   2.572   7.100   6.589  0.2045  0.0668  0.8332
   78MOL   C11315667   2.608   7.004   6.476  0.4579  1.0156  0.0166
   78MOL   C11415668   2.729   6.914   6.505 -0.1869  0.0400 -0.4127
   78MOL   O11515669   2.839   6.966   6.526 -0.4200  0.0730  0.1483
   78MOL   N11615670   2.716   6.783   6.503  0.1020 -0.3225  0.6816
   78MOL   H11715671   2.663   7.124   6.644  0.1744 -0.1517  0.9783
   78MOL   H11815672   2.530   7.188   6.539  2.0384  0.2723 -0.4375
   78MOL   H11915673   2.519   6.943   6.460  0.3318  0.8098  1.4849
   78MOL   H12015674   2.628   6.743   6.473 -0.4527  1.4699 -0.1125
   78MOL   H12115675   2.794   6.727   6.534  0.2296  0.3526  1.5718
   78MOL   C12215676   2.628   7.075   6.344 -0.4314 -0.5950  0.1421
   78MOL   C12315677   2.646   6.994   6.213  1.0345  0.5182 -0.1117
   78MOL   C12415678   2.535   6.885   6.201  0.5192  0.2421 -0.1873
   78MOL   O12515679   2.550   6.775   6.248  0.2154 -0.0836  0.3235
   78MOL   N12615680   2.430   6.914   6.127 -0.4140 -0.1368  0.1829
   78MOL   H12715681   2.715   7.141   6.344  0.4790 -1.7820 -0.4241
   78MOL   H12815682   2.544   7.138   6.315 -0.7529 -0.9580  0.2746
   78MOL   H12915683   2.632   7.068   6.134  1.2625  0.5815 -0.0936
   78MOL   H13015684   2.429   7.001   6.077  0.0127  0.7240  1.6360
   78MOL   H13115685   2.361   6.843   6.111 -0.8466  0.8691 -2.5894
   78MOL   C13215686   2.789   6.944   6.187  0.1263  0.0835  0.0674
   78MOL   C13315687   2.838   6.930   6.040  0.4153  0.0326  0.0973
   78MOL   C13415688   2.787   6.817   5.969 -0.0513 -0.2547 -0.3598
   78MOL   O13515689   2.843   6.707   5.974  0.4298  0.2678  0.3865
   78MOL   N13615690   2.687   6.837   5.880 -0.1590  0.0440  0.3866
   78MOL   H13715691   2.820   6.854   6.241  0.7812 -0.5518 -1.3524
   78MOL   H13815692   2.861   7.009   6.236 -0.5154  0.5183  0.4400
   78MOL   H13915693   2.796   7.018   5.992 -0.6122 -1.0490 -1.0056
   78MOL   H14015694   2.659   6.753   5.832  0.0416  0.4806 -0.5039
   78MOL   H14115695   2.652   6.931   5.866 -1.7326 -0.7331 -1.0655
   78MOL   C14215696   2.992   6.928   6.026  0.2105 -0.3721 -0.5372
   78MOL   C14315697   3.060   7.065   6.031 -0.1045 -0.2394  0.1473
   78MOL   C14415698   3.014   7.150   5.910  0.0739 -0.7597  0.3971
   78MOL   O14515699   2.987   7.101   5.801  0.0967 -0.5808 -0.2617
   78MOL   N14615700   3.005   7.279   5.927 -0.4424  0.3882  0.1461
   78MOL   H14715701   3.018   6.870   5.938  0.3901 -0.2103 -0.5914
   78MOL   H14815702   3.038   6.876   6.111  0.0248 -0.7665 -0.6767
   78MOL   H14915703   3.016   7.102   6.123 -0.0807 -1.8004  0.7955
   78MOL   H15015704   3.037   7.331   6.007  0.4162 -0.0502  0.0869
   78MOL   H15115705   2.994   7.319   5.835 -0.5345 -2.0162 -0.9243
   78MOL   C15215706   3.214   7.074   6.037  0.7904  0.0132  0.2031
   78MOL   C15315707   3.304   7.039   5.915  0.5628 -0.3564  0.2534
   78MOL   C15415708   3.308   6.883   5.906  0.3758 -0.1808 -0.1831
   78MOL   O15515709   3.299   6.808   6.003 -0.2313  0.7771  0.0838
   78MOL   N15615710   3.353   6.838   5.793 -0.2901 -0.1595  0.2210
   78MOL   H15715711   3.233   7.000   6.115 -1.4037 -1.0797 -0.2696
   78MOL   H15815712   3.236   7.175   6.072 -2.5186  0.8283  0.0827
   78MOL   H15915713   3.259   7.077   5.824  3.9438 -0.3870 -1.5086
   78MOL   H16015714   3.386   6.901   5.721  2.2282  0.6207  1.9638
   78MOL   H16115715   3.368   6.739   5.781  0.5560 -0.0264  0.1329
   78MOL   C16215716   3.440   7.094   5.932 -0.3636 -0.2340  0.2867
   78MOL   C16315717   3.467   7.248   5.952  0.0752  0.1205  0.1829
   78MOL   C16415718   3.399   7.324   5.833  0.5222  0.1313 -0.2491
   78MOL   O16515719   3.425   7.295   5.716 -0.3092  0.4448  0.3410
   78MOL   N16615720   3.310   7.421   5.860  0.1507  0.0580  0.6972
   78MOL   H16715721   3.500   7.063   5.847 -1.4977  1.2173 -1.0881
   78MOL   H16815722   3.488   7.044   6.016  1.1999 -0.0952 -0.5194
   78MOL   H16915723   3.424   7.279   6.047  1.6842  1.2160  0.5678
   78MOL   H17015724   3.297   7.452   5.955  1.4117 -3.7428  2.2420
   78MOL   H17115725   3.286   7.469   5.775  0.5469  0.4636  0.8123
   78MOL   C17215726   3.618   7.276   5.963  0.2678  0.2741 -0.3917
   78MOL   C17315727   3.669   7.410   6.011 -0.6326 -0.2845  0.3705
   78MOL   C17415728   3.616   7.442   6.148  0.8413  0.4226 -0.4116
   78MOL   O17515729   3.548   7.544   6.166  0.0608 -0.3129 -0.1240
   78MOL   N17615730   3.644   7.362   6.247 -0.2278  0.4979 -0.5113
   78MOL   H17715731   3.675   7.239   5.878 -2.2220 -0.0754 -1.9686
   78MOL   H17815732   3.648   7.206   6.041 -1.1860 -1.2616 -1.1754
   78MOL   H17915733   3.775   7.383   6.014 -0.4959  0.1736 -0.2232
   78MOL   H18015734   3.625   7.367   6.346 -0.3636  0.2347 -0.5230
   78MOL   H18115735   3.697   7.279   6.222  0.7054  1.1413 -0.6855
   78MOL   C18215736   3.651   7.532   5.910  0.4275  0.3483  0.0211
   78MOL   C18315737   3.749   7.649   5.914  0.3206  0.0987 -0.5127
   78MOL   C18415738   3.685   0.128   5.949  0.4565 -0.1640  0.5738
   78MOL   O18515739   3.597   0.173   5.880  0.7611 -0.1645 -0.2478
   78MOL   N18615740   3.724   0.183   6.062 -0.0875 -0.0358 -0.5183
   78MOL   H18715741   3.552   7.572   5.933  0.5088  0.1437  0.7653
   78MOL   H18815742   3.653   7.485   5.812  0.5134 -1.8555  1.0296
   78MOL   H18915743   3.812   7.626   6.000 -1.1479 -3.9236 -0.4014
   78MOL   H19015744   3.677   0.271   6.079  0.3934  0.1058  0.0959
   78MOL   H19115745   3.799   0.140   6.113  0.8553 -0.1473 -1.9834
   78MOL   C19215746   3.839   0.001   5.783 -0.4985  0.7030  0.4014
   78MOL   C19315747   3.978   7.598   5.798  0.3411 -0.2165 -0.0367
   78MOL   C19415748   4.068   7.652   5.905  0.2633 -0.2197 -1.0361
   78MOL   O19515749   4.029   0.076   5.991 -0.1740 -0.1357 -0.4708
   78MOL   N19615750   4.199   7.626   5.892 -0.4637  0.0180 -0.5525
   78MOL   H19715751   3.865   0.106   5.771  1.9279 -0.0324 -1.1833
   78MOL   H19815752   3.777   7.640   5.694 -0.1679  1.4140  0.0242
   78MOL   H19915753   3.972   7.489   5.798 -0.3312 -0.2242  2.6488
   78MOL   H20015754   4.275   0.013   5.942 -2.0225  2.8121 -0.5464
   78MOL   H20115755   4.218   7.568   5.812  0.7046 -0.4356  0.0487
   78MOL   H20215756   4.027   7.621   5.704 -1.6311  0.6963 -0.8643
   79MOL     C115757   3.039   3.147   6.932  1.1540 -0.7816  0.0078
   79MOL     C215758   3.178   3.200   6.889 -1.0510 -0.1068  0.5017
   79MOL     C315759   3.235   3.124   6.768  0.3926  0.4512 -0.2445
   79MOL     O415760   3.206   3.008   6.748  0.0385 -0.3262  0.1288
   79MOL     N515761   3.321   3.191   6.686 -0.0014  0.6993  0.2231
   79MOL     H615762   2.974   3.232   6.951  0.8005 -0.8189 -0.9755
   79MOL     H715763   2.988   3.095   6.851 -0.3357 -0.9821  1.0552
   79MOL     H815764   3.174   3.307   6.870 -0.6422  0.2490  2.3230
   79MOL     H915765   3.366   3.142   6.610 -2.6370  0.8169 -1.4901
   79MOL    H1015766   3.360   3.279   6.717  1.0892 -0.4771  2.3078
   79MOL    H1115767   3.039   3.076   7.014  0.9455 -0.1913  0.5226
   79MOL    C1215768   3.268   3.181   7.010 -0.8917  0.1288 -0.3863
   79MOL    C1315769   3.295   3.031   7.054 -0.4014 -0.4575  0.9507
   79MOL    C1415770   3.258   3.025   7.201 -0.0974 -0.3996 -0.9419
   79MOL    O1515771   3.319   3.091   7.289  0.4338  0.5197  0.1076
   79MOL    N1615772   3.159   2.946   7.235  0.0536  0.0627 -0.1511
   79MOL    H1715773   3.234   3.245   7.091  1.1072  1.1200 -0.2872
   79MOL    H1815774   3.357   3.239   6.986 -1.5410  0.8359 -1.1396
   79MOL    H1915775   3.236   2.955   7.002  0.2776 -1.3205  1.4322
   79MOL    H2015776   3.111   2.884   7.172 -2.5736  1.5703  0.2855
   79MOL    H2115777   3.125   2.959   7.329 -1.4893  0.1625 -0.7106
   79MOL    C2215778   3.440   3.000   7.024  0.5973  0.5088 -0.0629
   79MOL    C2315779   3.503   2.864   7.063  0.2133 -0.2321  0.1468
   79MOL    C2415780   3.643   2.897   7.110  0.2069 -0.1880 -0.1783
   79MOL    O2515781   3.727   2.924   7.026  0.0997 -0.0641  0.0292
   79MOL    N2615782   3.676   2.901   7.237  0.8422 -0.6155  0.0181
   79MOL    H2715783   3.490   3.089   7.063  1.8732  0.0220 -0.5843
   79MOL    H2815784   3.465   3.009   6.919  1.0992 -0.7017 -0.0478
   79MOL    H2915785   3.461   2.826   7.156 -2.0086  4.3014  1.1328
   79MOL    H3015786   3.609   2.860   7.300 -0.2442  0.6427 -0.2993
   79MOL    H3115787   3.772   2.902   7.270  1.3678  0.0007 -1.4664
   79MOL    C3215788   3.509   2.757   6.956 -0.2200  0.5143  0.0088
   79MOL    C3315789   3.397   2.653   6.933 -0.3198  0.2183 -0.3133
   79MOL    C3415790   3.270   2.663   7.014  0.4043 -0.1871 -0.4085
   79MOL    O3515791   3.277   2.691   7.135  0.1118  0.0906  0.1071
   79MOL    N3615792   3.153   2.638   6.947 -0.2221 -0.6851  0.2159
   79MOL    H3715793   3.603   2.702   6.953 -1.2205 -1.2391 -0.0775
   79MOL    H3815794   3.534   2.812   6.865  0.5152  1.2760  0.6628
   79MOL    H3915795   3.368   2.671   6.830 -1.6746  0.8783  0.1711
   79MOL    H4015796   3.075   2.621   7.008 -1.3243  2.8296 -0.1498
   79MOL    H4115797   3.150   2.606   6.851  0.4942 -1.0611  0.3143
   79MOL    C4215798   3.447   2.507   6.932  0.3682 -0.2207  0.8241
   79MOL    C4315799   3.522   2.456   7.062 -0.0229 -0.5715  0.2394
   79MOL    C4415800   3.672   2.443   7.049  0.1586 -0.1589  0.3004
   79MOL    O4515801   3.719   2.354   6.977 -0.1449 -0.0684  0.3915
   79MOL    N4615802   3.753   2.524   7.112 -0.0641  0.0977 -0.5056
   79MOL    H4715803   3.522   2.496   6.854  0.2500  1.5142  0.4603
   79MOL    H4815804   3.372   2.436   6.896 -1.0611  1.8718 -0.3850
   79MOL    H4915805   3.486   2.524   7.140 -5.8387 -1.7211 -1.2344
   79MOL    H5015806   3.852   2.502   7.108 -0.1635 -0.1654 -1.9756
   79MOL    H5115807   3.705   2.564   7.191 -1.8320 -0.8594 -1.0630
   79MOL    C5215808   3.463   2.317   7.110  0.1831 -0.4162 -0.2290
   79MOL    C5315809   3.325   2.320   7.180 -0.1972 -0.1326  0.0334
   79MOL    C5415810   3.308   2.211   7.288 -0.3361  0.5858  0.3044
   79MOL    O5515811   3.392   2.124   7.306  1.2514  0.0048 -0.3257
   79MOL    N5615812   3.199   2.222   7.363  0.2603 -0.0746 -0.3014
   79MOL    H5715813   3.538   2.267   7.171  0.7313  0.8171  0.1188
   79MOL    H5815814   3.451   2.243   7.030  0.4415 -0.9682  0.2376
   79MOL    H5915815   3.325   2.414   7.236  0.8299 -0.7353  1.0751
   79MOL    H6015816   3.134   2.299   7.361  0.0963 -0.1943  0.4588
   79MOL    H6115817   3.185   2.158   7.439  1.8537  0.7683  0.7394
   79MOL    C6215818   3.201   2.331   7.089 -0.4067 -0.6336 -0.4199
   79MOL    C6315819   3.164   2.210   7.010  0.2120  0.1559  0.2498
   79MOL    C6415820   3.154   2.238   6.854 -0.6120 -0.5242  0.6357
   79MOL    O6515821   3.230   2.190   6.773 -0.2708 -1.2065  0.1013
   79MOL    N6615822   3.055   2.322   6.811  0.5488  0.7231 -0.2737
   79MOL    H6715823   3.206   2.416   7.021  0.3524 -1.2913 -1.1847
   79MOL    H6815824   3.113   2.373   7.138 -0.3880 -0.3332 -0.6401
   79MOL    H6915825   3.246   2.138   7.012 -1.3076 -1.7661 -2.3270
   79MOL    H7015826   3.034   2.320   6.712 -1.3246 -0.4092  0.1294
   79MOL    H7115827   2.994   2.364   6.880 -0.3349  0.2777 -0.7774
   79MOL    C7215828   3.035   2.146   7.061  0.2058  0.4099  0.4279
   79MOL    C7315829   3.015   2.007   7.001  0.0795 -0.0285 -0.3790
   79MOL    C7415830   2.878   1.996   6.932  0.0202  0.5042  0.8912
   79MOL    O7515831   2.776   2.034   6.982  0.5385 -0.2337 -0.4972
   79MOL    N7615832   2.888   1.928   6.816  1.0448  0.3859  0.2625
   79MOL    H7715833   2.948   2.204   7.030 -0.0995 -1.4280 -2.2048
   79MOL    H7815834   3.043   2.135   7.170  0.8916  0.5220  0.3890
   79MOL    H7915835   3.094   1.992   6.929  0.7979  0.7129  0.2399
   79MOL    H8015836   2.812   1.935   6.750  1.5249 -1.8257 -0.5619
   79MOL    H8115837   2.975   1.888   6.785  1.9623 -0.0784  3.2270
   79MOL    C8215838   3.012   1.885   7.106 -0.0009  0.1338 -0.9233
   79MOL    C8315839   3.139   1.870   7.198  0.0612  0.2414  0.9687
   79MOL    C8415840   3.266   1.843   7.119 -0.2361 -0.3789  0.0109
   79MOL    O8515841   3.264   1.789   7.014 -0.3189 -0.1146 -0.1885
   79MOL    N8615842   3.389   1.880   7.166 -0.3071 -0.2213 -0.3669
   79MOL    H8715843   2.994   1.800   7.040 -3.5950 -0.1068  0.2440
   79MOL    H8815844   2.934   1.894   7.182 -0.1238  1.4671 -1.1989
   79MOL    H8915845   3.149   1.969   7.243 -1.5046  1.6056 -1.5952
   79MOL    H9015846   3.465   1.853   7.105 -1.4456  0.1963 -2.0120
   79MOL    H9115847   3.400   1.950   7.238  0.0479 -0.5522 -0.0964
   79MOL    C9215848   3.106   1.760   7.302 -0.5880 -0.1118  0.2485
   79MOL    C9315849   3.097   1.799   7.451 -0.1452  0.0267  0.3608
   79MOL    C9415850   3.226   1.877   7.488  0.1400  0.2161 -0.7927
   79MOL    O9515851   3.342   1.830   7.466 -0.0312  0.0956  0.2452
   79MOL    N9615852   3.203   1.989   7.551  0.0762  0.2348 -0.4775
   79MOL    H9715853   3.186   1.686   7.296 -1.5044 -1.0217 -0.9759
   79MOL    H9815854   3.019   1.701   7.273 -1.7782  0.6315  2.2302
   79MOL    H9915855   3.014   1.866   7.474 -0.4040  0.0136 -0.5267
   79MOL   H10015856   3.281   2.039   7.592 -1.7973  1.8588  1.2262
   79MOL   H10115857   3.110   2.021   7.572  0.1735  0.6722 -0.7057
   79MOL   C10215858   3.083   1.669   7.536 -0.0364 -0.1448 -0.0437
   79MOL   C10315859   2.944   1.659   7.612  0.2216  0.5573 -0.2023
   79MOL   C10415860   2.954   1.551   0.058 -0.3755  0.1873  0.3650
   79MOL   O10515861   2.918   1.439   0.022  0.3504 -0.1597 -0.3210
   79MOL   N10615862   2.991   1.569   0.186  0.5444 -0.5798  0.2684
   79MOL   H10715863   3.167   1.673   7.606  0.4492  1.5631 -0.6944
   79MOL   H10815864   3.098   1.579   7.477 -0.8386  0.9513 -1.9366
   79MOL   H10915865   2.922   1.747   0.015  0.1137  1.2548 -1.2420
   79MOL   H11015866   3.005   1.481   0.233  1.2527  0.4132  1.9863
   79MOL   H11115867   2.998   1.665   0.216 -0.4226 -0.6778  0.8364
   79MOL   C11215868   2.830   1.642   7.513 -0.6901  0.9110 -0.0769
   79MOL   C11315869   2.686   1.607   7.559  0.2934  1.0500  1.0033
   79MOL   C11415870   2.582   1.631   7.444 -0.3392  0.0114 -0.8274
   79MOL   O11515871   2.621   1.654   7.333  0.2036  0.5866  0.4970
   79MOL   N11615872   2.452   1.619   7.469  0.4383 -0.0268  0.1022
   79MOL   H11715873   2.860   1.566   7.442 -0.9910 -1.3355  2.1301
   79MOL   H11815874   2.823   1.728   7.446 -0.8093  1.5382  0.7246
   79MOL   H11915875   2.680   1.502   7.588 -2.2128  0.6395 -0.8283
   79MOL   H12015876   2.424   1.618   7.566  0.4167 -0.1622  0.0934
   79MOL   H12115877   2.393   1.634   7.388 -0.7499 -0.1149  0.9462
   79MOL   C12215878   2.648   1.700   0.016  0.0339 -0.0603 -0.2828
   79MOL   C12315879   2.622   1.630   0.150  0.0501  0.2275  0.0523
   79MOL   C12415880   2.500   1.547   0.160 -0.1164 -0.4330  1.2735
   79MOL   O12515881   2.394   1.581   0.118 -0.6441 -0.3313 -0.6454
   79MOL   N12615882   2.510   1.428   0.224  0.3103  0.1133  0.0408
   79MOL   H12715883   2.556   1.755   7.652  0.3171 -0.3925 -2.4870
   79MOL   H12815884   2.723   1.779   0.012  0.5766 -0.3574  2.7240
   79MOL   H12915885   2.708   1.564   0.157 -0.9583 -1.1560 -0.4366
   79MOL   H13015886   2.425   1.373   0.229 -2.0694  3.1630 -3.4709
   79MOL   H13115887   2.597   1.391   0.259 -0.2374 -1.6414 -0.3764
   79MOL   C13215888   2.628   1.742   0.268 -0.1343 -0.2720  0.8531
   79MOL   C13315889   2.659   1.699   0.413 -1.2610 -0.2962 -0.3675
   79MOL   C13415890   2.540   1.649   0.490  0.1405  0.4451  0.1695
   79MOL   O13515891   2.443   1.718   0.514 -0.0443  0.1290  0.3831
   79MOL   N13615892   2.541   1.530   0.542  0.8525  0.1395  0.4228
   79MOL   H13715893   2.528   1.779   0.247 -0.4861 -2.4425 -1.5559
   79MOL   H13815894   2.698   1.814   0.225 -0.6971 -0.4049 -0.3270
   79MOL   H13915895   2.723   1.612   0.406 -0.7503 -0.0843  1.4234
   79MOL   H14015896   2.625   1.475   0.534  0.4711 -0.6883  1.8715
   79MOL   H14115897   2.465   1.512   0.605  0.2335  0.5879 -0.1912
   79MOL   C14215898   2.746   1.811   0.489  1.0593 -0.4448  0.6923
   79MOL   C14315899   2.863   1.765   0.586 -0.5255  0.3537 -0.2905
   79MOL   C14415900   2.804   1.705   0.717  0.7803  0.0759  0.0168
   79MOL   O14515901   2.706   1.748   0.772 -0.4148 -0.1934  0.4104
   79MOL   N14615902   2.845   1.583   0.753  0.2790  0.8148  0.2508
   79MOL   H14715903   2.677   1.880   0.538  0.1397 -0.6173 -0.3428
   79MOL   H14815904   2.789   1.879   0.416  0.0541 -0.7843 -0.2320
   79MOL   H14915905   2.925   1.689   0.538  0.1818  2.0770 -2.1732
   79MOL   H15015906   2.929   1.549   0.709  0.2129  1.2273 -0.1998
   79MOL   H15115907   2.785   1.532   0.816  1.4186 -0.8326  0.0396
   79MOL   C15215908   2.954   1.879   0.621 -0.5575 -0.3472 -0.3347
   79MOL   C15315909   3.075   1.899   0.516 -0.6425 -0.2618 -0.1069
   79MOL   C15415910   3.028   1.963   0.384 -0.0999 -0.2975  0.1209
   79MOL   O15515911   2.997   1.907   0.280 -0.4138  0.4370  0.0696
   79MOL   N15615912   3.043   2.101   0.375 -0.1094 -0.3475 -0.2152
   79MOL   H15715913   3.002   1.862   0.718 -2.5527 -0.5311  0.6615
   79MOL   H15815914   2.900   1.974   0.630  2.5720  1.5150 -0.6691
   79MOL   H15915915   3.144   1.971   0.560 -0.8963 -1.0795  1.7060
   79MOL   H16015916   3.086   2.155   0.449 -0.8224 -0.4436  0.2780
   79MOL   H16115917   3.018   2.144   0.287  0.5421 -0.0488 -0.2598
   79MOL   C16215918   3.159   1.775   0.488 -0.2238  0.5103  0.1573
   79MOL   C16315919   3.298   1.800   0.426 -0.1800 -0.0437  0.2279
   79MOL   C16415920   3.319   1.723   0.298  0.0788 -0.2303  0.4200
   79MOL   O16515921   3.409   1.644   0.289  0.1990  0.7262 -0.6717
   79MOL   N16615922   3.246   1.759   0.192 -0.2222  0.1355 -0.5157
   79MOL   H16715923   3.107   1.702   0.426  1.7779 -2.0798  1.3837
   79MOL   H16815924   3.174   1.714   0.578 -1.3180  0.2488  0.1658
   79MOL   H16915925   3.312   1.903   0.396 -4.0861  0.0061 -1.7188
   79MOL   H17015926   3.253   1.695   0.114 -2.3703 -0.3705 -0.3217
   79MOL   H17115927   3.179   1.834   0.197  0.2283  0.4050  2.3662
   79MOL   C17215928   3.419   1.780   0.529  0.1736 -0.5921 -0.1816
   79MOL   C17315929   3.445   1.872   0.644  0.1272  0.3407  0.4627
   79MOL   C17415930   3.479   2.010   0.596 -0.1952  0.2511  0.1058
   79MOL   O17515931   3.571   2.032   0.523  0.5196  0.0667  0.0410
   79MOL   N17615932   3.402   2.105   0.631 -0.0063  0.1803  0.4007
   79MOL   H17715933   3.516   1.777   0.478  0.8971 -0.0644  1.1206
   79MOL   H17815934   3.409   1.681   0.575  0.1559  0.1157  1.3984
   79MOL   H17915935   3.350   1.871   0.697 -1.4365 -0.6601 -2.2452
   79MOL   H18015936   3.343   2.094   0.711  1.6836  1.0528  1.8134
   79MOL   H18115937   3.436   2.197   0.605  0.3172  0.6808  2.5126
   79MOL   C18215938   3.549   1.812   0.746 -0.9760  0.4162  0.4069
   79MOL   C18315939   3.545   1.882   0.885  0.2980  0.4750  0.1600
   79MOL   C18415940   3.640   1.832   0.986  0.1624 -0.0345 -0.9201
   79MOL   O18515941   3.668   1.712   0.988 -0.0639  0.5235  0.0195
   79MOL   N18615942   3.686   1.914   1.076 -0.6200 -0.1778  0.3130
   79MOL   H18715943   3.649   1.818   0.701 -1.7805 -0.1051 -1.4923
   79MOL   H18815944   3.534   1.704   0.748 -3.3893  0.7272 -0.0586
   79MOL   H18915945   3.567   1.988   0.872  1.2103  0.1221 -1.1866
   79MOL   H19015946   3.729   1.877   1.159 -0.4024  2.2948  1.3231
   79MOL   H19115947   3.666   2.012   1.065  0.9192  0.2364  1.1621
   79MOL   C19215948   3.400   1.878   0.952 -0.4089 -0.5257 -0.3956
   79MOL   C19315949   3.352   1.739   0.982  0.1920  0.3051 -0.4436
   79MOL   C19415950   3.233   1.734   1.075 -0.1503 -0.1922  1.2407
   79MOL   O19515951   3.140   1.805   1.054 -0.1232  0.1679  0.0435
   79MOL   N19615952   3.245   1.655   1.181 -0.0846 -0.3036  0.3955
   79MOL   H19715953   3.330   1.948   0.907 -0.6571  0.6041  1.6484
   79MOL   H19815954   3.411   1.925   1.050  0.3018 -0.9025 -0.2859
   79MOL   H19915955   3.306   1.680   0.904  0.4486  0.1428 -0.4726
   79MOL   H20015956   3.175   1.653   1.254 -0.7591 -2.0388 -0.2674
   79MOL   H20115957   3.321   1.589   1.188 -0.9449 -1.2514  1.0977
   79MOL   H20215958   3.435   1.679   1.019 -0.0411  0.1114 -0.2341
   80MOL     C115959   2.040   5.742   4.105  0.2634 -0.6818  0.0818
   80MOL     C215960   2.026   5.614   4.018 -0.4259  0.3149  0.0125
   80MOL     C315961   1.964   5.489   4.088 -0.1396  0.9348  0.0363
   80MOL     O415962   1.970   5.482   4.211  0.1154 -0.0338 -0.3695
   80MOL     N515963   1.909   5.395   4.013  0.3724  0.1518 -0.4091
   80MOL     H615964   1.942   5.775   4.142 -0.8794 -1.2535 -2.3505
   80MOL     H715965   2.111   5.723   4.186  1.4905 -1.9486 -1.2697
   80MOL     H815966   1.957   5.641   3.938 -0.5204  0.2415  0.0677
   80MOL     H915967   1.851   5.327   4.060  0.4800  0.7443  0.5798
   80MOL    H1015968   1.908   5.406   3.912 -0.7321 -0.4730 -0.4779
   80MOL    H1115969   2.065   5.821   4.035  1.8380 -0.3886  0.9676
   80MOL    C1215970   2.159   5.563   3.959  0.2524  0.2557 -0.0655
   80MOL    C1315971   2.178   5.586   3.807  0.0795  0.8617  0.2825
   80MOL    C1415972   2.060   5.540   3.723 -0.5502 -0.1622  0.6999
   80MOL    O1515973   1.982   5.460   3.770  0.4098  0.1487  0.2513
   80MOL    N1615974   2.050   5.582   3.597  0.7800 -0.2677 -0.3568
   80MOL    H1715975   2.178   5.458   3.980  0.9742  0.7486  1.9188
   80MOL    H1815976   2.234   5.626   4.008 -0.7596  0.5689  1.1252
   80MOL    H1915977   2.196   5.693   3.793 -0.0385  0.8282 -0.1460
   80MOL    H2015978   1.977   5.554   3.534  0.4246  1.5576 -0.7830
   80MOL    H2115979   2.121   5.642   3.557 -0.4393  2.3575  1.2217
   80MOL    C2215980   2.318   5.535   3.761 -0.4139  0.1320 -0.2462
   80MOL    C2315981   2.336   5.387   3.702  0.4691  0.5442 -0.1118
   80MOL    C2415982   2.384   5.297   3.812 -0.6472 -0.3401  0.1553
   80MOL    O2515983   2.502   5.313   3.853 -0.1988  0.0800  0.2132
   80MOL    N2615984   2.299   5.212   3.875  0.4860 -0.1125  0.4396
   80MOL    H2715985   2.397   5.546   3.835  0.8887  0.1682 -1.6405
   80MOL    H2815986   2.342   5.602   3.678  1.2103 -0.2638 -0.0958
   80MOL    H2915987   2.241   5.340   3.676  0.8737 -1.2053  1.4843
   80MOL    H3015988   2.318   5.174   3.967 -0.7741 -0.4022  0.5905
   80MOL    H3115989   2.209   5.196   3.832  0.8890  0.6942 -0.6952
   80MOL    C3215990   2.421   5.393   3.576  1.0562  0.2659 -0.3508
   80MOL    C3315991   2.411   5.285   3.477  0.2023  0.1201  0.0965
   80MOL    C3415992   2.274   5.290   3.401 -1.0502 -0.0942  0.8217
   80MOL    O3515993   2.166   5.251   3.450 -0.2830 -0.1222  0.0317
   80MOL    N3615994   2.268   5.351   3.279 -0.6405 -0.4432  0.0624
   80MOL    H3715995   2.527   5.397   3.600  0.8458 -0.6676  0.8051
   80MOL    H3815996   2.399   5.483   3.520 -1.3434  0.1069  0.2709
   80MOL    H3915997   2.478   5.306   3.393 -0.9526  0.4127 -0.7655
   80MOL    H4015998   2.351   5.393   3.239 -0.2797 -0.1110  1.1651
   80MOL    H4115999   2.175   5.383   3.252 -1.2642 -0.5927  2.0014
   80MOL    C4216000   2.460   5.148   3.534  0.4892  0.6243 -0.3405
   80MOL    C4316001   2.443   5.023   3.438 -1.2910 -0.1830 -0.2283
   80MOL    C4416002   2.453   4.905   3.526  0.3381 -0.0409 -0.4378
   80MOL    O4516003   2.360   4.827   3.556 -0.5459 -0.1739  0.5531
   80MOL    N4616004   2.577   4.877   3.565 -0.5775 -0.2898  0.3428
   80MOL    H4716005   2.400   5.130   3.623  2.1484  2.6131  1.2458
   80MOL    H4816006   2.557   5.166   3.580 -0.2477  0.9282  1.1174
   80MOL    H4916007   2.346   5.012   3.390 -3.2936  1.2161  3.2879
   80MOL    H5016008   2.656   4.937   3.546  1.0110 -1.2052  3.6663
   80MOL    H5116009   2.594   4.798   3.625 -1.1173  0.2208  1.1874
   80MOL    C5216010   2.545   5.016   3.319 -0.5802  0.0076  0.6575
   80MOL    C5316011   2.489   5.048   3.175 -0.1622  0.1344  0.0132
   80MOL    C5416012   2.389   4.942   3.137  1.0222  0.1253 -0.3829
   80MOL    O5516013   2.422   4.825   3.141 -0.6343 -0.0638  0.6353
   80MOL    N5616014   2.271   4.979   3.094 -0.1065  0.0909 -0.0796
   80MOL    H5716015   2.589   4.917   3.309  0.8078  0.6287  0.4279
   80MOL    H5816016   2.630   5.082   3.335 -1.2714  0.9146  0.6047
   80MOL    H5916017   2.433   5.141   3.189  2.9526  2.0923 -0.0265
   80MOL    H6016018   2.255   5.078   3.082 -0.5569 -0.2751 -2.9957
   80MOL    H6116019   2.217   4.910   3.043 -3.9617  2.9818 -0.1888
   80MOL    C6216020   2.596   5.061   3.058 -0.5412 -0.4561 -0.2722
   80MOL    C6316021   2.653   5.210   3.033 -0.2296  0.4283  0.2416
   80MOL    C6416022   2.551   5.317   3.009 -0.0949  0.0049  0.6409
   80MOL    O6516023   2.436   5.291   2.976  0.8577  0.4906  0.1759
   80MOL    N6616024   2.592   5.446   3.015  0.1925  0.3581 -0.1065
   80MOL    H6716025   2.544   5.038   2.965 -1.3365 -1.2110  0.3549
   80MOL    H6816026   2.675   4.988   3.077 -0.8642 -0.6949  0.1539
   80MOL    H6916027   2.693   5.240   3.130  1.4300  0.3573 -0.4176
   80MOL    H7016028   2.532   5.525   2.996 -0.5998  0.1354  1.3688
   80MOL    H7116029   2.688   5.457   3.044  0.5996 -0.5775 -1.0713
   80MOL    C7216030   2.773   5.203   2.933  0.3293 -0.1780 -0.7690
   80MOL    C7316031   2.748   5.231   2.779 -0.1215 -0.3743  0.7500
   80MOL    C7416032   2.647   5.134   2.723  0.3055  0.0685 -0.4394
   80MOL    O7516033   2.673   5.021   2.683 -0.2152 -0.1426 -0.3942
   80MOL    N7616034   2.517   5.161   2.736 -0.3820  0.0118  0.4977
   80MOL    H7716035   2.820   5.108   2.956  0.0208 -0.2359 -0.3828
   80MOL    H7816036   2.852   5.270   2.967 -0.4222 -0.8027  2.3082
   80MOL    H7916037   2.706   5.331   2.765 -0.8539 -0.7029  0.5791
   80MOL    H8016038   2.485   5.236   2.797  2.1604  1.3847  0.2579
   80MOL    H8116039   2.445   5.094   2.718 -1.8038  1.8953 -1.1087
   80MOL    C8216040   2.868   5.212   2.684  0.0321 -0.5905  0.0422
   80MOL    C8316041   2.848   5.248   2.537  0.1396  0.4450 -0.7731
   80MOL    C8416042   2.962   5.186   2.448  0.4396 -0.2576 -0.3489
   80MOL    O8516043   3.057   5.260   2.433  0.1558 -0.0625  0.3660
   80MOL    N8616044   2.953   5.062   2.392 -0.3167 -0.6462  0.1946
   80MOL    H8716045   2.907   5.110   2.693 -0.4449 -0.4546  4.6363
   80MOL    H8816046   2.951   5.273   2.720  0.7716 -1.4254 -0.2219
   80MOL    H8916047   2.766   5.182   2.508 -0.0439 -0.2818  1.3052
   80MOL    H9016048   2.864   5.016   2.405  0.0878 -1.9501 -1.5679
   80MOL    H9116049   3.011   5.026   2.317 -1.5873 -0.1951 -1.0148
   80MOL    C9216050   2.821   5.389   2.512 -0.5042 -0.1241 -0.2206
   80MOL    C9316051   2.800   5.429   2.353 -0.3655  0.5249 -0.4861
   80MOL    C9416052   2.765   5.572   2.347  0.3550  0.0560 -0.1977
   80MOL    O9516053   2.713   5.625   2.445  0.2398  0.0256  0.2242
   80MOL    N9616054   2.798   5.637   2.237  0.0159  0.2217 -0.0050
   80MOL    H9716055   2.892   5.453   2.565 -1.3388  1.5409 -1.1229
   80MOL    H9816056   2.728   5.414   2.562  0.8436  1.7395  1.4304
   80MOL    H9916057   2.900   5.412   2.312 -0.0756 -0.1264  0.4608
   80MOL   H10016058   2.840   5.579   2.166  1.7042  0.4007  0.8221
   80MOL   H10116059   2.766   5.731   2.215 -0.7592  0.2933  1.3788
   80MOL   C10216060   2.703   5.334   2.282 -0.2248 -0.0692 -1.0358
   80MOL   C10316061   2.552   5.346   2.322  0.3334  0.1809  0.3341
   80MOL   C10416062   2.498   5.202   2.356 -1.0001  0.4244  0.5308
   80MOL   O10516063   2.541   5.105   2.291  0.3200 -0.1486  0.2603
   80MOL   N10616064   2.415   5.185   2.455 -0.8584 -0.0428 -0.1204
   80MOL   H10716065   2.733   5.231   2.304 -0.3724  0.3073  1.0908
   80MOL   H10816066   2.714   5.352   2.176 -1.3228  2.9242 -0.6777
   80MOL   H10916067   2.563   5.394   2.419  1.7876 -0.4366  0.4826
   80MOL   H11016068   2.377   5.264   2.505 -2.0292 -0.9887  0.4774
   80MOL   H11116069   2.390   5.091   2.481  3.0669 -0.9143  0.8664
   80MOL   C11216070   2.476   5.437   2.217  0.0017 -0.4312 -0.2933
   80MOL   C11316071   2.334   5.494   2.253 -0.1324 -0.5638 -0.1498
   80MOL   C11416072   2.328   5.553   2.397  0.2672  0.8455  0.2842
   80MOL   O11516073   2.321   5.489   2.504 -0.6438 -0.8262  0.3707
   80MOL   N11616074   2.321   5.687   2.407 -0.4187 -0.1392 -0.4309
   80MOL   H11716075   2.463   5.386   2.121  0.7835  2.0382 -1.7392
   80MOL   H11816076   2.551   5.511   2.191  1.1039 -1.8793 -1.3257
   80MOL   H11916077   2.319   5.569   2.176  0.0526 -2.3020 -1.9097
   80MOL   H12016078   2.326   5.756   2.333  0.7957  0.6503  0.3806
   80MOL   H12116079   2.300   5.733   2.494 -0.1639  1.8272 -1.3860
   80MOL   C12216080   2.217   5.392   2.235 -0.4050 -0.4852 -0.1347
   80MOL   C12316081   2.078   5.444   2.275  0.0939 -0.4039  0.0236
   80MOL   C12416082   1.976   5.327   2.279  0.0765  0.0622 -0.1063
   80MOL   O12516083   1.934   5.285   2.174 -0.0179 -0.5837 -0.0818
   80MOL   N12616084   1.933   5.280   2.396  0.0172 -0.5253  0.3114
   80MOL   H12716085   2.242   5.314   2.307  1.3365  0.6011  0.4530
   80MOL   H12816086   2.210   5.358   2.131  1.2460 -0.7017 -0.1999
   80MOL   H12916087   2.080   5.491   2.373  1.0858  1.2213 -0.7580
   80MOL   H13016088   1.882   5.193   2.404 -1.0835  0.1630  0.8776
   80MOL   H13116089   1.961   5.325   2.483  1.3151 -0.6256 -0.0425
   80MOL   C13216090   2.031   5.547   2.170  0.8132  0.5606 -0.0770
   80MOL   C13316091   1.930   5.650   2.224  0.2283 -0.2391  0.8204
   80MOL   C13416092   1.842   5.715   2.105  0.1112 -0.9036 -0.3764
   80MOL   O13516093   1.900   5.767   2.006 -0.0526 -0.3376  0.2316
   80MOL   N13616094   1.710   5.710   2.117  0.2280 -0.0571 -0.1114
   80MOL   H13716095   1.974   5.507   2.085  2.1812  2.4474 -1.9417
   80MOL   H13816096   2.115   5.593   2.119  1.2293 -0.8417 -0.6971
   80MOL   H13916097   1.852   5.608   2.288  1.5368 -2.4765  1.0246
   80MOL   H14016098   1.680   5.660   2.200  3.1830  0.6271  1.4368
   80MOL   H14116099   1.650   5.777   2.070 -0.5184  0.0332  0.9360
   80MOL   C14216100   2.006   5.754   2.315 -0.3676  0.2597  0.2836
   80MOL   C14316101   1.927   5.874   2.376 -0.5646  0.3093 -0.1310
   80MOL   C14416102   2.027   5.976   2.436  0.7578  0.9094 -0.2230
   80MOL   O14516103   2.109   5.941   2.524  0.2742  0.1754  0.4954
   80MOL   N14616104   2.010   6.104   2.410 -0.6392 -0.4721  0.0619
   80MOL   H14716105   2.098   5.784   2.265 -0.3089  1.4901  1.1167
   80MOL   H14816106   2.032   5.687   2.397 -0.7653  0.2059  0.3714
   80MOL   H14916107   1.889   5.925   2.288 -1.4986  0.2551  0.2425
   80MOL   H15016108   1.929   6.148   2.370  1.6098  2.9509 -0.9965
   80MOL   H15116109   2.083   6.164   2.444  0.4719 -1.0644 -1.2013
   80MOL   C15216110   1.807   5.833   2.470  0.1190  0.5349 -0.0800
   80MOL   C15316111   1.700   5.942   2.490 -0.7277  0.1989  0.4705
   80MOL   C15416112   1.745   6.034   2.606  0.1108 -0.5500 -0.5703
   80MOL   O15516113   1.778   5.988   2.711 -0.5481 -0.3234 -0.4382
   80MOL   N15616114   1.747   6.168   2.592 -0.2414 -0.5549 -0.5352
   80MOL   H15716115   1.848   5.812   2.569  0.0070  2.0227  0.3029
   80MOL   H15816116   1.770   5.734   2.445  1.0180 -0.1304  1.1520
   80MOL   H15916117   1.682   6.007   2.404 -0.6419 -2.2387 -1.4430
   80MOL   H16016118   1.714   6.216   2.510 -2.0556 -0.8283  0.0171
   80MOL   H16116119   1.759   6.224   2.675 -1.7240  0.0608 -0.7160
   80MOL   C16216120   1.570   5.876   2.538 -0.0174 -0.1353 -0.0405
   80MOL   C16316121   1.444   5.965   2.512  0.5913 -0.6873  0.2442
   80MOL   C16416122   1.336   5.960   2.619  0.1916  0.7265  1.0668
   80MOL   O16516123   1.269   6.064   2.634 -0.2173  0.1020 -0.0009
   80MOL   N16616124   1.307   5.850   2.683 -0.4383 -0.0320 -0.0898
   80MOL   H16716125   1.574   5.858   2.645  0.5830  1.6123  0.2468
   80MOL   H16816126   1.552   5.786   2.479 -0.6604  0.3624 -0.6057
   80MOL   H16916127   1.488   6.062   2.537  3.3818 -1.9709  0.5597
   80MOL   H17016128   1.341   5.761   2.650 -0.6156  0.1035 -0.6518
   80MOL   H17116129   1.237   5.859   2.755 -0.8384 -0.4349 -0.4268
   80MOL   C17216130   1.394   5.962   2.362  0.2149  0.2945  0.2816
   80MOL   C17316131   1.404   6.097   2.297  0.3894  0.5556 -0.1605
   80MOL   C17416132   1.273   6.162   2.290  0.2744  0.1936 -0.1590
   80MOL   O17516133   1.164   6.097   2.282 -0.0953 -0.2148  0.1673
   80MOL   N17616134   1.270   6.295   2.284  0.1741 -0.0096 -0.2229
   80MOL   H17716135   1.294   5.918   2.364  0.3210  0.0815  1.6253
   80MOL   H17816136   1.453   5.894   2.301 -1.1341 -0.9551  0.3455
   80MOL   H17916137   1.479   6.159   2.347  0.0406  0.2307  0.7699
   80MOL   H18016138   1.345   6.347   2.328 -0.4206 -0.5601  1.4974
   80MOL   H18116139   1.182   6.345   2.277  0.4384  0.0468 -4.0240
   80MOL   C18216140   1.472   6.093   2.161 -0.4182 -0.3687  0.2531
   80MOL   C18316141   1.392   6.049   2.037  0.7809 -0.7714 -0.2118
   80MOL   C18416142   1.409   5.896   2.021  0.2009 -0.0976 -0.0158
   80MOL   O18516143   1.514   5.846   1.984  0.0664 -0.0714  0.4306
   80MOL   N18616144   1.308   5.823   2.049 -0.1773 -0.0045 -0.5085
   80MOL   H18716145   1.562   6.033   2.172 -0.4633 -0.7150 -1.1084
   80MOL   H18816146   1.504   6.197   2.152  0.5682 -0.8109 -1.7682
   80MOL   H18916147   1.283   6.060   2.039  0.8583  0.4725 -1.6793
   80MOL   H19016148   1.322   5.724   2.061  0.2949  0.2331  1.0165
   80MOL   H19116149   1.213   5.858   2.048  0.0549  0.6307 -1.3793
   80MOL   C19216150   1.443   6.138   1.924  0.7214  0.8250 -0.2394
   80MOL   C19316151   1.361   6.137   1.788 -0.7614 -0.1350 -0.0878
   80MOL   C19416152   1.443   6.145   1.656  0.4944  0.4120  0.0956
   80MOL   O19516153   1.486   6.250   1.613 -0.1770  0.5124  0.1508
   80MOL   N19616154   1.470   6.035   1.591  0.1068 -0.2751  1.0729
   80MOL   H19716155   1.551   6.119   1.923  0.7188  0.7980 -0.0554
   80MOL   H19816156   1.441   6.243   1.952 -0.9854  0.4465  1.1099
   80MOL   H19916157   1.312   6.039   1.791  2.4249 -1.7419  2.1069
   80MOL   H20016158   1.453   5.943   1.628 -1.3868 -0.0813  0.9346
   80MOL   H20116159   1.506   6.044   1.498 -0.0105  0.7719  1.1240
   80MOL   H20216160   1.282   6.211   1.796  1.0664  1.7430  0.9179
   81MOL     C116161   5.458   0.860   6.507 -0.1850 -0.7377 -0.1844
   81MOL     C216162   5.510   0.754   6.608  0.2521  0.6592  0.0434
   81MOL     C316163   5.647   0.700   6.553  0.5462 -0.2823  0.3102
   81MOL     O416164   5.659   0.643   6.446  0.3305 -0.1798  0.3402
   81MOL     N516165   5.752   0.714   6.632 -0.3541 -0.2982  0.0904
   81MOL     H616166   5.354   0.884   6.530 -0.8628 -3.9281  0.3652
   81MOL     H716167   5.526   0.945   6.511 -1.4302  0.3572 -1.6840
   81MOL     H816168   5.534   0.806   6.700  1.7003  1.9639 -1.0356
   81MOL     H916169   5.756   0.767   6.718  4.2483  0.2217 -0.3078
   81MOL    H1016170   5.831   0.652   6.619 -0.8173 -0.6332 -1.1753
   81MOL    H1116171   5.461   0.820   6.406 -1.3611 -0.6643 -0.2572
   81MOL    C1216172   5.416   0.632   6.616  0.1382  0.5309  0.4749
   81MOL    C1316173   5.442   0.525   6.723 -0.2843  0.1206  0.4005
   81MOL    C1416174   5.450   0.574   6.867  0.0127 -0.5241 -0.1465
   81MOL    O1516175   5.491   0.678   6.898 -0.2674 -0.2265  0.0960
   81MOL    N1616176   5.393   0.498   6.959 -0.1050 -0.2835 -0.2181
   81MOL    H1716177   5.400   0.583   6.520  0.1452  1.1731  0.1450
   81MOL    H1816178   5.317   0.669   6.642  1.0656  1.1685  3.3504
   81MOL    H1916179   5.343   0.481   6.725  0.1588 -1.0375 -1.3347
   81MOL    H2016180   5.394   0.534   7.054 -1.3459  0.0857 -0.3393
   81MOL    H2116181   5.328   0.423   6.943  1.2106 -1.5043  0.0653
   81MOL    C2216182   5.537   0.413   6.681  0.5505  0.0148 -0.4625
   81MOL    C2316183   5.480   0.298   6.600  0.2214 -0.1168 -0.2021
   81MOL    C2416184   5.392   0.205   6.686  0.1411 -1.2916 -0.1292
   81MOL    O2516185   5.426   0.169   6.801 -0.7026  0.2291  0.4069
   81MOL    N2616186   5.282   0.163   6.627 -0.3506  0.2017 -0.0259
   81MOL    H2716187   5.576   0.378   6.776 -0.5964 -1.2796 -0.4537
   81MOL    H2816188   5.619   0.455   6.623  0.0979  1.9696  0.2667
   81MOL    H2916189   5.405   0.336   6.529  1.0386 -0.1168 -1.0772
   81MOL    H3016190   5.231   0.094   6.679  1.5831 -0.8894  0.4724
   81MOL    H3116191   5.263   0.185   6.530  1.2019 -0.5310 -0.5083
   81MOL    C3216192   5.597   0.223   6.525  0.3664 -0.7966  0.6078
   81MOL    C3316193   5.578   0.196   6.373 -0.0399  0.1910 -0.0647
   81MOL    C3416194   5.464   0.098   6.345  0.1261  0.7502 -0.1891
   81MOL    O3516195   5.463   7.638   6.381  0.2776 -0.2313  0.4286
   81MOL    N3616196   5.367   0.137   6.268 -0.0342 -0.2639  0.2895
   81MOL    H3716197   5.605   0.132   6.585 -0.6024 -0.2398  1.6013
   81MOL    H3816198   5.688   0.280   6.543 -1.0891  1.9811 -0.6026
   81MOL    H3916199   5.554   0.296   6.335 -2.0365  0.4389  1.7055
   81MOL    H4016200   5.318   0.064   6.218 -0.1982 -0.6602  1.0172
   81MOL    H4116201   5.380   0.229   6.228 -1.2856  0.6441  1.8564
   81MOL    C4216202   5.705   0.142   6.302 -0.4489  0.2886  0.0529
   81MOL    C4316203   5.695   0.142   6.150 -0.2279  0.1425  0.3457
   81MOL    C4416204   5.823   0.075   6.090 -0.0121 -0.4181  0.1495
   81MOL    O4516205   5.809   7.631   6.022 -0.0725 -0.1249  0.6819
   81MOL    N4616206   5.938   0.131   6.116 -0.1109  0.5514  0.2565
   81MOL    H4716207   5.720   0.035   6.319  2.4630  0.2654 -2.2128
   81MOL    H4816208   5.792   0.202   6.328 -0.8298  0.8771 -0.0257
   81MOL    H4916209   5.607   0.080   6.133  0.4267 -0.6387 -0.2053
   81MOL    H5016210   5.946   0.219   6.165  0.0376  0.6334  0.0879
   81MOL    H5116211   6.017   0.094   6.066 -1.4225  0.4473 -1.7896
   81MOL    C5216212   5.663   0.277   6.081 -0.4685  0.2183 -0.3360
   81MOL    C5316213   5.618   0.269   5.934 -0.6338 -0.1793 -0.2118
   81MOL    C5416214   5.626   0.416   5.883 -0.2865 -0.3859 -0.3860
   81MOL    O5516215   5.536   0.498   5.903 -0.3521  0.7919 -0.2976
   81MOL    N5616216   5.736   0.446   5.826  0.2475  0.0047  0.0049
   81MOL    H5716217   5.758   0.328   6.094 -1.8505  2.4916  1.2053
   81MOL    H5816218   5.587   0.334   6.135 -0.6931 -0.3727 -0.0235
   81MOL    H5916219   5.690   0.207   5.880  1.3090 -1.8678  4.0760
   81MOL    H6016220   5.758   0.544   5.825  0.3709  0.0238  1.7517
   81MOL    H6116221   5.811   0.379   5.826 -0.6699 -1.0551  1.0649
   81MOL    C6216222   5.477   0.211   5.922  0.2556  0.8440 -0.5812
   81MOL    C6316223   5.426   0.197   5.774  0.3626 -0.1336  0.5411
   81MOL    C6416224   5.280   0.141   5.786  0.4560 -0.8721  0.4331
   81MOL    O6516225   5.254   0.027   5.772 -0.5247 -0.0196 -0.2448
   81MOL    N6616226   5.181   0.230   5.792 -0.0441  0.3613 -0.4736
   81MOL    H6716227   5.419   0.270   5.993  2.3718  0.0718  1.8508
   81MOL    H6816228   5.472   0.108   5.957 -0.6581  1.5238  1.3547
   81MOL    H6916229   5.417   0.291   5.721 -0.0912 -1.9480 -2.7031
   81MOL    H7016230   5.087   0.197   5.778 -0.3964  0.5171  1.3552
   81MOL    H7116231   5.188   0.331   5.801 -1.9068  0.3740  1.2211
   81MOL    C7216232   5.518   0.110   5.688 -0.2485  0.1177  0.1560
   81MOL    C7316233   5.614   0.184   5.591 -0.1509 -0.4933  0.3188
   81MOL    C7416234   5.535   0.260   5.484 -0.2666 -0.1654  1.3399
   81MOL    O7516235   5.497   0.210   5.377  0.0772 -0.0075 -0.3749
   81MOL    N7616236   5.515   0.386   5.508  0.1391  0.6358  0.3673
   81MOL    H7716237   5.456   0.036   5.637 -0.3469 -0.9412  1.7604
   81MOL    H7816238   5.580   0.052   5.757  0.8679  1.8138  0.6032
   81MOL    H7916239   5.672   0.255   5.649 -0.5976 -0.5527  0.8416
   81MOL    H8016240   5.462   0.439   5.440  2.1840  1.1352 -0.8654
   81MOL    H8116241   5.576   0.431   5.575  0.3540 -1.5603  1.6910
   81MOL    C8216242   5.715   0.085   5.526 -0.4702  1.0647 -0.3102
   81MOL    C8316243   5.812   0.135   5.419 -0.1264 -0.3606  0.0370
   81MOL    C8416244   5.898   0.017   5.364 -0.3554  0.0443 -0.2286
   81MOL    O8516245   5.960   0.031   5.257 -0.4580 -0.2425 -0.3896
   81MOL    N8616246   5.908   7.564   5.434  0.1876 -0.2789  0.4663
   81MOL    H8716247   5.650   0.023   5.464  1.6776 -1.0937 -0.4639
   81MOL    H8816248   5.761   0.025   5.605 -1.7221 -1.6758 -1.5912
   81MOL    H8916249   5.765   0.185   5.333  0.2504 -1.9105 -1.0941
   81MOL    H9016250   5.852   7.550   5.517  1.3261 -3.0870  0.8180
   81MOL    H9116251   5.975   7.495   5.402 -0.4145 -1.1607  1.0682
   81MOL    C9216252   5.909   0.249   5.470 -0.5688  0.0612  0.1284
   81MOL    C9316253   6.023   0.219   5.573  0.2370 -0.4434 -0.4638
   81MOL    C9416254   5.968   0.166   5.709 -0.3908 -0.1605  0.6976
   81MOL    O9516255   5.918   0.250   5.784  0.7662  0.2783 -0.0518
   81MOL    N9616256   5.982   0.040   5.747 -0.5421 -0.2005 -0.0434
   81MOL    H9716257   5.851   0.332   5.511 -0.0639 -1.5763  4.3791
   81MOL    H9816258   5.950   0.295   5.380 -1.3012 -2.7335 -1.6786
   81MOL    H9916259   6.080   0.137   5.529  0.0365 -0.2003 -1.1720
   81MOL   H10016260   6.028   7.625   5.693  2.6689  1.5766  0.1995
   81MOL   H10116261   5.930   0.016   5.830 -2.4131  1.1439 -0.7646
   81MOL   C10216262   6.114   0.347   5.597  0.0302 -0.2026 -0.2498
   81MOL   C10316263   6.234   0.317   5.680  0.2445  0.2137 -0.7735
   81MOL   C10416264   6.305   0.444   5.739 -0.1720 -0.7553 -0.0449
   81MOL   O10516265   6.258   0.552   5.721  0.1342 -0.4656 -0.3341
   81MOL   N10616266   6.412   0.433   5.813  0.0547  0.0024  0.1402
   81MOL   H10716267   6.046   0.422   5.638  0.2302 -0.4763  0.5893
   81MOL   H10816268   6.145   0.380   5.498 -0.8346 -0.6841 -0.6835
   81MOL   H10916269   6.211   0.248   5.761 -0.2638 -1.0143 -1.9501
   81MOL   H11016270   6.450   0.512   5.863  0.6011  0.3322 -0.7849
   81MOL   H11116271   6.457   0.344   5.818 -2.4770 -1.2901  1.0745
   81MOL   C11216272   6.342   0.248   5.588 -0.0172 -0.8145  0.1028
   81MOL   C11316273   6.396   0.115   5.642  0.0730 -0.0962 -1.0229
   81MOL   C11416274   6.501   0.134   5.754 -0.4037  1.2389  0.0602
   81MOL   O11516275   6.587   0.220   5.756  0.3061  0.8672  0.2038
   81MOL   N11616276   6.500   0.043   5.855 -0.2924 -0.4180  0.6779
   81MOL   H11716277   6.433   0.308   5.579 -0.4737 -0.1550 -0.0737
   81MOL   H11816278   6.298   0.223   5.492 -0.7461 -1.5291  0.6107
   81MOL   H11916279   6.315   0.064   5.695 -0.2123  0.2976 -1.0835
   81MOL   H12016280   6.548   0.081   5.935  2.9264 -0.9819 -0.9156
   81MOL   H12116281   6.412   7.653   5.871  0.7413 -1.8364  2.2552
   81MOL   C12216282   6.456   0.022   5.532  1.1977  0.2018  0.6109
   81MOL   C12316283   6.353   7.579   5.460 -0.1966  0.7345  0.4971
   81MOL   C12416284   6.301   7.491   5.573 -0.5048  0.5807  0.5661
   81MOL   O12516285   6.182   7.492   5.610 -0.4773  0.0450 -0.3642
   81MOL   N12616286   6.385   7.409   5.631 -0.5697  0.1633 -0.1310
   81MOL   H12716287   6.543   7.620   5.562  1.7058  0.5076 -0.2274
   81MOL   H12816288   6.495   0.090   5.456 -0.6539 -1.7991 -2.2016
   81MOL   H12916289   6.276   7.645   5.421 -0.4471  0.8836  1.2342
   81MOL   H13016290   6.349   7.345   5.701  1.4894  0.2230  1.0203
   81MOL   H13116291   6.476   7.393   5.591 -0.1399 -0.1312  0.9453
   81MOL   C13216292   6.433   7.500   5.347  0.1563  0.5310 -0.2745
   81MOL   C13316293   6.342   7.441   5.232 -0.1879  0.4018 -0.1524
   81MOL   C13416294   6.214   7.368   5.267  0.7014  0.3140 -0.1710
   81MOL   O13516295   6.214   7.276   5.346  0.0960  0.2584  0.2952
   81MOL   N13616296   6.102   7.402   5.202  0.1111  0.7159  0.6706
   81MOL   H13716297   6.483   7.417   5.398 -0.7512  0.9635  1.3499
   81MOL   H13816298   6.517   7.553   5.303 -0.1141  0.7278 -0.5460
   81MOL   H13916299   6.308   7.533   5.185  1.3020  2.6740  2.9909
   81MOL   H14016300   6.015   7.357   5.225  0.5421 -0.5413 -0.0923
   81MOL   H14116301   6.089   7.481   5.141 -2.6704 -0.9879 -1.0576
   81MOL   C14216302   6.424   7.369   5.129 -0.1469 -0.1267  0.0010
   81MOL   C14316303   6.508   7.459   5.036  0.6506 -0.0571 -0.1736
   81MOL   C14416304   6.418   7.549   4.943 -0.1349 -0.5815  0.4446
   81MOL   O14516305   6.386   7.520   4.825 -0.3453  0.1097 -0.3013
   81MOL   N14616306   6.364   0.006   4.982 -0.1284  0.3321 -0.2168
   81MOL   H14716307   6.371   7.291   5.073  0.3400  0.5557 -1.4322
   81MOL   H14816308   6.496   7.321   5.195 -0.0555  0.9540  0.6922
   81MOL   H14916309   6.561   7.533   5.097 -1.9966  0.6968  1.2665
   81MOL   H15016310   6.417   0.059   5.050  0.2866 -0.7040  0.2754
   81MOL   H15116311   6.286   0.051   4.937 -0.3456 -4.1931 -4.8351
   81MOL   C15216312   6.618   7.374   4.954  0.1726 -0.7452 -0.7261
   81MOL   C15316313   6.683   7.451   4.837 -0.1078  0.0614  0.0691
   81MOL   C15416314   6.677   7.380   4.699  0.0487 -0.1330 -0.1266
   81MOL   O15516315   6.770   7.321   4.648  0.4354  0.3826  0.5388
   81MOL   N15616316   6.560   7.376   4.635  0.2296  0.5716 -0.3957
   81MOL   H15716317   6.565   7.288   4.911  0.7559 -0.5804 -1.8060
   81MOL   H15816318   6.696   7.352   5.026 -0.9331  2.9531  1.7280
   81MOL   H15916319   6.638   7.549   4.817  0.5036  0.3921  0.2937
   81MOL   H16016320   6.478   7.414   4.682 -2.1727 -0.1418 -3.8229
   81MOL   H16116321   6.542   7.313   4.559 -2.9815  1.0347 -0.0944
   81MOL   C16216322   6.836   7.477   4.873 -0.4056  0.3821 -0.9915
   81MOL   C16316323   6.868   7.576   4.987 -0.2397 -0.2430 -0.6259
   81MOL   C16416324   6.799   0.059   4.978  0.3145  0.0111 -0.2816
   81MOL   O16516325   6.804   0.125   4.873  0.4626 -0.6253  0.0598
   81MOL   N16616326   6.731   0.101   5.089  0.5047  0.0233  0.4478
   81MOL   H16716327   6.884   7.517   4.784  1.0170  0.1729 -0.3304
   81MOL   H16816328   6.875   7.376   4.885  0.0942  0.8724  2.0577
   81MOL   H16916329   6.820   7.534   5.076  3.0985 -1.9268  0.4616
   81MOL   H17016330   6.659   0.172   5.090  0.1404 -0.3054 -1.2965
   81MOL   H17116331   6.754   0.055   5.176  0.8858 -0.5161  0.0600
   81MOL   C17216332   7.022   7.590   5.010  0.4745 -1.2540  0.0035
   81MOL   C17316333   7.084   7.539   5.134 -0.2570  0.7200 -0.1947
   81MOL   C17416334   7.042   7.618   5.264 -0.3691 -0.1206  0.1238
   81MOL   O17516335   7.094   0.068   5.276  0.1569  1.3784  0.2746
   81MOL   N17616336   6.964   7.569   5.359 -0.2458 -0.2246 -0.3969
   81MOL   H17716337   7.044   0.040   5.011 -0.0037 -1.1335  3.2549
   81MOL   H17816338   7.076   7.546   4.926  0.4424  1.0537 -1.2724
   81MOL   H17916339   7.034   7.443   5.147  3.7916 -1.5874 -0.9790
   81MOL   H18016340   6.971   7.618   5.448 -0.6290 -0.1752 -0.3928
   81MOL   H18116341   6.924   7.477   5.356  0.2584 -0.4981  0.9856
   81MOL   C18216342   7.236   7.527   5.122 -0.0827 -0.0213 -0.1737
   81MOL   C18316343   7.305   7.383   5.136  0.7658  0.3234  0.3397
   81MOL   C18416344   7.280   7.308   5.003  0.6779  0.5045  0.2575
   81MOL   O18516345   7.170   7.288   4.950  0.1974 -0.1053 -0.1153
   81MOL   N18616346   7.388   7.262   4.952 -0.0030  0.4055 -0.1094
   81MOL   H18716347   7.283   7.587   5.201 -0.9736 -0.3769  0.6276
   81MOL   H18816348   7.267   7.585   5.035  1.8836  1.8385  1.6853
   81MOL   H18916349   7.411   7.408   5.146  0.9001  1.0183 -2.5453
   81MOL   H19016350   7.475   7.285   4.997 -0.4771 -0.7156  1.4437
   81MOL   H19116351   7.377   7.214   4.863 -0.6619  2.8873 -1.4039
   81MOL   C19216352   7.259   7.301   5.254  0.0479  0.1327  0.3925
   81MOL   C19316353   7.319   7.160   5.267  0.3478 -0.1939  0.0897
   81MOL   C19416354   7.286   7.078   5.398  0.7514  0.3337  0.4398
   81MOL   O19516355   7.343   7.108   5.502 -0.7651  0.5176  1.0016
   81MOL   N19616356   7.191   6.983   5.389  0.1063 -0.2577 -0.1694
   81MOL   H19716357   7.150   7.304   5.250  0.1209  1.9591 -1.5001
   81MOL   H19816358   7.287   7.349   5.348 -3.9568  2.5948  0.4332
   81MOL   H19916359   7.277   7.085   5.199 -0.0199  0.2809 -0.2070
   81MOL   H20016360   7.166   6.908   5.452  0.7953  0.2242  0.7026
   81MOL   H20116361   7.156   6.968   5.296 -1.2674 -1.2168  0.4943
   81MOL   H20216362   7.425   7.164   5.242  0.1310  2.2315 -0.5270
   82MOL     C116363   6.633   4.933   6.155  1.1011 -0.7924 -0.1633
   82MOL     C216364   6.594   4.965   6.009  0.7226  0.1864  0.0362
   82MOL     C316365   6.707   4.931   5.915  0.0649 -0.0595 -0.2428
   82MOL     O416366   6.799   5.011   5.891  0.3398 -0.1482 -0.0934
   82MOL     N516367   6.711   4.810   5.858 -0.4071  0.0317 -0.7656
   82MOL     H616368   6.741   4.942   6.168  1.0552 -2.2805  1.5775
   82MOL     H716369   6.580   4.999   6.224  1.5180  0.4734 -1.0549
   82MOL     H816370   6.513   4.900   5.977 -1.1149  2.4416 -0.0164
   82MOL     H916371   6.627   4.755   5.846 -0.7311  0.1922  0.6601
   82MOL    H1016372   6.785   4.783   5.794  0.9694  1.4782  0.1748
   82MOL    H1116373   6.599   4.839   6.199 -0.5025 -0.3803 -0.5107
   82MOL    C1216374   6.542   5.109   6.008  0.0822  0.1028  0.3459
   82MOL    C1316375   6.502   5.187   5.872 -0.1134  0.7260  0.1063
   82MOL    C1416376   6.447   5.326   5.906  0.3723  0.2398 -0.7470
   82MOL    O1516377   6.411   5.346   6.025  0.0879 -0.3232  0.2536
   82MOL    N1616378   6.443   5.420   5.815  0.3152 -0.4639 -0.2218
   82MOL    H1716379   6.625   5.155   6.063 -0.0003  0.6815 -0.0039
   82MOL    H1816380   6.450   5.108   6.066  0.0713 -0.4123  0.3254
   82MOL    H1916381   6.597   5.215   5.826  0.1301 -0.5351 -0.1660
   82MOL    H2016382   6.394   5.508   5.816  1.6023  0.2705 -1.5097
   82MOL    H2116383   6.457   5.392   5.719 -1.5916 -2.3717  0.0002
   82MOL    C2216384   6.423   5.102   5.759 -0.1287  0.2255 -0.1567
   82MOL    C2316385   6.497   5.083   5.626  0.1520 -0.6061 -0.7420
   82MOL    C2416386   6.532   5.224   5.561 -0.3710  0.6966  1.0477
   82MOL    O2516387   6.453   5.302   5.520 -0.2805 -0.7291 -0.0886
   82MOL    N2616388   6.666   5.257   5.545  0.6045 -0.1423  0.5975
   82MOL    H2716389   6.339   5.164   5.726  0.5476  0.0811 -2.2168
   82MOL    H2816390   6.391   5.007   5.801  0.1031  0.0038 -0.4773
   82MOL    H2916391   6.596   5.049   5.658 -0.3000  0.6147  2.1418
   82MOL    H3016392   6.740   5.194   5.571  1.3288  0.9074  1.1015
   82MOL    H3116393   6.692   5.350   5.516 -0.1847  0.0277  0.4233
   82MOL    C3216394   6.418   4.997   5.527 -0.0969 -0.3617 -0.2356
   82MOL    C3316395   6.424   4.846   5.555  0.1637  0.3938  0.7798
   82MOL    C3416396   6.350   4.777   5.675 -0.2694 -0.4740 -0.0747
   82MOL    O3516397   6.416   4.719   5.764  0.3622 -0.3398 -0.2840
   82MOL    N3616398   6.214   4.775   5.670  0.3593  0.2004 -0.1789
   82MOL    H3716399   6.455   5.012   5.425  0.1693 -1.8573 -0.3704
   82MOL    H3816400   6.312   5.024   5.520  0.2370  1.1420  0.2413
   82MOL    H3916401   6.367   4.810   5.470  0.2942  0.3367  0.7162
   82MOL    H4016402   6.164   4.825   5.598  0.4327  0.1597 -0.2577
   82MOL    H4116403   6.162   4.725   5.742  0.2137  1.6321  0.7301
   82MOL    C4216404   6.570   4.783   5.544 -0.2279  0.0739  0.2260
   82MOL    C4316405   6.655   4.819   5.416 -0.3820 -0.7117 -0.3833
   82MOL    C4416406   6.594   4.757   5.291 -0.3267 -0.6882  0.3545
   82MOL    O4516407   6.550   4.641   5.293  0.3011  0.2140  0.3146
   82MOL    N4616408   6.591   4.836   5.184 -0.1313 -0.4065 -0.0083
   82MOL    H4716409   6.551   4.676   5.554 -2.8859  0.6338  1.4980
   82MOL    H4816410   6.626   4.820   5.630  1.8855 -1.6802 -0.3287
   82MOL    H4916411   6.664   4.928   5.413  1.1321 -0.7941  0.6989
   82MOL    H5016412   6.553   4.797   5.099 -0.5675 -0.8170  0.3686
   82MOL    H5116413   6.647   4.920   5.183 -2.2681  1.0500  0.5336
   82MOL    C5216414   6.806   4.776   5.433 -0.4849 -0.2561 -0.1502
   82MOL    C5316415   6.834   4.625   5.447 -0.2771  0.1664  0.2438
   82MOL    C5416416   6.830   4.567   5.588 -0.3501 -0.0674 -0.4227
   82MOL    O5516417   6.861   4.629   5.692  0.1338 -0.3706 -0.0186
   82MOL    N5616418   6.804   4.434   5.604  0.8177 -0.4688 -0.0624
   82MOL    H5716419   6.858   4.824   5.516 -0.3089  0.4598 -0.6699
   82MOL    H5816420   6.859   4.820   5.349 -0.9526  0.4652 -0.0751
   82MOL    H5916421   6.753   4.569   5.400 -0.8156  1.2392 -0.1133
   82MOL    H6016422   6.798   4.386   5.693 -0.6076 -2.5590 -1.2351
   82MOL    H6116423   6.754   4.385   5.531  1.4749  0.1190 -0.9022
   82MOL    C6216424   6.970   4.597   5.383 -0.1742 -0.0731 -0.1314
   82MOL    C6316425   6.968   4.548   5.238  0.4949  0.4717  0.0399
   82MOL    C6416426   7.082   4.443   5.222 -0.6635 -0.0063  0.0548
   82MOL    O6516427   7.184   4.462   5.160 -0.3564  0.4840  0.0214
   82MOL    N6616428   7.062   4.328   5.288  0.6557  0.3352 -0.4359
   82MOL    H6716429   7.031   4.536   5.451 -0.9902  0.2980  0.9425
   82MOL    H6816430   7.033   4.686   5.388 -0.4126 -0.0310  3.8883
   82MOL    H6916431   6.881   4.491   5.206 -0.5279  2.1592 -0.2132
   82MOL    H7016432   7.146   4.277   5.313  0.4082  0.3341  0.3999
   82MOL    H7116433   6.975   4.310   5.336  1.2394  0.5245  0.6992
   82MOL    C7216434   6.987   4.676   5.146  0.6038 -0.6183 -0.0269
   82MOL    C7316435   7.001   4.638   4.993  0.6997  0.0158 -0.4445
   82MOL    C7416436   6.972   4.772   4.914 -0.1177  0.6377 -0.4238
   82MOL    O7516437   6.857   4.810   4.910 -0.7937  0.4485  0.4587
   82MOL    N7616438   7.072   4.843   4.858  0.1565 -0.2792  0.5451
   82MOL    H7716439   7.072   4.742   5.162  0.7069 -1.3669  2.6900
   82MOL    H7816440   6.894   4.733   5.156  1.3346  0.5161  0.3024
   82MOL    H7916441   7.107   4.615   4.986  0.8976  0.2921  1.2666
   82MOL    H8016442   7.057   4.933   4.816 -1.0610 -0.1545  1.2251
   82MOL    H8116443   7.162   4.798   4.860 -0.6743 -1.9736  1.3368
   82MOL    C8216444   6.902   4.522   4.944 -0.0675  0.2958  0.2739
   82MOL    C8316445   6.922   4.472   4.797 -0.0184 -0.2641 -0.1978
   82MOL    C8416446   6.823   4.532   4.695 -0.3819  0.9089 -0.0070
   82MOL    O8516447   6.700   4.516   4.715 -0.6737 -0.3185 -0.1637
   82MOL    N8616448   6.862   4.613   4.595 -0.1943  0.0465  0.3147
   82MOL    H8716449   6.804   4.569   4.942  0.9453  2.5453  1.9543
   82MOL    H8816450   6.896   4.438   5.013 -2.2786  0.1500 -0.0588
   82MOL    H8916451   7.021   4.504   4.765 -1.0965  1.7531 -1.6436
   82MOL    H9016452   6.784   4.646   4.540  0.1602  0.4341  0.0428
   82MOL    H9116453   6.955   4.648   4.579  0.1599 -0.1893  1.7783
   82MOL    C9216454   6.922   4.316   4.774  0.3995 -0.2258 -0.3070
   82MOL    C9316455   7.027   4.230   4.851  0.7377  0.6861  0.1982
   82MOL    C9416456   7.179   4.260   4.821 -0.9224 -0.2379 -0.3087
   82MOL    O9516457   7.226   4.243   4.709 -0.3784  0.1009 -0.0065
   82MOL    N9616458   7.266   4.302   4.919 -0.2095 -1.3377  0.0676
   82MOL    H9716459   6.917   4.297   4.666  1.2953 -1.4387 -0.1383
   82MOL    H9816460   6.817   4.292   4.793  0.0157  0.6067 -1.3105
   82MOL    H9916461   7.011   4.247   4.957 -0.5397 -2.1313  0.4988
   82MOL   H10016462   7.358   4.331   4.889 -0.0842 -0.8012  0.9584
   82MOL   H10116463   7.237   4.308   5.015 -2.5870 -0.9901 -0.6320
   82MOL   C10216464   7.010   4.074   4.820 -0.1150 -0.8241  0.0183
   82MOL   C10316465   6.871   4.007   4.856 -0.0885 -0.6881  0.3589
   82MOL   C10416466   6.772   3.999   4.742  0.4187 -0.1407 -0.1471
   82MOL   O10516467   6.771   4.080   4.650  0.1724  0.8855  0.3823
   82MOL   N10616468   6.695   3.891   4.730  0.3327 -0.2746 -0.5227
   82MOL   H10716469   7.091   4.017   4.865 -0.2110 -1.4012 -0.5381
   82MOL   H10816470   7.022   4.058   4.713  0.6975 -1.6327  0.2197
   82MOL   H10916471   6.900   3.903   4.871  0.3449 -0.5022  0.8311
   82MOL   H11016472   6.633   3.892   4.650 -0.6243 -1.1278  0.1958
   82MOL   H11116473   6.690   3.823   4.804 -1.7045 -1.8876 -2.0913
   82MOL   C11216474   6.800   4.056   4.980  0.4926  0.1609  0.4247
   82MOL   C11316475   6.864   4.036   5.117  0.0892  0.0203 -0.1295
   82MOL   C11416476   6.977   3.935   5.124 -0.1431 -0.5989 -0.1114
   82MOL   O11516477   6.971   3.814   5.090  0.2049  0.1732 -0.2899
   82MOL   N11616478   7.089   3.999   5.161  0.2910 -0.3869  0.2314
   82MOL   H11716479   6.705   4.004   4.991  0.6209 -0.3772 -0.9764
   82MOL   H11816480   6.775   4.162   4.976 -1.1951 -0.2131  0.7163
   82MOL   H11916481   6.909   4.133   5.139  2.0846 -1.2080  1.2650
   82MOL   H12016482   7.179   3.953   5.152 -0.4994 -1.8016 -0.5442
   82MOL   H12116483   7.091   4.099   5.174 -0.9893 -0.2621 -0.4618
   82MOL   C12216484   6.757   4.029   5.236  0.2668  0.1744 -0.4558
   82MOL   C12316485   6.647   4.129   5.239 -0.6599 -0.0102 -0.1088
   82MOL   C12416486   6.686   4.279   5.263 -0.3336  1.0152  0.1346
   82MOL   O12516487   6.794   4.299   5.321 -0.1390  0.0077 -0.1076
   82MOL   N12616488   6.591   4.372   5.242  0.1735 -0.2120  0.5811
   82MOL   H12716489   6.814   4.023   5.329  1.2340  0.9352 -0.9883
   82MOL   H12816490   6.719   3.927   5.231  1.5502 -0.3746  0.7180
   82MOL   H12916491   6.609   4.127   5.138  0.2721 -0.1859 -0.4647
   82MOL   H13016492   6.603   4.465   5.279  0.2149 -0.3250  0.8593
   82MOL   H13116493   6.509   4.357   5.186  0.8027  0.1240 -0.4426
   82MOL   C13216494   6.521   4.085   5.325  0.7738  0.5552  0.0127
   82MOL   C13316495   6.534   4.104   5.476 -0.4630  0.0993  0.3051
   82MOL   C13416496   6.643   4.021   5.548  0.2765 -0.4586  0.3754
   82MOL   O13516497   6.655   3.900   5.519  0.0447  0.0236  0.0288
   82MOL   N13616498   6.722   4.082   5.639 -0.5343 -0.6560 -0.0617
   82MOL   H13716499   6.507   3.979   5.303  1.6241  0.6823 -1.1571
   82MOL   H13816500   6.440   4.141   5.278  2.2154  0.7230 -2.3548
   82MOL   H13916501   6.563   4.209   5.488 -0.0123  0.1193 -0.8251
   82MOL   H14016502   6.801   4.028   5.671 -0.0805  0.4622  0.7485
   82MOL   H14116503   6.698   4.175   5.671  2.2655  0.3037 -0.6059
   82MOL   C14216504   6.393   4.085   5.540  0.3732 -0.1255  0.0566
   82MOL   C14316505   6.366   4.148   5.686 -0.1079  0.3239  0.2887
   82MOL   C14416506   6.412   4.289   5.695  0.2205  0.3067 -0.2820
   82MOL   O14516507   6.533   4.318   5.694  0.0953  0.6711 -0.3083
   82MOL   N14616508   6.316   4.381   5.725  0.2078  1.3685 -0.4261
   82MOL   H14716509   6.366   3.979   5.543  0.9787 -0.2625  0.8012
   82MOL   H14816510   6.320   4.142   5.482  0.1771 -0.3419  0.0927
   82MOL   H14916511   6.259   4.159   5.703 -0.2832  1.5140 -1.4031
   82MOL   H15016512   6.347   4.475   5.747  2.7037  0.5384 -0.2612
   82MOL   H15116513   6.220   4.351   5.727 -0.6095  3.8426 -0.3439
   82MOL   C15216514   6.430   4.073   5.798 -0.1241  0.3917 -0.0686
   82MOL   C15316515   6.380   3.928   5.815  0.6298  0.3171 -0.6578
   82MOL   C15416516   6.246   3.931   5.900  0.7153 -0.1266  0.7715
   82MOL   O15516517   6.249   3.927   6.022  0.0147 -0.0437  0.1299
   82MOL   N15616518   6.135   3.932   5.835  0.6698 -0.0142  0.1275
   82MOL   H15716519   6.419   4.129   5.891  0.2667  1.9877 -0.9668
   82MOL   H15816520   6.539   4.071   5.789 -0.2418 -1.4107 -1.2535
   82MOL   H15916521   6.353   3.883   5.719 -1.5529  1.1502 -0.4700
   82MOL   H16016522   6.123   3.911   5.737 -0.2905  1.1410 -0.0228
   82MOL   H16116523   6.053   3.950   5.892  1.5814 -2.5708  2.3443
   82MOL   C16216524   6.480   3.828   5.878 -0.0613  0.2388  0.4542
   82MOL   C16316525   6.554   3.873   6.007  0.3968 -0.2105 -0.1906
   82MOL   C16416526   6.697   3.888   5.968  0.1500  0.2777 -0.4580
   82MOL   O16516527   6.754   3.785   5.935  0.7335  0.1186 -0.0033
   82MOL   N16616528   6.753   4.013   5.972  0.3591 -0.4567  0.3017
   82MOL   H16716529   6.545   3.811   5.793  0.3903 -0.1637  0.8755
   82MOL   H16816530   6.432   3.730   5.887  1.9940 -1.3009 -3.9760
   82MOL   H16916531   6.514   3.970   6.037  1.8147  0.9870 -2.0785
   82MOL   H17016532   6.691   4.089   5.996  0.9241 -0.0056  0.3414
   82MOL   H17116533   6.853   4.027   5.966  0.1715  0.4539 -0.6799
   82MOL   C17216534   6.535   3.776   6.129  0.6963  0.3168  0.5717
   82MOL   C17316535   6.523   3.856   6.262  0.1701  1.0309  0.2938
   82MOL   C17416536   6.647   3.939   6.301 -0.0752  0.9835  0.0897
   82MOL   O17516537   6.648   4.063   6.313  0.1800  0.4707  0.6966
   82MOL   N17616538   6.749   3.865   6.336 -0.1386  0.1119 -0.2282
   82MOL   H17716539   6.620   3.710   6.150 -0.5969 -1.6980 -0.3608
   82MOL   H17816540   6.449   3.717   6.099  1.3621  0.4751 -1.7027
   82MOL   H17916541   6.449   3.931   6.235 -0.3138 -0.2810 -2.1964
   82MOL   H18016542   6.829   3.904   6.385 -0.3010 -0.1740  0.2717
   82MOL   H18116543   6.738   3.765   6.347 -2.5354  0.6020  2.3301
   82MOL   C18216544   6.466   3.760   6.369  0.2408  0.0097 -0.0330
   82MOL   C18316545   6.365   3.817   6.471 -0.4094  0.5315 -0.6890
   82MOL   C18416546   6.254   3.910   6.416  0.3230 -0.2910  0.1995
   82MOL   O18516547   6.277   4.020   6.359 -0.4950 -0.0790 -0.1401
   82MOL   N18616548   6.126   3.876   6.428  0.4478  0.3850  0.5532
   82MOL   H18716549   6.548   3.705   6.415 -0.6835  0.0408  1.7181
   82MOL   H18816550   6.407   3.682   6.322 -0.3017 -1.1327  2.4773
   82MOL   H18916551   6.316   3.729   6.513 -3.6522  2.1918 -0.8479
   82MOL   H19016552   6.053   3.925   6.379 -1.8574 -1.9170  1.5704
   82MOL   H19116553   6.094   3.795   6.480 -1.4925  1.7071  1.4409
   82MOL   C19216554   6.448   3.891   6.578 -0.9514 -0.2522 -0.7225
   82MOL   C19316555   6.369   3.966   6.689  0.0790  0.2226 -0.1707
   82MOL   C19416556   6.295   3.873   6.781 -0.0033 -0.2364  0.4753
   82MOL   O19516557   6.355   3.844   6.881 -0.2234  0.2656 -0.1791
   82MOL   N19616558   6.167   3.849   6.752 -0.1772  0.7538 -0.0048
   82MOL   H19716559   6.515   3.967   6.537  2.3018 -3.9119 -2.5633
   82MOL   H19816560   6.511   3.814   6.623 -0.2015  0.1936 -1.0073
   82MOL   H19916561   6.448   4.012   6.748  0.1094 -0.3279  0.2190
   82MOL   H20016562   6.105   3.801   6.815  2.8599 -1.7432  1.1727
   82MOL   H20116563   6.130   3.885   6.665 -1.3672  0.1435  0.2394
   82MOL   H20216564   6.298   4.041   6.653  0.4577 -0.7337 -3.0864
   83MOL     C116565   2.833   2.799   6.927 -0.1307 -0.2254  0.7613
   83MOL     C216566   2.750   2.672   6.960 -0.0975  0.2099 -0.1748
   83MOL     C316567   2.831   2.558   7.039  0.5818  0.1300  0.0631
   83MOL     O416568   2.896   2.483   6.972  0.4048 -0.4589  0.3889
   83MOL     N516569   2.844   2.562   7.169 -0.4677  0.6416 -0.1978
   83MOL     H616570   2.929   2.769   6.884  0.1099  1.0284  0.3958
   83MOL     H716571   2.788   2.861   6.849  0.6973  1.9784  2.0019
   83MOL     H816572   2.667   2.718   7.012 -0.7123 -0.6694 -0.3668
   83MOL     H916573   2.900   2.485   7.202  1.1700  2.2227  0.8036
   83MOL    H1016574   2.810   2.636   7.229  2.4771  0.5039  1.7424
   83MOL    H1116575   2.846   2.864   7.013 -1.1022 -1.3064  1.7576
   83MOL    C1216576   2.692   2.612   6.826 -0.6175 -0.0171  0.3296
   83MOL    C1316577   2.570   2.529   6.817  0.2602  0.0354  0.7128
   83MOL    C1416578   2.589   2.393   6.894 -0.2108  0.0013 -0.0393
   83MOL    O1516579   2.548   2.379   7.008 -0.3828  0.5941 -0.3611
   83MOL    N1616580   2.658   2.290   6.835 -0.3080  0.7618  0.0345
   83MOL    H1716581   2.766   2.563   6.763 -0.6604 -1.7319  1.5571
   83MOL    H1816582   2.671   2.699   6.765  1.3024  0.2616  0.0262
   83MOL    H1916583   2.499   2.591   6.871  0.9672  0.2770  1.3754
   83MOL    H2016584   2.718   2.320   6.759  0.0637  0.7719  0.3289
   83MOL    H2116585   2.688   2.211   6.891 -0.7419  1.7440  1.6731
   83MOL    C2216586   2.527   2.511   6.674  0.0054 -0.2079 -0.2336
   83MOL    C2316587   2.416   2.613   6.621  0.3346  0.4812 -0.3530
   83MOL    C2416588   2.275   2.555   6.646 -0.4746  0.4126  0.9063
   83MOL    O2516589   2.188   2.623   6.708 -0.0003  0.0556 -0.6953
   83MOL    N2616590   2.243   2.433   6.590 -0.5763 -0.6804 -0.4345
   83MOL    H2716591   2.487   2.412   6.655 -1.7364  0.4374 -0.0203
   83MOL    H2816592   2.602   2.514   6.595  0.7696 -0.1659  0.4946
   83MOL    H2916593   2.421   2.698   6.689 -1.9838 -1.3885  2.3358
   83MOL    H3016594   2.320   2.389   6.541  0.9823 -0.3493  1.6278
   83MOL    H3116595   2.158   2.391   6.623  0.9969 -3.5261  0.1823
   83MOL    C3216596   2.442   2.643   6.468 -0.3903 -0.5815 -0.4126
   83MOL    C3316597   2.376   2.767   6.405  0.5253 -0.0928 -0.4861
   83MOL    C3416598   2.379   2.777   6.256 -0.3897 -0.7734 -0.2765
   83MOL    O3516599   2.437   2.697   6.181  0.1623 -0.1376  0.0595
   83MOL    N3616600   2.324   2.885   6.202 -0.3861 -0.3527 -0.1470
   83MOL    H3716601   2.416   2.557   6.407 -1.8841 -0.8919  0.6212
   83MOL    H3816602   2.549   2.653   6.451  0.6102 -3.5687  3.4652
   83MOL    H3916603   2.271   2.764   6.435  0.5714  2.1787 -0.0069
   83MOL    H4016604   2.278   2.963   6.246  0.8776  0.2178  0.2169
   83MOL    H4116605   2.350   2.896   6.105  0.7827 -0.8912  0.0827
   83MOL    C4216606   2.439   2.890   6.468  0.8324  0.1223  0.2797
   83MOL    C4316607   2.337   2.998   6.503 -0.3232  0.0559 -0.2734
   83MOL    C4416608   2.409   3.129   6.531 -0.4232  0.4345 -0.2904
   83MOL    O4516609   2.476   3.140   6.631  0.2122 -0.5705  0.1459
   83MOL    N4616610   2.398   3.236   6.447 -0.1873 -0.4483 -0.5161
   83MOL    H4716611   2.515   2.936   6.404  0.8034  0.3116  0.3812
   83MOL    H4816612   2.491   2.855   6.558 -1.5213 -2.7030  0.5965
   83MOL    H4916613   2.266   3.018   6.422  0.3923  0.6791 -0.7533
   83MOL    H5016614   2.453   3.319   6.468 -0.7755 -0.8477  2.9104
   83MOL    H5116615   2.332   3.242   6.372  0.9943 -0.6417 -1.5859
   83MOL    C5216616   2.246   2.957   6.622 -0.0398  0.4064  0.2849
   83MOL    C5316617   2.148   3.066   6.687  0.0137 -0.1709  0.2978
   83MOL    C5416618   2.050   2.986   6.778 -0.5530 -0.1195 -0.4426
   83MOL    O5516619   1.982   2.895   6.736 -0.8866 -0.3368 -0.3762
   83MOL    N5616620   2.056   3.013   6.913 -0.1661  0.2312 -0.0319
   83MOL    H5716621   2.312   2.921   6.701 -0.9664  0.6640  1.2047
   83MOL    H5816622   2.186   2.867   6.613 -1.6120  1.3138  1.3003
   83MOL    H5916623   2.210   3.139   6.739  1.8850 -0.4623 -1.4439
   83MOL    H6016624   1.982   2.979   6.972 -2.2561 -0.0777 -2.7089
   83MOL    H6116625   2.119   3.086   6.942 -2.6804  1.8453  1.5387
   83MOL    C6216626   2.054   3.141   6.584 -0.5463  0.0339 -0.0881
   83MOL    C6316627   1.969   3.258   6.648  0.9527  0.0753  0.4132
   83MOL    C6416628   1.873   3.314   6.539  0.6740  0.1635 -0.0659
   83MOL    O6516629   1.907   3.404   6.467 -0.2466  0.2424  0.2650
   83MOL    N6616630   1.749   3.261   6.534  0.3758 -0.2086  0.1790
   83MOL    H6716631   1.983   3.070   6.543 -1.4427 -0.6996  2.6386
   83MOL    H6816632   2.118   3.171   6.500  1.2632 -3.2907  0.0051
   83MOL    H6916633   1.902   3.220   6.724 -1.2682  0.5038 -1.2830
   83MOL    H7016634   1.679   3.313   6.484 -0.9736 -1.1576  1.0524
   83MOL    H7116635   1.708   3.200   6.604 -1.4478 -0.1038 -0.7890
   83MOL    C7216636   2.061   3.366   6.703 -0.5256 -0.8026 -0.2359
   83MOL    C7316637   2.069   3.376   6.858 -0.8177  0.1579 -0.4068
   83MOL    C7416638   1.948   3.457   6.914  0.0704 -0.1904 -0.1333
   83MOL    O7516639   1.934   3.574   6.883 -0.0047  0.9025  0.8609
   83MOL    N7616640   1.878   3.397   7.012 -0.3564  0.1370 -0.7797
   83MOL    H7716641   2.037   3.466   6.665 -0.3279 -0.5080  0.4013
   83MOL    H7816642   2.159   3.351   6.658  0.6193  1.3728  1.4105
   83MOL    H7916643   2.056   3.270   6.876 -0.6733 -0.0573 -1.5347
   83MOL    H8016644   1.802   3.446   7.057 -0.8949 -1.3317 -0.0894
   83MOL    H8116645   1.890   3.298   7.021  2.6459  0.5527  0.2749
   83MOL    C8216646   2.196   3.434   6.924 -0.7178  0.5700 -0.3792
   83MOL    C8316647   2.334   3.362   6.887 -0.0906 -0.3950  0.1526
   83MOL    C8416648   2.362   3.231   6.963  0.1831  0.0943 -0.0333
   83MOL    O8516649   2.301   3.202   7.068  0.2637 -0.1143 -0.4597
   83MOL    N8616650   2.429   3.134   6.905 -0.2792 -0.0184 -0.3891
   83MOL    H8716651   2.179   3.435   7.032 -3.1270  2.6640 -0.7461
   83MOL    H8816652   2.215   3.532   6.879  2.2333  0.4544  0.5056
   83MOL    H8916653   2.334   3.347   6.779 -2.7682  1.9466 -0.2332
   83MOL    H9016654   2.426   3.041   6.945 -0.5252 -0.1335 -0.6718
   83MOL    H9116655   2.460   3.151   6.810 -2.1032  0.6113 -0.8811
   83MOL    C9216656   2.452   3.462   6.908 -0.0836  0.3370  0.3473
   83MOL    C9316657   2.441   3.607   6.846  0.1526  0.4026  0.3801
   83MOL    C9416658   2.418   3.605   6.693  0.1749  0.0667 -0.1876
   83MOL    O9516659   2.518   3.599   6.614  0.2494  0.1516 -0.1666
   83MOL    N9616660   2.291   3.619   6.651 -0.3176 -0.4418  0.7067
   83MOL    H9716661   2.540   3.416   6.862  0.3815 -0.1206  1.6591
   83MOL    H9816662   2.495   3.474   7.007  0.7583  2.3429 -0.2297
   83MOL    H9916663   2.363   3.658   6.903 -0.4845 -0.3636  0.1884
   83MOL   H10016664   2.252   3.623   6.558 -0.1112 -0.8474  0.6045
   83MOL   H10116665   2.218   3.634   6.719 -1.1961  1.2245 -0.5405
   83MOL   C10216666   2.572   3.677   6.885  0.9865  0.1438 -0.2515
   83MOL   C10316667   2.586   3.824   6.836  0.4357 -0.0960 -0.8354
   83MOL   C10416668   2.738   3.851   6.828  0.0599 -0.0822 -0.1321
   83MOL   O10516669   2.802   3.868   6.930 -0.1760 -0.1306 -0.0246
   83MOL   N10616670   2.797   3.856   6.706 -0.1545  0.1189  0.6218
   83MOL   H10716671   2.649   3.605   6.858  0.7061 -0.0749 -0.4646
   83MOL   H10816672   2.588   3.677   6.993 -1.6045  1.6518  0.1661
   83MOL   H10916673   2.554   3.827   6.732 -0.5114 -1.0818 -0.5790
   83MOL   H11016674   2.747   3.839   6.620  0.8132  1.2015 -0.1685
   83MOL   H11116675   2.891   3.889   6.691  0.3896 -1.4993  0.3083
   83MOL   C11216676   2.518   3.926   6.929  0.0166  0.5020  0.5833
   83MOL   C11316677   2.483   4.061   6.858 -0.2776 -0.2160 -0.6989
   83MOL   C11416678   2.598   4.164   6.887 -0.5333 -0.0656  0.0221
   83MOL   O11516679   2.685   4.202   6.804 -0.0707  0.2567  0.1350
   83MOL   N11616680   2.598   4.223   7.003 -0.6040 -0.7590 -0.1791
   83MOL   H11716681   2.561   3.941   7.028  0.0236  2.7358  0.2565
   83MOL   H11816682   2.421   3.878   6.944 -0.2990  1.4774  1.7072
   83MOL   H11916683   2.485   4.045   6.751 -0.9297 -1.8749 -0.4872
   83MOL   H12016684   2.667   4.294   7.023 -1.8527  0.1842  0.8244
   83MOL   H12116685   2.520   4.204   7.064  0.6007  1.6452  2.2250
   83MOL   C12216686   2.342   4.114   6.899 -0.0074  0.1267  0.0271
   83MOL   C12316687   2.226   4.040   6.821 -0.0996 -0.3401  0.2650
   83MOL   C12416688   2.218   4.087   6.676 -0.1481  0.0226  1.1436
   83MOL   O12516689   2.206   4.207   6.649 -0.5432  0.2465  0.0864
   83MOL   N12616690   2.217   4.002   6.580 -0.0405 -0.5701 -0.0243
   83MOL   H12716691   2.336   4.218   6.868 -1.0210  0.0993  0.0994
   83MOL   H12816692   2.329   4.110   7.007 -1.4789 -1.6245 -0.1770
   83MOL   H12916693   2.242   3.933   6.830 -0.5904 -0.2430  2.5519
   83MOL   H13016694   2.229   4.036   6.486  1.7933 -3.6548 -0.9808
   83MOL   H13116695   2.206   3.903   6.599 -0.3704 -0.1947  1.7783
   83MOL   C13216696   2.090   4.056   6.901 -0.2152  0.2729 -0.0647
   83MOL   C13316697   2.002   3.932   6.899  0.2212  1.0143 -0.0071
   83MOL   C13416698   1.915   3.920   6.772 -0.3941  0.1648  0.0616
   83MOL   O13516699   1.885   4.019   6.703 -0.0462 -0.0160  0.2850
   83MOL   N13616700   1.856   3.803   6.748 -0.0869  0.1568 -0.1199
   83MOL   H13716701   2.030   4.140   6.866 -1.0362 -0.1165  0.3944
   83MOL   H13816702   2.115   4.085   7.003 -0.7953  1.0227 -0.1309
   83MOL   H13916703   2.058   3.838   6.905  2.1008  2.0576 -0.7957
   83MOL   H14016704   1.878   3.717   6.796 -0.9898  0.1085  0.2318
   83MOL   H14116705   1.781   3.808   6.681  0.0946  0.9851 -0.2728
   83MOL   C14216706   1.898   3.923   7.016  0.0613 -0.7299  0.3355
   83MOL   C14316707   1.948   3.905   7.159 -0.0418 -0.1303  0.0816
   83MOL   C14416708   2.042   3.788   7.189  0.3616  0.5671  0.0843
   83MOL   O14516709   2.013   3.678   7.145  0.4396 -0.2666 -0.0761
   83MOL   N14616710   2.158   3.808   7.257  0.5312  0.4356  0.2871
   83MOL   H14716711   1.820   3.849   7.000  0.7304 -1.5996  1.0722
   83MOL   H14816712   1.836   4.011   6.999  1.1257 -0.2749 -1.3370
   83MOL   H14916713   2.015   3.988   7.183 -1.4258  1.2122 -0.6573
   83MOL   H15016714   2.227   3.734   7.266  0.7404  0.7918  1.7757
   83MOL   H15116715   2.186   3.903   7.275  0.7441  0.0083  2.3340
   83MOL   C15216716   1.842   3.915   7.268  1.3299 -0.0911  0.3811
   83MOL   C15316717   1.722   3.808   7.280 -0.1297  0.5204 -0.7463
   83MOL   C15416718   1.595   3.863   7.219 -0.6172 -0.2866 -0.5699
   83MOL   O15516719   1.542   3.975   7.258 -0.2748 -0.0877 -0.0122
   83MOL   N15616720   1.535   3.782   7.137  0.4446 -0.1284  1.0093
   83MOL   H15716721   1.806   4.018   7.274 -0.2427 -0.6648  1.2572
   83MOL   H15816722   1.905   3.907   7.357  2.2001 -0.1793 -0.2343
   83MOL   H15916723   1.754   3.715   7.234  1.9341  1.0290 -0.4093
   83MOL   H16016724   1.439   3.805   7.118  1.3640  0.9956 -2.7409
   83MOL   H16116725   1.564   3.687   7.119  3.1975  1.1979 -2.0151
   83MOL   C16216726   1.709   3.765   7.426 -0.9204  0.0123 -0.4041
   83MOL   C16316727   1.823   3.659   7.466  0.1022 -0.5574 -0.5329
   83MOL   C16416728   1.801   3.521   7.403  0.1289 -0.5738  0.2488
   83MOL   O16516729   1.724   3.438   7.453 -0.2404  0.9668  0.4043
   83MOL   N16616730   1.882   3.494   7.306  0.3737 -0.6397  0.4267
   83MOL   H16716731   1.611   3.722   7.447 -0.8641  0.3446  0.5760
   83MOL   H16816732   1.701   3.849   7.495  0.5543 -0.0366 -0.1619
   83MOL   H16916733   1.920   3.699   7.436 -0.4248  0.3908 -0.9991
   83MOL   H17016734   1.931   3.567   7.256 -1.7113  0.5987  0.1483
   83MOL   H17116735   1.889   3.398   7.274 -2.9732 -0.7216 -0.2040
   83MOL   C17216736   1.828   3.635   7.621  0.5186 -0.2209 -0.1348
   83MOL   C17316737   1.946   3.560   0.031  0.1088 -0.0489  0.0942
   83MOL   C17416738   1.923   3.550   0.180  0.7306  0.6053  0.0113
   83MOL   O17516739   1.888   3.642   0.249 -0.3208  0.1661  0.6997
   83MOL   N17616740   1.934   3.429   0.232 -0.2385  0.6099 -0.7050
   83MOL   H17716741   1.734   3.595   0.001 -0.5307  1.1566 -1.2239
   83MOL   H17816742   1.830   3.735   0.008 -0.7173 -0.3186  0.1485
   83MOL   H17916743   1.940   3.465   7.636  0.0749  0.8691 -1.6334
   83MOL   H18016744   1.946   3.348   0.172 -1.4993  1.2889 -1.9133
   83MOL   H18116745   1.942   3.415   0.331 -0.1657  0.7347 -0.6935
   83MOL   C18216746   2.081   3.631   7.656 -0.8737 -1.1125 -0.4868
   83MOL   C18316747   2.213   3.552   7.646  0.0177  0.1224 -0.1059
   83MOL   C18416748   2.251   3.489   0.125  0.1096  0.2525  0.2089
   83MOL   O18516749   2.298   3.555   0.219  0.4358 -0.6747 -0.3830
   83MOL   N18616750   2.244   3.360   0.133  0.3673  0.2420  0.0005
   83MOL   H18716751   2.089   3.717   0.066 -0.8110 -1.0617 -0.5593
   83MOL   H18816752   2.071   3.669   7.554  1.7932 -0.1127 -0.4320
   83MOL   H18916753   2.200   3.479   7.566  1.6946 -0.3095  0.0070
   83MOL   H19016754   2.204   3.308   0.055 -1.7334 -0.4774  1.5006
   83MOL   H19116755   2.253   3.305   0.217  0.8222 -1.2822 -1.0227
   83MOL   C19216756   2.331   3.637   7.578  0.3124 -0.3249  0.2710
   83MOL   C19316757   2.433   3.546   7.504 -0.3491 -0.2563  0.6035
   83MOL   C19416758   2.401   3.519   7.349  0.1910 -0.7736 -0.0016
   83MOL   O19516759   2.340   3.606   7.288  0.1653 -0.3750 -0.3088
   83MOL   N19616760   2.446   3.404   7.290  0.0932 -0.4036 -0.0760
   83MOL   H19716761   2.380   3.692   0.001  1.6582  2.4545 -2.3580
   83MOL   H19816762   2.281   3.705   7.508  3.2309 -2.3147 -3.9818
   83MOL   H19916763   2.516   3.616   7.498 -0.9422  0.5991  2.2395
   83MOL   H20016764   2.422   3.403   7.192  0.5257 -1.3795 -0.1808
   83MOL   H20116765   2.486   3.328   7.344  3.1269  1.3030  0.2450
   83MOL   H20216766   2.478   3.463   7.559 -0.0655  0.5534  1.5936
   84MOL     C116767   5.947   6.524   4.193  0.0865  0.3189  0.0804
   84MOL     C216768   5.934   6.400   4.104  0.6187  0.2406  0.3340
   84MOL     C316769   5.784   6.377   4.084  0.2808 -0.0250 -0.0640
   84MOL     O416770   5.710   6.335   4.176 -0.0841  0.4418 -0.2103
   84MOL     N516771   5.737   6.383   3.959  0.2455 -0.2022 -0.1294
   84MOL     H616772   5.917   6.508   4.297 -1.0544 -0.3573 -0.3380
   84MOL     H716773   6.048   6.561   4.203 -0.1923  0.8297  1.0343
   84MOL     H816774   5.984   6.429   4.011  2.6745 -2.1532  0.6326
   84MOL     H916775   5.796   6.408   3.881 -0.4791  2.2642  0.0488
   84MOL    H1016776   5.644   6.353   3.937  0.1497  0.0452 -0.0693
   84MOL    H1116777   5.882   6.605   4.160 -1.0789 -1.0905 -1.2348
   84MOL    C1216778   6.020   6.282   4.152 -0.3326  0.0914  0.2930
   84MOL    C1316779   6.043   6.172   4.047 -0.0679 -0.3191  0.1095
   84MOL    C1416780   5.947   6.054   4.063 -0.1748 -0.5695  0.3310
   84MOL    O1516781   5.945   5.991   4.166  0.4311  0.3269 -0.2357
   84MOL    N1616782   5.869   6.029   3.965  0.3128  0.2037 -0.3286
   84MOL    H1716783   5.990   6.238   4.247  0.2071 -0.6349  0.1309
   84MOL    H1816784   6.116   6.327   4.175 -0.0466 -1.6552  2.7157
   84MOL    H1916785   6.020   6.221   3.953 -0.7671  0.1805  0.5348
   84MOL    H2016786   5.863   6.084   3.880 -0.4105 -0.5869 -0.7993
   84MOL    H2116787   5.815   5.945   3.980  0.5061  0.1142 -0.1407
   84MOL    C2216788   6.199   6.126   4.043  0.3328  0.1699  0.2838
   84MOL    C2316789   6.262   6.063   3.918 -1.4458 -0.4179  0.0481
   84MOL    C2416790   6.180   5.948   3.868 -1.0764 -0.2284  0.3413
   84MOL    O2516791   6.150   5.859   3.940 -0.2351 -0.2288  0.6508
   84MOL    N2616792   6.139   5.948   3.741  0.4113  0.2663  0.3730
   84MOL    H2716793   6.204   6.055   4.125 -0.1352  1.5117  1.4806
   84MOL    H2816794   6.270   6.204   4.071  0.3654  0.9673 -1.8979
   84MOL    H2916795   6.255   6.143   3.844 -0.0282  0.7810  1.1700
   84MOL    H3016796   6.065   5.882   3.720  0.8377  0.6770 -2.7413
   84MOL    H3116797   6.144   6.034   3.688  1.1107  1.2639  2.0598
   84MOL    C3216798   6.416   6.045   3.948  0.4842 -0.7740  0.6013
   84MOL    C3316799   6.497   5.964   3.840 -0.0766  0.4953  0.5170
   84MOL    C3416800   6.643   5.953   3.880  0.6101 -0.1825 -0.0875
   84MOL    O3516801   6.698   6.042   3.942 -0.3468  0.3070  0.0765
   84MOL    N3616802   6.713   5.849   3.847 -0.0436  0.2482 -0.4789
   84MOL    H3716803   6.408   5.991   4.042 -2.2743 -0.1887  0.7322
   84MOL    H3816804   6.470   6.139   3.957 -0.7869 -0.0549  0.8196
   84MOL    H3916805   6.451   5.867   3.818  0.1404  0.7112 -0.9284
   84MOL    H4016806   6.679   5.797   3.768 -1.5168  0.9392 -0.3194
   84MOL    H4116807   6.808   5.828   3.876 -0.1062 -1.9954 -1.7912
   84MOL    C4216808   6.499   6.036   3.711  0.0760  0.7899 -0.0143
   84MOL    C4316809   6.549   5.968   3.581  0.4146  0.3411  0.5049
   84MOL    C4416810   6.497   5.828   3.551  0.5312 -0.7303  0.2686
   84MOL    O4516811   6.515   5.736   3.632  0.1076  0.2913  0.2927
   84MOL    N4616812   6.439   5.803   3.434  0.3271  0.2744  0.9045
   84MOL    H4716813   6.549   6.133   3.718  0.5076  0.6259 -0.8666
   84MOL    H4816814   6.393   6.060   3.699 -0.6232 -0.4474  3.1720
   84MOL    H4916815   6.509   6.034   3.504 -0.4576 -1.5401 -0.6820
   84MOL    H5016816   6.447   5.872   3.361 -0.2450 -1.4049 -0.7641
   84MOL    H5116817   6.401   5.711   3.418  0.0007  0.5151  0.2784
   84MOL    C5216818   6.710   5.974   3.546  0.0492  0.7341  0.2034
   84MOL    C5316819   6.743   5.935   3.402  0.5773  0.3605  0.2540
   84MOL    C5416820   6.871   5.844   3.410  0.0285 -0.0316  0.0687
   84MOL    O5516821   6.986   5.881   3.441  0.0100 -0.3643 -0.1782
   84MOL    N5616822   6.846   5.715   3.387 -0.1810 -0.3088  0.0472
   84MOL    H5716823   6.763   5.918   3.623 -1.4230 -0.6735  0.2391
   84MOL    H5816824   6.742   6.075   3.571  1.8319  0.2629 -0.0888
   84MOL    H5916825   6.663   5.867   3.372  0.3793  0.6007  0.2388
   84MOL    H6016826   6.923   5.651   3.400  0.3720  0.1497 -0.9587
   84MOL    H6116827   6.770   5.687   3.327  0.5909  0.4089 -1.2903
   84MOL    C6216828   6.768   6.059   3.307 -0.7652  0.0726  0.1517
   84MOL    C6316829   6.641   6.137   3.276  0.7011 -0.2482  0.1957
   84MOL    C6416830   6.545   6.052   3.184  0.0765  0.1626  0.2710
   84MOL    O6516831   6.452   5.990   3.240  0.1673 -0.1864  0.2685
   84MOL    N6616832   6.543   6.058   3.051  0.3395  0.1120 -0.3763
   84MOL    H6716833   6.816   6.039   3.212 -3.3288  0.2726 -1.2177
   84MOL    H6816834   6.840   6.128   3.350 -0.1715  0.9619 -2.2036
   84MOL    H6916835   6.574   6.169   3.355 -1.0685 -1.0932 -0.9236
   84MOL    H7016836   6.469   6.015   2.997  1.2290 -1.2385 -0.5264
   84MOL    H7116837   6.617   6.097   2.994  0.4181 -1.3253 -1.2803
   84MOL    C7216838   6.682   6.265   3.200 -1.1192 -0.3870 -0.4068
   84MOL    C7316839   6.732   6.397   3.274 -0.6576 -0.5611 -0.1379
   84MOL    C7416840   6.646   6.428   3.391  0.0246 -0.0698  0.0446
   84MOL    O7516841   6.524   6.452   3.377  0.0779  0.1658  0.2906
   84MOL    N7616842   6.709   6.450   3.509  0.5498  0.8224  0.5886
   84MOL    H7716843   6.596   6.285   3.136 -1.1778 -1.4080 -0.6645
   84MOL    H7816844   6.757   6.241   3.125 -0.4570  2.5293 -0.7263
   84MOL    H7916845   6.823   6.367   3.325  0.3575  1.4701 -0.6961
   84MOL    H8016846   6.809   6.442   3.520  0.4525  0.6324  1.3511
   84MOL    H8116847   6.650   6.493   3.578  1.2284 -1.1376  2.4388
   84MOL    C8216848   6.783   6.506   3.180 -0.3933  0.8011  0.8451
   84MOL    C8316849   6.681   6.615   3.110 -0.5553 -0.3256 -0.0488
   84MOL    C8416850   6.692   6.616   2.958 -0.1415 -1.1150 -0.2426
   84MOL    O8516851   6.791   6.660   2.902 -0.2758  0.8095  0.1003
   84MOL    N8616852   6.595   6.562   2.881  0.1337  0.4137  0.5361
   84MOL    H8716853   6.854   6.454   3.116 -1.2360 -0.0136  0.5592
   84MOL    H8816854   6.849   6.569   3.240 -0.3084  0.7175  0.8394
   84MOL    H8916855   6.582   6.570   3.124 -1.1854  0.9512 -0.3231
   84MOL    H9016856   6.592   6.571   2.780 -1.4002 -1.6892  0.3583
   84MOL    H9116857   6.514   6.525   2.929 -0.3097 -0.3913 -0.7987
   84MOL    C9216858   6.676   6.759   3.178  0.1130 -0.6598  0.3102
   84MOL    C9316859   6.756   6.882   3.123 -0.2473  0.1851 -0.1414
   84MOL    C9416860   6.910   6.867   3.106 -0.0958  0.0073 -0.0736
   84MOL    O9516861   6.968   6.769   3.152  0.1523  0.9020 -0.2916
   84MOL    N9616862   6.980   6.957   3.036  0.0534  0.3689  0.4835
   84MOL    H9716863   6.679   6.762   3.286  0.6328  2.1245  0.2508
   84MOL    H9816864   6.573   6.786   3.150  0.0900  0.5939  1.5656
   84MOL    H9916865   6.729   6.883   3.018  1.8484  1.5734 -0.7014
   84MOL   H10016866   7.080   6.945   3.031 -0.3577 -2.6792 -2.3743
   84MOL   H10116867   6.937   7.037   2.991  0.2527 -1.7321 -3.6242
   84MOL   C10216868   6.721   7.020   3.178  0.1262 -0.0357 -0.1236
   84MOL   C10316869   6.636   7.110   3.083  0.7928 -0.1852 -0.7808
   84MOL   C10416870   6.691   7.137   2.949 -0.5912 -0.1101 -0.2899
   84MOL   O10516871   6.792   7.198   2.940  0.0560  0.1144 -0.5542
   84MOL   N10616872   6.635   7.078   2.850  0.2049  0.8855 -0.3162
   84MOL   H10716873   6.808   7.083   3.194 -0.0707 -0.0445  1.0439
   84MOL   H10816874   6.682   7.006   3.279  2.0383 -0.2355  0.5935
   84MOL   H10916875   6.535   7.068   3.080  0.3136  0.7700  0.8291
   84MOL   H11016876   6.550   7.025   2.863  0.9688  0.0256  1.3015
   84MOL   H11116877   6.674   7.082   2.757  1.5161  1.5420  0.2521
   84MOL   C11216878   6.606   7.253   3.143 -0.2491 -0.5931  0.6287
   84MOL   C11316879   6.503   7.265   3.257  0.1361 -0.1999  0.5746
   84MOL   C11416880   6.355   7.242   3.210  0.1817 -0.7157  0.2620
   84MOL   O11516881   6.298   7.322   3.132  0.2280  0.1588  0.3173
   84MOL   N11616882   6.301   7.128   3.247 -0.0941  0.5307  0.0804
   84MOL   H11716883   6.570   7.325   3.069  1.1653 -1.7651 -1.2596
   84MOL   H11816884   6.706   7.292   3.164 -0.8916  1.3289  0.2116
   84MOL   H11916885   6.531   7.184   3.325 -3.1737 -1.1797  0.9064
   84MOL   H12016886   6.327   7.072   3.327 -4.3049 -2.0164 -0.2154
   84MOL   H12116887   6.206   7.113   3.216  0.4070 -1.0263 -0.7351
   84MOL   C12216888   6.515   7.406   3.321 -0.0237  0.2074  0.2065
   84MOL   C12316889   6.413   7.443   3.443  0.1522 -0.3816  0.0083
   84MOL   C12416890   6.380   7.590   3.433 -0.3404  1.1487 -0.5767
   84MOL   O12516891   6.467   0.019   3.420  0.4443  0.0957  0.0873
   84MOL   N12616892   6.248   7.622   3.426 -0.4177 -0.3513  1.0790
   84MOL   H12716893   6.502   7.476   3.238  0.2264 -0.7975 -0.7015
   84MOL   H12816894   6.619   7.407   3.354  0.0781 -1.5429  0.0103
   84MOL   H12916895   6.316   7.394   3.429 -1.5330  1.9709  2.7205
   84MOL   H13016896   6.232   0.063   3.443  1.2803 -0.2573  2.2445
   84MOL   H13116897   6.184   7.544   3.423 -0.9658  0.0732  1.7636
   84MOL   C13216898   6.475   7.419   3.581 -0.0807  0.3647 -1.0681
   84MOL   C13316899   6.505   7.271   3.621 -0.0590 -0.0050 -0.3790
   84MOL   C13416900   6.376   7.180   3.621  0.1317  0.3751 -0.0586
   84MOL   O13516901   6.343   7.113   3.526 -0.5430 -0.3097  0.0823
   84MOL   N13616902   6.294   7.192   3.725 -0.0597  0.5413  0.7790
   84MOL   H13716903   6.412   7.474   3.651  1.3486  3.0750 -1.8335
   84MOL   H13816904   6.573   7.466   3.582 -0.7905  1.8712  0.3018
   84MOL   H13916905   6.563   7.237   3.535 -0.0612  0.7879 -0.6955
   84MOL   H14016906   6.315   7.264   3.793 -0.2678  2.1056 -0.7803
   84MOL   H14116907   6.217   7.129   3.740 -0.6756  0.9619 -0.5451
   84MOL   C14216908   6.588   7.253   3.751  0.6497 -0.3253 -0.5349
   84MOL   C14316909   6.721   7.180   3.721 -0.3323 -0.5513  0.2510
   84MOL   C14416910   6.814   7.281   3.637 -0.5964  0.0479 -0.3832
   84MOL   O14516911   6.810   7.277   3.512  1.1204  0.4703 -0.2983
   84MOL   N14616912   6.893   7.368   3.701  0.1866 -0.5574 -0.1475
   84MOL   H14716913   6.537   7.188   3.822 -1.2561  0.9667 -0.6696
   84MOL   H14816914   6.599   7.348   3.804 -2.0092 -2.1289  3.5462
   84MOL   H14916915   6.778   7.166   3.812  0.8351 -0.5279 -0.4690
   84MOL   H15016916   6.890   7.376   3.801  2.0024  2.1088 -0.2695
   84MOL   H15116917   6.970   7.413   3.654  1.1860 -3.1694 -1.1610
   84MOL   C15216918   6.698   7.040   3.664  0.2065  1.0393 -0.8533
   84MOL   C15316919   6.816   6.941   3.690 -0.1522  0.4527  0.1921
   84MOL   C15416920   6.821   6.845   3.570  0.1094 -0.5568 -0.4386
   84MOL   O15516921   6.720   6.782   3.537  0.6435  0.2150  0.5349
   84MOL   N15616922   6.924   6.846   3.487  0.1628  0.5186  0.1263
   84MOL   H15716923   6.681   7.063   3.559 -0.6151  1.7260 -0.5714
   84MOL   H15816924   6.603   6.994   3.691  0.3576  1.3708  0.2612
   84MOL   H15916925   6.904   7.006   3.691 -0.5376  1.0215 -1.3976
   84MOL   H16016926   6.998   6.915   3.495  1.1911 -0.3648 -1.4037
   84MOL   H16116927   6.924   6.782   3.409 -0.4724 -0.2642  0.7672
   84MOL   C16216928   6.805   6.871   3.826 -0.6429  0.0104 -0.0834
   84MOL   C16316929   6.932   6.817   3.888 -0.8625  0.1708  0.5260
   84MOL   C16416930   7.032   6.927   3.936  0.5267  0.0388 -0.1595
   84MOL   O16516931   7.027   6.969   4.053 -0.5081 -0.1652 -0.4000
   84MOL   N16616932   7.111   6.988   3.849 -0.1815 -0.0418 -0.2662
   84MOL   H16716933   6.734   6.788   3.825  1.0423 -1.4843  0.6898
   84MOL   H16816934   6.764   6.944   3.896  0.2856 -0.3913  0.8932
   84MOL   H16916935   6.885   6.757   3.966 -0.8779 -1.0872 -0.4320
   84MOL   H17016936   7.114   6.965   3.751  0.8281  1.3640 -0.5663
   84MOL   H17116937   7.166   7.065   3.883  0.1091  0.4666 -1.8686
   84MOL   C17216938   7.005   6.706   3.814 -0.7744  0.5464 -0.7110
   84MOL   C17316939   7.091   6.610   3.898  0.5495  0.0687 -0.0054
   84MOL   C17416940   7.212   6.555   3.822 -0.2172 -1.2270  0.8006
   84MOL   O17516941   7.207   6.565   3.694 -0.5077  0.2617 -0.3378
   84MOL   N17616942   7.319   6.506   3.890  0.1079  0.6552 -1.0535
   84MOL   H17716943   7.069   6.758   3.743 -1.0441  3.8254  1.3632
   84MOL   H17816944   6.927   6.647   3.765 -2.0201  1.0963  0.5985
   84MOL   H17916945   7.147   6.671   3.968  2.0179 -1.0787 -0.1624
   84MOL   H18016946   7.303   6.517   3.989 -1.5754 -0.6814 -1.1662
   84MOL   H18116947   7.415   6.484   3.868  1.3296  1.9380  2.5946
   84MOL   C18216948   7.011   6.506   3.981  0.7847 -0.1733 -0.6519
   84MOL   C18316949   6.920   6.397   3.909  0.4719  0.1891  0.7700
   84MOL   C18416950   6.803   6.351   4.004 -0.7055 -0.4301  0.4132
   84MOL   O18516951   6.845   6.290   4.101  0.3142  0.1308  0.1574
   84MOL   N18616952   6.677   6.380   3.972  0.0038 -0.4034  0.3816
   84MOL   H18716953   6.948   6.557   4.053  1.3541  1.1396 -1.0792
   84MOL   H18816954   7.076   6.456   4.053  0.0991  1.8935  1.4389
   84MOL   H18916955   6.872   6.438   3.820 -2.1394 -1.2660  1.4470
   84MOL   H19016956   6.647   6.437   3.894  0.1165 -0.9049 -0.0334
   84MOL   H19116957   6.606   6.368   4.042  0.9930 -2.2842  1.0976
   84MOL   C19216958   6.997   6.272   3.873  0.5135 -0.4257  0.5738
   84MOL   C19316959   6.940   6.192   3.754 -1.4732  0.7502  0.0341
   84MOL   C19416960   6.986   6.245   3.611  0.1196 -0.2047 -0.1500
   84MOL   O19516961   6.968   6.358   3.571 -0.4775 -0.2438  0.3533
   84MOL   N19616962   7.035   6.152   3.530 -0.4701  0.3203  0.8625
   84MOL   H19716963   7.017   6.208   3.959 -1.4712 -3.2124 -0.9716
   84MOL   H19816964   7.098   6.297   3.840  0.4405  0.1284  0.7641
   84MOL   H19916965   6.964   6.086   3.755  0.6354  1.1736 -0.9158
   84MOL   H20016966   7.090   6.185   3.451  0.4932 -0.7375  1.0690
   84MOL   H20116967   7.034   6.052   3.545  0.5643  0.2911  0.8293
   84MOL   H20216968   6.832   6.197   3.754 -1.5301 -0.3664  0.7157
   85MOL     C116969   0.365   2.934   2.050 -0.1788  0.1448 -0.1672
   85MOL     C216970   0.358   3.082   2.037 -0.6891  0.5652  0.0978
   85MOL     C316971   0.285   3.154   2.159 -0.4108 -0.4060 -0.1449
   85MOL     O416972   0.195   3.101   2.210  0.3140  0.3900  0.6089
   85MOL     N516973   0.328   3.276   2.194  0.2780  0.1425 -1.2167
   85MOL     H616974   0.424   2.901   1.965  1.5234  0.4912  0.8487
   85MOL     H716975   0.417   2.905   2.142 -0.3609  0.7382  0.1250
   85MOL     H816976   0.458   3.122   2.020 -1.0434  0.1098 -3.2381
   85MOL     H916977   0.270   3.339   2.248  0.1728 -0.5706 -0.4847
   85MOL    H1016978   0.400   3.318   2.136  0.4478 -0.0410 -1.1390
   85MOL    H1116979   0.276   2.870   2.042  0.3500 -0.8572  1.6161
   85MOL    C1216980   0.269   3.097   1.911 -0.3804  0.0550  0.0761
   85MOL    C1316981   0.237   3.244   1.856 -0.2433  0.1234  0.0930
   85MOL    C1416982   0.085   3.260   1.824  0.7422  0.1927  0.0683
   85MOL    O1516983   0.012   3.349   1.877 -0.7943 -0.9320  0.0474
   85MOL    N1616984   0.023   3.172   1.743  0.1092 -0.4650  0.5257
   85MOL    H1716985   0.179   3.037   1.923 -0.1685 -1.0941 -3.6559
   85MOL    H1816986   0.302   3.048   1.820 -0.7267  0.7025 -0.4031
   85MOL    H1916987   0.258   3.313   1.937  0.0388  1.5684 -1.1756
   85MOL    H2016988   7.584   3.195   1.723  0.5919  0.9572 -0.2274
   85MOL    H2116989   0.077   3.092   1.713  2.8217  2.5134 -2.9566
   85MOL    C2216990   0.327   3.291   1.740  0.7295  0.0414  0.3697
   85MOL    C2316991   0.481   3.302   1.760 -0.1206 -0.3632  0.2322
   85MOL    C2416992   0.514   3.411   1.865  0.4648 -0.4047  0.4227
   85MOL    O2516993   0.471   3.527   1.847 -0.3846  0.0500 -0.2613
   85MOL    N2616994   0.584   3.377   1.970 -0.5150 -0.4260  0.5703
   85MOL    H2716995   0.289   3.381   1.692 -1.3768  0.0991  2.0688
   85MOL    H2816996   0.323   3.217   1.660  2.6023  0.0248  0.2612
   85MOL    H2916997   0.520   3.207   1.795 -0.3556 -0.4477  0.2629
   85MOL    H3016998   0.641   3.293   1.968 -1.0359 -0.8120  1.4236
   85MOL    H3116999   0.592   3.446   2.043  0.3021  1.9941 -1.7561
   85MOL    C3217000   0.546   3.333   1.620 -0.0350 -0.2379  0.4126
   85MOL    C3317001   0.693   3.283   1.605  0.0338  0.2382  0.9865
   85MOL    C3417002   0.756   3.343   1.479  0.2329 -1.8564  0.1856
   85MOL    O3517003   0.819   3.280   1.395  0.5778  0.3634 -0.1067
   85MOL    N3617004   0.766   3.472   1.465  0.4260  0.0685 -0.3498
   85MOL    H3717005   0.536   3.437   1.589  1.0443 -1.1485 -3.2262
   85MOL    H3817006   0.490   3.271   1.550 -0.5374 -0.4154  0.9699
   85MOL    H3917007   0.756   3.321   1.685 -1.4711 -0.8381  2.7522
   85MOL    H4017008   0.709   3.537   1.518 -1.0902 -1.3080 -0.2587
   85MOL    H4117009   0.835   3.502   1.398  1.0780 -1.5208 -0.4102
   85MOL    C4217010   0.702   3.129   1.606  0.1184 -0.1187  0.2720
   85MOL    C4317011   0.806   3.074   1.704 -0.4152  0.8713 -0.0763
   85MOL    C4417012   0.770   3.073   1.852 -0.2788 -0.8078  0.2263
   85MOL    O4517013   0.758   3.177   1.912  0.3340  0.0165  0.1810
   85MOL    N4617014   0.768   2.958   1.914  0.1121 -0.0948  0.6993
   85MOL    H4717015   0.732   3.097   1.506  2.4302  0.6745  0.6686
   85MOL    H4817016   0.605   3.089   1.633  0.6104 -1.0716  0.6606
   85MOL    H4917017   0.811   2.968   1.678  2.2675  1.6883 -3.2446
   85MOL    H5017018   0.794   2.872   1.870 -1.3927 -1.2340  1.9925
   85MOL    H5117019   0.756   2.965   2.014  0.1099  1.2607  0.6151
   85MOL    C5217020   0.947   3.135   1.686  0.4833  0.8644  0.4070
   85MOL    C5317021   1.023   3.066   1.567 -0.0988  0.0202 -0.2312
   85MOL    C5417022   1.081   2.932   1.619 -0.1372  0.1833  0.1848
   85MOL    O5517023   1.160   2.926   1.713  0.0260  0.2793  0.2387
   85MOL    N5617024   1.057   2.817   1.553  0.0049  0.0936 -0.2446
   85MOL    H5717025   1.001   3.105   1.776 -1.7966  2.0428  2.2298
   85MOL    H5817026   0.943   3.244   1.677  0.3366  0.7206 -1.4483
   85MOL    H5917027   0.947   3.036   1.495  1.8821 -2.1605 -1.4701
   85MOL    H6017028   0.987   2.807   1.480  0.5232 -0.6358 -0.6555
   85MOL    H6117029   1.088   2.727   1.589 -0.3671  0.2728  0.5217
   85MOL    C6217030   1.125   3.164   1.500  0.6364  0.0815  0.5769
   85MOL    C6317031   1.202   3.106   1.373  0.3039  0.1870 -0.4561
   85MOL    C6417032   1.331   3.029   1.407 -0.3336 -0.2499 -0.0400
   85MOL    O6517033   1.421   3.084   1.464 -0.3235 -0.0539 -0.6975
   85MOL    N6617034   1.342   2.906   1.359  0.3718  0.4907  0.2000
   85MOL    H6717035   1.201   3.201   1.569  1.1968 -0.8531  0.4749
   85MOL    H6817036   1.083   3.262   1.480 -0.8912 -0.9755 -1.6343
   85MOL    H6917037   1.133   3.040   1.320  1.6806 -0.4848 -1.4562
   85MOL    H7017038   1.276   2.878   1.287 -1.2095 -0.3907  1.9173
   85MOL    H7117039   1.428   2.854   1.360 -0.5326 -1.1078 -1.1499
   85MOL    C7217040   1.228   3.223   1.277  0.2604  0.0106  0.2924
   85MOL    C7317041   1.104   3.287   1.201 -0.6841  0.5230 -0.2582
   85MOL    C7417042   1.021   3.170   1.135  0.5028  0.0738 -0.7147
   85MOL    O7517043   1.079   3.100   1.052 -0.4294 -0.0116  0.7059
   85MOL    N7617044   0.897   3.158   1.165 -0.0207 -0.0109 -0.5280
   85MOL    H7717045   1.297   3.175   1.208  1.0933 -0.6419  1.5606
   85MOL    H7817046   1.301   3.297   1.310  1.7478 -1.6341  0.7748
   85MOL    H7917047   1.045   3.338   1.276  1.3147  0.9289  1.0670
   85MOL    H8017048   0.853   3.073   1.132  2.4681 -2.3024  1.7984
   85MOL    H8117049   0.852   3.226   1.224  2.7299  1.6842 -0.3051
   85MOL    C8217050   1.157   3.392   1.097  0.3320 -0.0643  0.1705
   85MOL    C8317051   1.048   3.461   1.005 -0.0749 -1.0042 -0.7306
   85MOL    C8417052   1.119   3.571   0.929 -0.9409 -0.0958  0.3700
   85MOL    O8517053   1.203   3.642   0.990 -0.0954 -0.4227 -0.1360
   85MOL    N8617054   1.098   3.579   0.799  0.1090 -0.0893 -0.7607
   85MOL    H8717055   1.240   3.361   1.034 -1.7160 -2.3191 -1.5087
   85MOL    H8817056   1.192   3.467   1.169 -1.8484  0.5857  0.5850
   85MOL    H8917057   1.011   3.383   0.938 -1.2938 -2.6483  1.7789
   85MOL    H9017058   1.145   3.652   0.748  0.5673  1.2304  1.4417
   85MOL    H9117059   1.035   3.513   0.756 -1.8159  1.6329 -0.6804
   85MOL    C9217060   0.930   3.520   1.094 -0.1728 -0.0751 -0.1614
   85MOL    C9317061   0.840   3.643   1.055  0.9856 -0.5405 -0.0488
   85MOL    C9417062   0.871   3.763   1.141  0.1957 -0.2598 -0.5973
   85MOL    O9517063   0.847   3.762   1.262  0.5103 -0.1243  0.2732
   85MOL    N9617064   0.914   3.877   1.086 -0.9953 -0.2603  0.0880
   85MOL    H9717065   0.968   3.548   1.192 -1.8496  0.4206  0.3694
   85MOL    H9817066   0.868   3.433   1.113  1.3350 -1.0296  0.4797
   85MOL    H9917067   0.858   3.671   0.951  0.5982  2.6476  0.6917
   85MOL   H10017068   0.937   3.962   1.134  1.1855  0.6852 -2.5015
   85MOL   H10117069   0.920   3.869   0.985  3.1169  0.0344  0.2347
   85MOL   C10217070   0.689   3.615   1.064  0.2977  0.3426  0.1849
   85MOL   C10317071   0.632   3.524   0.961 -0.5475  0.1918  0.2538
   85MOL   C10417072   0.624   3.600   0.823  0.9321 -0.4111  0.5056
   85MOL   O10517073   0.564   3.708   0.811 -0.1356  0.1762  0.4085
   85MOL   N10617074   0.685   3.555   0.715  0.3408 -0.2050  0.2608
   85MOL   H10717075   0.631   3.708   1.062 -0.0003  0.1577  0.3122
   85MOL   H10817076   0.661   3.576   1.162  0.0839 -3.2049 -1.2065
   85MOL   H10917077   0.707   3.446   0.949  0.3270  0.8519  1.4122
   85MOL   H11017078   0.669   3.600   0.626  3.1152 -1.7436 -1.1037
   85MOL   H11117079   0.754   3.481   0.716  1.8403  1.1519 -0.0424
   85MOL   C11217080   0.496   3.441   1.000 -0.3572 -0.3727  0.6041
   85MOL   C11317081   0.459   3.325   0.900  0.1119 -0.2217  0.0662
   85MOL   C11417082   0.586   3.252   0.853 -0.8178  0.1695  0.4264
   85MOL   O11517083   0.632   3.266   0.735 -0.3186 -0.7541 -0.4649
   85MOL   N11617084   0.659   3.187   0.943 -0.2480  0.0768 -0.1284
   85MOL   H11717085   0.405   3.502   1.005 -1.3912 -2.0298  2.8638
   85MOL   H11817086   0.514   3.373   1.083  2.2656 -3.1553 -2.1330
   85MOL   H11917087   0.411   3.246   0.958 -0.1789  1.1302  1.6965
   85MOL   H12017088   0.737   3.125   0.922 -1.9101 -2.0708 -0.0889
   85MOL   H12117089   0.617   3.188   1.034  0.8492 -1.4057  0.4246
   85MOL   C12217090   0.350   3.361   0.789  0.7586 -0.2282  0.1068
   85MOL   C12317091   0.224   3.267   0.773  0.8539 -0.2951 -0.4449
   85MOL   C12417092   0.155   3.305   0.646 -0.5624 -0.1878 -0.4630
   85MOL   O12517093   0.099   3.417   0.640 -0.1318  0.0391 -0.0459
   85MOL   N12617094   0.150   3.217   0.553 -0.0848 -0.4046  0.3919
   85MOL   H12717095   0.395   3.384   0.693 -0.5764  2.1880  0.0090
   85MOL   H12817096   0.312   3.461   0.813 -0.0482 -1.4375  4.2925
   85MOL   H12917097   0.255   3.164   0.757 -1.9317 -0.9979 -1.7694
   85MOL   H13017098   0.206   3.133   0.559  0.1694 -0.2218  0.5729
   85MOL   H13117099   0.097   3.229   0.468 -0.6001  0.2728  0.8070
   85MOL   C13217100   0.133   3.273   0.901 -0.2196 -1.0307 -0.2873
   85MOL   C13317101   7.655   3.202   0.916  0.3060 -0.2067 -0.5867
   85MOL   C13417102   0.008   3.051   0.920 -0.0063  0.2674 -0.2001
   85MOL   O13517103   7.625   2.984   0.825 -0.2064  0.1367  0.2527
   85MOL   N13617104   0.067   3.006   1.033  0.0161 -0.5371  0.0389
   85MOL   H13717105   0.129   3.381   0.918  1.9748 -1.1959  1.5526
   85MOL   H13817106   0.186   3.236   0.989 -2.2287 -1.0379  0.9767
   85MOL   H13917107   7.622   3.226   1.017  3.2303 -1.6287  0.7661
   85MOL   H14017108   0.083   2.908   1.054  1.0458 -0.3724  0.0812
   85MOL   H14117109   0.094   3.076   1.101  1.0337  0.0929 -0.9842
   85MOL   C14217110   7.536   3.250   0.825 -1.1098 -0.1592  0.0921
   85MOL   C14317111   7.477   3.394   0.846  0.4916  0.2651  0.1137
   85MOL   C14417112   7.398   3.419   0.971  0.3514  0.4343  0.3488
   85MOL   O14517113   7.277   3.399   0.966 -0.0408 -0.1312 -0.4534
   85MOL   N14617114   7.456   3.464   1.077  0.0808  0.2805 -0.2164
   85MOL   H14717115   7.453   3.181   0.844  0.2834 -1.6734  0.8061
   85MOL   H14817116   7.576   3.234   0.725  0.4910  0.0064  0.6864
   85MOL   H14917117   7.568   3.454   0.854 -0.5324  2.0803 -1.5636
   85MOL   H15017118   7.392   3.494   1.149  1.5178  1.2208  0.7217
   85MOL   H15117119   7.555   3.484   1.087 -0.0846  0.7593  0.5034
   85MOL   C15217120   7.398   3.437   0.725  0.2133 -0.7120 -0.2396
   85MOL   C15317121   7.371   3.588   0.711 -0.0833 -0.0146 -0.1207
   85MOL   C15417122   7.215   3.611   0.712  0.5382 -0.4308  0.1603
   85MOL   O15517123   7.150   3.562   0.621 -0.2434  0.8666  0.3110
   85MOL   N15617124   7.158   3.687   0.808 -0.6890 -0.2938 -0.4234
   85MOL   H15717125   7.305   3.382   0.741  1.2837 -2.2471  0.8033
   85MOL   H15817126   7.440   3.400   0.631 -0.9681  0.8613 -1.4198
   85MOL   H15917127   7.413   3.635   0.800  1.3996 -1.3608 -0.0989
   85MOL   H16017128   7.058   3.701   0.819 -0.6951 -0.8536  0.2820
   85MOL   H16117129   7.221   3.743   0.864 -0.3407 -1.2251  0.1269
   85MOL   C16217130   7.436   3.652   0.587 -0.0794 -0.5773  0.2246
   85MOL   C16317131   7.476   3.802   0.589  0.1129 -0.1952  0.0415
   85MOL   C16417132   7.371   3.884   0.512  0.0386 -0.8785 -0.1960
   85MOL   O16517133   7.262   3.900   0.566 -0.2385 -0.7987  0.5344
   85MOL   N16617134   7.391   3.916   0.388 -0.4764  0.0035  0.5297
   85MOL   H16717135   7.365   3.646   0.505  2.7848 -1.2665 -2.3035
   85MOL   H16817136   7.516   3.585   0.555 -0.0247  0.0019 -0.8565
   85MOL   H16917137   7.472   3.836   0.693 -0.6874 -1.5156  0.4512
   85MOL   H17017138   7.481   3.896   0.348 -1.1382 -2.3945  0.1512
   85MOL   H17117139   7.319   3.955   0.329 -0.4752 -0.2276  0.3737
   85MOL   C17217140   7.619   3.830   0.526 -0.3453  0.1597  0.1512
   85MOL   C17317141   0.084   3.743   0.573  0.8399  0.0740 -0.5126
   85MOL   C17417142   0.080   3.757   0.731  0.0474  0.7719 -0.1417
   85MOL   O17517143   0.104   3.867   0.786 -0.5950  0.0979  0.3236
   85MOL   N17617144   0.087   3.641   0.795  0.1535  0.3679  0.3837
   85MOL   H17717145   0.005   3.925   0.558 -3.0815  1.2790  0.6156
   85MOL   H17817146   7.623   3.827   0.417 -0.9947 -1.5732  0.1508
   85MOL   H17917147   0.071   3.643   0.532  0.0436 -0.2189  0.4255
   85MOL   H18017148   0.081   3.556   0.740 -0.7076  1.2494 -0.9212
   85MOL   H18117149   0.104   3.629   0.894  1.1474  0.2455  0.1994
   85MOL   C18217150   0.212   3.793   0.507 -0.5400  0.1662 -0.7998
   85MOL   C18317151   0.341   3.702   0.516  0.3672  0.0193  0.6618
   85MOL   C18417152   0.460   3.789   0.473  0.7878  0.5893  0.6671
   85MOL   O18517153   0.473   3.808   0.350  0.8601 -0.1009 -0.5440
   85MOL   N18617154   0.548   3.833   0.562  0.3199  0.1722 -0.0299
   85MOL   H18717155   0.243   3.876   0.569  0.6752 -1.9023  1.4559
   85MOL   H18817156   0.200   3.822   0.402 -1.6466  1.8553 -0.2223
   85MOL   H18917157   0.362   3.679   0.620  2.5250  1.2138  0.5268
   85MOL   H19017158   0.535   3.808   0.659  2.1929 -1.5217 -0.1747
   85MOL   H19117159   0.626   3.893   0.539 -0.8495  1.8356  0.2839
   85MOL   C19217160   0.336   3.569   0.425 -0.4156  0.4000 -0.9205
   85MOL   C19317161   0.466   3.475   0.431 -0.1161 -0.4946 -0.1545
   85MOL   C19417162   0.443   3.342   0.357 -0.6920  0.6196 -0.0913
   85MOL   O19517163   0.521   3.245   0.379  0.6606 -0.3276 -0.0526
   85MOL   N19617164   0.340   3.322   0.274  0.5388  0.1438 -0.2448
   85MOL   H19717165   0.313   3.599   0.322 -1.3462  0.8726 -0.5806
   85MOL   H19817166   0.257   3.505   0.463  1.9669 -2.5965 -0.8614
   85MOL   H19917167   0.560   3.511   0.388  0.7820 -1.0021  1.3765
   85MOL   H20017168   0.278   3.397   0.246  0.5393  0.5459  0.8038
   85MOL   H20117169   0.327   3.231   0.233 -1.8015  1.6025 -2.9707
   85MOL   H20217170   0.492   3.463   0.536  0.3706  3.0859  0.1951
   86MOL     C117171   7.017   5.115   7.140 -0.8419 -0.1090 -0.1593
   86MOL     C217172   6.890   5.148   7.078  0.4540 -0.5150 -0.0686
   86MOL     C317173   6.881   5.293   7.041 -0.4524 -0.1238 -0.3525
   86MOL     O417174   6.880   5.381   7.131 -0.3689 -0.2100  0.7103
   86MOL     N517175   6.852   5.324   6.914 -0.4936 -0.0318 -0.1655
   86MOL     H617176   7.101   5.112   7.070  0.1755 -1.7833  1.0692
   86MOL     H717177   7.041   5.183   7.221 -0.1702 -0.1127 -0.3510
   86MOL     H817178   6.892   5.095   6.983  1.3492 -1.7456  0.6089
   86MOL     H917179   6.829   5.254   6.846  1.3327 -1.8827  1.0646
   86MOL    H1017180   6.850   5.420   6.881  0.7384  0.6065  1.5285
   86MOL    H1117181   7.009   5.011   7.172  1.0979 -0.3359 -0.3412
   86MOL    C1217182   6.758   5.105   7.147 -0.1851 -0.3692  0.2912
   86MOL    C1317183   6.755   4.957   7.203  0.1483  0.6771  0.5985
   86MOL    C1417184   6.780   4.854   7.097  0.4259  0.2127  0.0177
   86MOL    O1517185   6.716   4.854   6.987  0.7081 -0.0314  0.2640
   86MOL    N1617186   6.878   4.769   7.117 -1.1095 -0.7580  0.7434
   86MOL    H1717187   6.681   5.112   7.070 -0.3842  1.5119  0.6484
   86MOL    H1817188   6.740   5.167   7.235 -0.4442  1.5143 -1.0571
   86MOL    H1917189   6.830   4.945   7.281 -0.0014  2.1943  0.9832
   86MOL    H2017190   6.929   4.788   7.202  0.2661 -2.1877  0.2594
   86MOL    H2117191   6.919   4.710   7.046  1.4892  0.7566  0.9138
   86MOL    C2217192   6.618   4.916   7.254  0.0379 -0.1329 -0.0692
   86MOL    C2317193   6.565   4.975   7.384 -0.1419 -0.3400 -0.9610
   86MOL    C2417194   6.618   4.903   7.510  1.0222  0.9615  0.4848
   86MOL    O2517195   6.673   4.978   7.594  0.1969  0.1271 -0.4439
   86MOL    N2617196   6.596   4.771   7.522 -0.1881  0.3892  0.4901
   86MOL    H2717197   6.607   4.807   7.256 -0.5916 -0.0537  0.9053
   86MOL    H2817198   6.550   4.939   7.172 -0.0210 -2.8715 -0.8299
   86MOL    H2917199   6.605   5.074   7.403  2.5511 -1.9382  2.1714
   86MOL    H3017200   6.632   4.726   7.606  1.1920  0.2479 -0.1708
   86MOL    H3117201   6.545   4.721   7.451  0.1381 -1.6780  1.6666
   86MOL    C3217202   6.406   4.977   7.384  0.6260 -0.0918  0.2742
   86MOL    C3317203   6.347   5.112   7.329 -0.3463 -0.1860  0.1979
   86MOL    C3417204   6.215   5.143   7.407 -0.3101 -0.4357  0.7576
   86MOL    O3517205   6.121   5.069   7.400  0.4676 -0.0738  0.3628
   86MOL    N3617206   6.198   5.265   7.462  0.4121 -0.1718 -0.6589
   86MOL    H3717207   6.378   4.980   7.489 -2.6068  1.3068 -0.5805
   86MOL    H3817208   6.371   4.887   7.334  1.9035 -0.7425  0.5356
   86MOL    H3917209   6.415   5.185   7.373 -0.0719 -0.2435 -0.1299
   86MOL    H4017210   6.266   5.339   7.456 -0.0899  0.3567  0.1457
   86MOL    H4117211   6.109   5.274   7.509  0.7051  1.9660 -0.4840
   86MOL    C4217212   6.324   5.129   7.181  0.7603  0.3487  0.1658
   86MOL    C4317213   6.419   5.232   7.125  0.4345  0.5519 -0.5154
   86MOL    C4417214   6.376   5.369   7.186  0.3189 -0.8751  0.1742
   86MOL    O4517215   6.275   5.426   7.148 -0.0895 -0.5026 -0.0994
   86MOL    N4617216   6.447   5.418   7.284 -0.4297 -0.0666  0.1292
   86MOL    H4717217   6.224   5.153   7.146  1.7437  1.9562 -1.6305
   86MOL    H4817218   6.353   5.028   7.149  1.3694  0.7048 -0.4204
   86MOL    H4917219   6.520   5.210   7.161 -0.7521  0.6905  2.9954
   86MOL    H5017220   6.524   5.368   7.326 -0.6687  0.4555  1.2197
   86MOL    H5117221   6.418   5.502   7.331 -1.5058 -0.6565  0.5279
   86MOL    C5217222   6.400   5.222   6.966 -0.1434 -0.0457 -0.5029
   86MOL    C5317223   6.483   5.310   6.858  0.8033 -0.4877 -0.1364
   86MOL    C5417224   6.431   5.458   6.853  0.6785  0.3184  0.0790
   86MOL    O5517225   6.313   5.484   6.855  0.3978  0.2670 -0.1830
   86MOL    N5617226   6.521   5.556   6.855  0.2238  0.4132 -0.1857
   86MOL    H5717227   6.298   5.212   6.927  0.2140  1.1389 -1.7847
   86MOL    H5817228   6.429   5.119   6.946  0.4839 -0.1278  0.7778
   86MOL    H5917229   6.584   5.322   6.897  0.1355  3.6050  0.5489
   86MOL    H6017230   6.480   5.641   6.820 -1.1152 -0.1805 -0.0950
   86MOL    H6117231   6.620   5.541   6.847  0.4260  1.1662  0.8558
   86MOL    C6217232   6.464   5.252   6.709  0.9526 -0.0321 -0.6696
   86MOL    C6317233   6.527   5.122   6.682  0.6366  0.7247 -0.9815
   86MOL    C6417234   6.679   5.123   6.703 -0.5978 -0.0474 -0.0310
   86MOL    O6517235   6.752   5.210   6.665 -0.4480 -0.2500 -0.5653
   86MOL    N6617236   6.740   5.012   6.756 -0.0771 -0.0574 -0.1314
   86MOL    H6717237   6.497   5.333   6.644 -1.8278  1.3863 -0.3820
   86MOL    H6817238   6.358   5.246   6.682  0.6074  0.7779  0.4647
   86MOL    H6917239   6.488   5.049   6.754 -0.0844  0.8012 -1.2826
   86MOL    H7017240   6.835   4.987   6.731 -0.2462 -1.9134  1.0161
   86MOL    H7117241   6.676   4.942   6.791 -0.1449  0.4382  0.7254
   86MOL    C7217242   6.489   5.052   6.551  0.2047  0.5544  0.2445
   86MOL    C7317243   6.346   5.005   6.538  0.3527 -0.0228 -0.7782
   86MOL    C7417244   6.317   4.900   6.645 -0.1622 -0.3296 -0.6968
   86MOL    O7517245   6.371   4.790   6.637  0.1200  0.1585  0.2327
   86MOL    N7617246   6.233   4.924   6.744  0.6390  0.3513 -0.0754
   86MOL    H7717247   6.547   4.960   6.536  0.7891  0.8457  0.7167
   86MOL    H7817248   6.516   5.126   6.475 -0.5793 -2.1887 -2.8664
   86MOL    H7917249   6.287   5.093   6.564 -2.0645 -1.5105 -1.0147
   86MOL    H8017250   6.173   5.004   6.762  0.4502 -0.1141  1.4491
   86MOL    H8117251   6.237   4.854   6.817  2.1214 -0.3736 -0.8485
   86MOL    C8217252   6.326   4.962   6.392 -0.1712  0.1972 -0.4303
   86MOL    C8317253   6.207   4.890   6.321 -0.8481 -0.0041  0.7089
   86MOL    C8417254   6.252   4.872   6.179 -0.8305  0.5151  0.6529
   86MOL    O8517255   6.239   4.961   6.100 -0.4002 -0.6337 -0.2569
   86MOL    N8617256   6.316   4.765   6.149  0.3148 -0.0983  0.2631
   86MOL    H8717257   6.414   4.899   6.388 -0.2282  0.0006  0.8991
   86MOL    H8817258   6.370   5.037   6.326  2.4156 -2.2450 -1.5280
   86MOL    H8917259   6.180   4.793   6.361 -0.8932  0.2413  1.2786
   86MOL    H9017260   6.346   4.703   6.222 -4.2459 -1.8737  0.7670
   86MOL    H9117261   6.343   4.741   6.054  2.0276  1.0255  0.4420
   86MOL    C9217262   6.083   4.976   6.325  0.2051 -0.1760 -0.2819
   86MOL    C9317263   6.003   4.991   6.459  0.3406  0.2361 -0.4249
   86MOL    C9417264   5.929   4.859   6.490  0.3134  0.1340 -0.3146
   86MOL    O9517265   5.828   4.824   6.431  0.2727 -0.0357 -0.2159
   86MOL    N9617266   5.974   4.787   6.588 -0.0584  0.4077  0.6095
   86MOL    H9717267   6.011   4.939   6.252 -1.3019 -0.9452  1.5468
   86MOL    H9817268   6.102   5.078   6.290 -3.7423  0.7084 -0.0967
   86MOL    H9917269   6.084   4.990   6.533 -0.1503 -1.4247  0.1155
   86MOL   H10017270   5.920   4.708   6.622  2.1059 -1.6998 -0.7679
   86MOL   H10117271   6.059   4.800   6.641 -0.1206  1.5775  0.4399
   86MOL   C10217272   5.898   5.115   6.466 -0.1076  0.4184 -0.1991
   86MOL   C10317273   5.961   5.252   6.430 -0.0624  0.3500  0.3309
   86MOL   C10417274   6.076   5.292   6.515  0.3251 -1.0535 -0.3104
   86MOL   O10517275   6.073   5.263   6.631  0.1918 -0.2495 -0.0058
   86MOL   N10617276   6.177   5.365   6.465  0.0681  0.0743  0.4302
   86MOL   H10717277   5.839   5.101   6.556  1.3530  0.0653  0.7181
   86MOL   H10817278   5.833   5.093   6.381  1.7901 -3.4193 -0.7805
   86MOL   H10917279   6.008   5.249   6.331 -1.3355 -0.9708 -0.2601
   86MOL   H11017280   6.171   5.404   6.372 -1.4814 -0.7344  0.1747
   86MOL   H11117281   6.259   5.386   6.520  0.6430 -0.2676 -0.2732
   86MOL   C11217282   5.856   5.363   6.418  0.3516 -0.3380 -0.3042
   86MOL   C11317283   5.790   5.421   6.549 -0.2100 -0.2265 -1.0025
   86MOL   C11417284   5.678   5.337   6.606 -0.4528  0.8486 -0.0118
   86MOL   O11517285   5.585   5.299   6.534 -0.7201  0.3602 -0.2423
   86MOL   N11617286   5.692   5.298   6.734 -0.0391 -0.1869 -0.3388
   86MOL   H11717287   5.785   5.323   6.346  1.2343 -0.7977 -0.9225
   86MOL   H11817288   5.901   5.439   6.355  0.8927  0.6772  1.2793
   86MOL   H11917289   5.874   5.416   6.618 -1.7787 -2.7348  0.7933
   86MOL   H12017290   5.618   5.249   6.783  0.3948  0.5019  1.0388
   86MOL   H12117291   5.750   5.355   6.794  2.0543 -1.2786 -1.2776
   86MOL   C12217292   5.737   5.567   6.517  0.2657  0.6143 -0.3807
   86MOL   C12317293   5.794   5.687   6.590  0.2237  0.5620 -0.5541
   86MOL   C12417294   5.685   5.799   6.587 -0.2490 -0.0676 -0.6226
   86MOL   O12517295   5.653   5.857   6.486 -0.0316  0.2200  0.5550
   86MOL   N12617296   5.630   5.822   6.705 -0.2099 -0.7809  0.0785
   86MOL   H12717297   5.630   5.567   6.535  0.5929 -2.3187  1.9901
   86MOL   H12817298   5.754   5.593   6.413  3.3623  0.4734  0.0280
   86MOL   H12917299   5.813   5.646   6.689 -0.5121 -0.6202 -0.8992
   86MOL   H13017300   5.565   5.899   6.713 -0.1147 -0.8197  1.3620
   86MOL   H13117301   5.653   5.771   6.789 -1.2497  2.3268  2.3669
   86MOL   C13217302   5.919   5.731   6.522  0.6513 -0.0343  0.2977
   86MOL   C13317303   6.031   5.807   6.595  0.3599  0.3518 -0.2459
   86MOL   C13417304   6.086   5.719   6.709 -0.1967  0.0459 -0.3562
   86MOL   O13517305   6.050   5.736   6.828 -0.2053 -0.5155  0.1880
   86MOL   N13617306   6.181   5.634   6.672  0.1222 -0.4318 -0.5691
   86MOL   H13717307   5.894   5.779   6.428  1.3350 -1.0412 -0.4065
   86MOL   H13817308   5.965   5.639   6.486  3.1733  1.0193  0.6925
   86MOL   H13917309   6.115   5.823   6.527  0.2445  2.3231  0.0289
   86MOL   H14017310   6.206   5.623   6.575  0.0393 -1.9371 -0.4354
   86MOL   H14117311   6.219   5.572   6.742 -0.3526 -0.1552 -0.0633
   86MOL   C14217312   5.991   5.951   6.634 -0.2419 -0.8252 -0.5288
   86MOL   C14317313   6.028   6.048   6.517 -0.3947 -1.0420 -0.4616
   86MOL   C14417314   6.179   6.075   6.520 -0.4413  0.4600  0.6744
   86MOL   O14517315   6.250   6.068   6.628 -0.3063  0.1346 -0.4167
   86MOL   N14617316   6.238   6.091   6.402 -0.5215 -0.1060 -0.2100
   86MOL   H14717317   6.028   5.986   6.730 -1.6969  2.1896 -0.9817
   86MOL   H14817318   5.885   5.956   6.660 -0.2758 -0.9523 -0.6424
   86MOL   H14917319   6.006   6.003   6.421  2.5431  1.5158 -2.4091
   86MOL   H15017320   6.338   6.104   6.390  0.0229 -0.4405  3.2390
   86MOL   H15117321   6.189   6.083   6.314  0.9021  1.7428 -1.2072
   86MOL   C15217322   5.949   6.183   6.513 -0.9492 -0.1218 -0.2920
   86MOL   C15317323   5.802   6.165   6.475 -0.3294 -0.4126 -0.5694
   86MOL   C15417324   5.789   6.135   6.327 -0.3837  0.0298  0.1634
   86MOL   O15517325   5.815   6.215   6.240  0.4139 -0.1434 -0.1226
   86MOL   N15617326   5.736   6.018   6.297  0.2154  0.3838  0.2111
   86MOL   H15717327   5.987   6.260   6.445 -1.6100 -0.0851 -0.6247
   86MOL   H15817328   5.967   6.207   6.617  0.6857 -0.2777 -0.5182
   86MOL   H15917329   5.775   6.075   6.531  1.8370  0.2464  1.6294
   86MOL   H16017330   5.725   5.981   6.203  0.9628 -1.0582  0.6809
   86MOL   H16117331   5.703   5.963   6.374  1.2733  1.9681  1.8344
   86MOL   C16217332   5.703   6.275   6.526 -0.1645 -0.5115  0.1901
   86MOL   C16317333   5.554   6.230   6.554 -0.5349  0.3318  0.1370
   86MOL   C16417334   5.468   6.234   6.435 -0.2780  0.4091 -0.2527
   86MOL   O16517335   5.485   6.314   6.348  0.0524 -0.1824 -0.4476
   86MOL   N16617336   5.379   6.141   6.423 -0.0327 -0.7663  0.4171
   86MOL   H16717337   5.711   6.367   6.469  2.1428 -0.2765  0.8408
   86MOL   H16817338   5.745   6.303   6.623 -0.2233 -0.0778  0.0904
   86MOL   H16917339   5.560   6.124   6.578 -0.7566  0.2273 -0.2652
   86MOL   H17017340   5.367   6.080   6.502 -0.4233 -0.5196  0.5542
   86MOL   H17117341   5.307   6.144   6.352 -1.3715  0.9184  1.7784
   86MOL   C17217342   5.480   6.315   6.659  0.0337  0.1972  0.6482
   86MOL   C17317343   5.468   6.263   6.808  0.2701  0.2076 -0.1838
   86MOL   C17417344   5.449   6.112   6.814  0.6517  0.1543 -0.3654
   86MOL   O17517345   5.389   6.055   6.721  0.0691  0.3957  0.2829
   86MOL   N17617346   5.504   6.042   6.914 -0.0841  0.2230 -0.5678
   86MOL   H17717347   5.379   6.343   6.631  0.5566  1.0472 -0.4139
   86MOL   H17817348   5.526   6.412   6.679 -1.6403  1.2870 -0.6121
   86MOL   H17917349   5.572   6.275   6.841  0.8223 -2.5980 -0.7937
   86MOL   H18017350   5.550   6.086   6.992  0.9045 -1.4882 -0.1721
   86MOL   H18117351   5.500   5.942   6.921  3.6913  0.3164  5.7910
   86MOL   C18217352   5.370   6.341   6.902  0.4022  1.6520 -0.2151
   86MOL   C18317353   5.373   6.496   6.913 -0.5816  0.0498 -0.8045
   86MOL   C18417354   5.508   6.574   6.891  0.1839  0.1119 -0.4977
   86MOL   O18517355   5.606   6.544   6.954  1.0725 -0.3600  0.9052
   86MOL   N18617356   5.509   6.667   6.798  0.1648 -0.2329  0.2694
   86MOL   H18717357   5.370   6.288   6.998  4.2391 -1.3813 -1.7402
   86MOL   H18817358   5.274   6.310   6.858  0.5128  0.7880  0.1292
   86MOL   H18917359   5.305   6.531   6.835 -1.5710  2.0967  0.9521
   86MOL   H19017360   5.592   6.724   6.792 -0.1555 -0.0629 -3.5129
   86MOL   H19117361   5.441   6.687   6.726 -0.0702  0.7212  0.7553
   86MOL   C19217362   5.303   6.533   7.046  0.5950 -0.7183  0.3657
   86MOL   C19317363   5.172   6.614   7.038  0.4419 -0.0457 -0.0050
   86MOL   C19417364   5.046   6.529   7.026  1.0303 -0.0541 -0.9147
   86MOL   O19517365   5.057   6.419   6.974  0.6606 -0.0671 -0.2977
   86MOL   N19617366   4.931   6.578   7.071  0.2857  0.4015 -0.1040
   86MOL   H19717367   5.374   6.598   7.097  0.9070  0.8209 -1.9241
   86MOL   H19817368   5.283   6.445   7.106 -4.2601  1.6773  2.4668
   86MOL   H19917369   5.160   6.674   7.129  3.0475 -0.6446  0.7871
   86MOL   H20017370   4.844   6.526   7.068  0.1772  0.6091 -0.6768
   86MOL   H20117371   4.919   6.673   7.101 -0.1798  0.4490 -0.4275
   86MOL   H20217372   5.176   6.680   6.951 -1.7588  1.3066  0.8602
   87MOL     C117373   6.650   5.607   1.416 -0.2202 -0.3802 -0.1468
   87MOL     C217374   6.530   5.657   1.502 -1.3382  0.1638 -0.8246
   87MOL     C317375   6.432   5.741   1.416 -0.2040  0.1033  0.0818
   87MOL     O417376   6.458   5.861   1.393 -0.5693  0.0769 -0.6252
   87MOL     N517377   6.328   5.679   1.359 -0.0794 -0.5865 -0.3794
   87MOL     H617378   6.707   5.531   1.470 -0.4416 -0.5868 -0.2048
   87MOL     H717379   6.614   5.564   1.323 -2.1908 -0.8483  0.7935
   87MOL     H817380   6.489   5.562   1.536 -0.1274 -0.8071 -2.0129
   87MOL     H917381   6.309   5.581   1.376 -1.1493 -0.1552  0.9870
   87MOL    H1017382   6.265   5.740   1.308 -1.9662  0.5087  3.0547
   87MOL    H1117383   6.709   5.694   1.388 -0.3455 -0.8425 -1.8860
   87MOL    C1217384   6.567   5.735   1.636  0.5665 -0.4017 -0.2572
   87MOL    C1317385   6.456   5.782   1.732 -0.3408  0.2479 -0.2941
   87MOL    C1417386   6.521   5.866   1.838 -1.3393 -0.0128 -0.0154
   87MOL    O1517387   6.605   5.825   1.915 -0.4293 -0.2553  0.0668
   87MOL    N1617388   6.499   5.995   1.819  0.1895  0.3429 -0.0172
   87MOL    H1717389   6.629   5.822   1.617 -2.8468  2.2465  0.2161
   87MOL    H1817390   6.630   5.665   1.691  0.2589  0.5390  1.3420
   87MOL    H1917391   6.384   5.836   1.670 -1.2942 -0.8809 -0.1956
   87MOL    H2017392   6.541   6.062   1.882  2.4992 -0.8723 -0.1907
   87MOL    H2117393   6.440   6.027   1.744 -1.0290 -0.8667  0.4172
   87MOL    C2217394   6.395   5.660   1.795  0.6709 -0.0696  0.9518
   87MOL    C2317395   6.242   5.643   1.767  0.3449  0.2104 -0.7007
   87MOL    C2417396   6.155   5.755   1.832  0.1779  0.1147  0.5353
   87MOL    O2517397   6.062   5.800   1.770  0.0925 -0.2683 -0.5282
   87MOL    N2617398   6.169   5.788   1.962  0.0297 -0.4676  0.3559
   87MOL    H2717399   6.401   5.664   1.904 -1.9358 -2.2154  1.2396
   87MOL    H2817400   6.438   5.565   1.761  3.5196  0.4423  2.8709
   87MOL    H2917401   6.235   5.649   1.658 -0.9575 -1.5590 -0.7320
   87MOL    H3017402   6.249   5.751   2.011 -1.5317 -2.6321  1.3715
   87MOL    H3117403   6.107   5.853   2.009  0.0413 -0.7980  0.8350
   87MOL    C3217404   6.190   5.496   1.797  1.1684 -1.1138  0.2452
   87MOL    C3317405   6.040   5.468   1.789 -0.5808 -0.3206  0.4566
   87MOL    C3417406   6.003   5.353   1.882 -0.0302  0.2009  0.2835
   87MOL    O3517407   6.046   5.241   1.863  0.1598 -0.3346 -0.1220
   87MOL    N3617408   5.926   5.384   1.985  0.4298 -0.6841  0.4203
   87MOL    H3717409   6.224   5.479   1.899 -1.7828  0.5594  1.5885
   87MOL    H3817410   6.239   5.430   1.725  1.0445  0.0593 -0.9366
   87MOL    H3917411   5.985   5.554   1.828  0.5045 -0.7598  3.0282
   87MOL    H4017412   5.889   5.312   2.046  0.6285 -0.1630  1.1662
   87MOL    H4117413   5.897   5.481   1.987 -0.4308 -0.9310 -0.0655
   87MOL    C4217414   5.989   5.449   1.646  0.1642 -0.0949 -0.4612
   87MOL    C4317415   5.960   5.577   1.567 -0.7881  0.2020  0.5114
   87MOL    C4417416   5.823   5.635   1.599 -0.6533  0.4806 -0.3785
   87MOL    O4517417   5.723   5.564   1.586  0.1473  0.9121 -0.2059
   87MOL    N4617418   5.822   5.765   1.641 -0.2113  0.0489  0.0950
   87MOL    H4717419   5.896   5.392   1.652  0.0139  0.2603  0.5744
   87MOL    H4817420   6.054   5.382   1.590  1.8519  2.3785 -1.5557
   87MOL    H4917421   6.038   5.645   1.602  2.0558 -2.6022 -0.0426
   87MOL    H5017422   5.742   5.818   1.672  2.3278  2.7601  2.3530
   87MOL    H5117423   5.913   5.808   1.652 -1.5804  4.1396 -3.1773
   87MOL    C5217424   5.995   5.568   1.420 -0.3294  0.3802 -0.0974
   87MOL    C5317425   5.944   5.449   1.336  0.8746 -0.1335  0.3770
   87MOL    C5417426   6.029   5.427   1.205  0.3583 -0.1488 -0.5014
   87MOL    O5517427   6.132   5.490   1.183  0.6176 -1.0623 -0.2763
   87MOL    N5617428   5.985   5.338   1.119  0.3546 -0.1052 -0.7453
   87MOL    H5717429   6.104   5.563   1.426 -0.4266  0.1478  1.7040
   87MOL    H5817430   5.980   5.662   1.367  0.7833 -0.1515 -1.3972
   87MOL    H5917431   5.941   5.360   1.399 -0.1827 -0.1827  0.2715
   87MOL    H6017432   6.029   5.337   1.029 -0.7194  0.2607 -1.2821
   87MOL    H6117433   5.891   5.302   1.130  0.6791 -0.6205  0.4200
   87MOL    C6217434   5.787   5.469   1.301 -0.0396 -0.0870 -0.5992
   87MOL    C6317435   5.687   5.361   1.349  0.7060 -0.1659 -0.1944
   87MOL    C6417436   5.722   5.227   1.283  0.5169 -0.0456 -0.3448
   87MOL    O6517437   5.740   5.211   1.163  0.0248  0.4406  0.1246
   87MOL    N6617438   5.738   5.121   1.370  0.0491 -0.2434 -0.2433
   87MOL    H6717439   5.782   5.474   1.192 -0.3588  1.8959 -0.5063
   87MOL    H6817440   5.755   5.571   1.319 -0.5900 -0.2719 -0.5333
   87MOL    H6917441   5.699   5.352   1.457 -1.1455  0.2304  0.0573
   87MOL    H7017442   5.726   5.033   1.321  0.7667  0.2904 -1.3961
   87MOL    H7117443   5.711   5.127   1.467  1.0654  1.9345 -0.0567
   87MOL    C7217444   5.542   5.398   1.298 -0.5727 -0.6172  0.1852
   87MOL    C7317445   5.421   5.321   1.359 -0.3703  0.1710  0.1092
   87MOL    C7417446   5.398   5.193   1.286  0.4439 -0.1272  0.7525
   87MOL    O7517447   5.439   5.086   1.340 -0.1542 -0.2198  0.3942
   87MOL    N7617448   5.347   5.194   1.166  0.2428  0.0028 -1.0152
   87MOL    H7717449   5.539   5.389   1.190 -1.4459  0.8676  0.0719
   87MOL    H7817450   5.536   5.507   1.305  1.7785 -0.4071 -0.4625
   87MOL    H7917451   5.436   5.288   1.462  1.0337  0.4567  0.0109
   87MOL    H8017452   5.340   5.104   1.122 -0.7181 -0.2843 -0.3042
   87MOL    H8117453   5.321   5.278   1.116  0.2210 -0.0404 -1.0767
   87MOL    C8217454   5.291   5.413   1.349 -0.3845  0.2440  0.3879
   87MOL    C8317455   5.283   5.529   1.451 -0.6568 -0.7460 -0.4228
   87MOL    C8417456   5.194   5.497   1.569  1.0654  1.2660 -0.2549
   87MOL    O8517457   5.070   5.497   1.569  0.2096  0.5925 -0.3047
   87MOL    N8617458   5.262   5.487   1.680 -0.3211  0.0596  0.0365
   87MOL    H8717459   5.202   5.352   1.361 -1.0697  1.2658  0.6121
   87MOL    H8817460   5.301   5.447   1.246  0.6776  1.9952  1.0553
   87MOL    H8917461   5.384   5.527   1.494 -1.6507 -0.4497  2.0028
   87MOL    H9017462   5.211   5.496   1.767 -1.1848  1.5049 -0.5938
   87MOL    H9117463   5.362   5.495   1.674 -0.4814  0.2094 -3.1996
   87MOL    C9217464   5.268   5.673   1.399 -0.7151  0.4748  0.6771
   87MOL    C9317465   5.394   5.769   1.410 -0.5105 -0.4953 -0.1466
   87MOL    C9417466   5.405   5.813   1.556  0.2029  0.5032 -0.3076
   87MOL    O9517467   5.327   5.892   1.598  0.5165  0.0754 -0.6190
   87MOL    N9617468   5.502   5.761   1.634  0.3631  0.0036  0.0472
   87MOL    H9717469   5.179   5.720   1.441 -1.4073  0.7754 -1.1097
   87MOL    H9817470   5.238   5.662   1.295 -0.7121  1.3499  0.5749
   87MOL    H9917471   5.480   5.705   1.390 -0.0502 -0.0134  0.2534
   87MOL   H10017472   5.509   5.805   1.725  0.7580  0.4366 -0.1937
   87MOL   H10117473   5.566   5.693   1.596  0.6092 -0.0514  0.5496
   87MOL   C10217474   5.390   5.885   1.310  0.5009 -0.2893 -0.9528
   87MOL   C10317475   5.474   6.013   1.317 -0.3323  0.2312  0.0069
   87MOL   C10417476   5.416   6.124   1.229 -0.3452  0.5457 -0.5241
   87MOL   O10517477   5.473   6.144   1.118  0.6238 -0.6497  0.2225
   87MOL   N10617478   5.310   6.198   1.264 -0.9197 -0.5022  0.2619
   87MOL   H10717479   5.283   5.899   1.295  0.6568  0.6531 -1.2404
   87MOL   H10817480   5.419   5.842   1.214  0.5342  0.5706 -1.3284
   87MOL   H10917481   5.482   6.055   1.418 -1.0722 -1.2187  0.6878
   87MOL   H11017482   5.247   6.175   1.340 -2.1677 -0.3373 -0.7119
   87MOL   H11117483   5.281   6.270   1.199  1.4299 -0.0775 -0.3487
   87MOL   C11217484   5.616   5.966   1.270  0.3422  0.4645 -0.3669
   87MOL   C11317485   5.737   6.045   1.325  0.0354 -0.4963  0.7078
   87MOL   C11417486   5.744   6.189   1.266 -0.3910  0.3381  0.3390
   87MOL   O11517487   5.794   6.207   1.158  0.7109  0.2377  0.2508
   87MOL   N11617488   5.702   6.284   1.348  0.0143  0.3265  0.3699
   87MOL   H11717489   5.640   5.961   1.164 -0.0426  0.0775 -0.4376
   87MOL   H11817490   5.628   5.864   1.306  1.7503  0.6325 -0.3274
   87MOL   H11917491   5.725   6.062   1.432  0.6837  1.1685  0.5298
   87MOL   H12017492   5.664   6.260   1.438  2.6029 -3.2155  0.5860
   87MOL   H12117493   5.678   6.379   1.320 -0.0933  0.5596  1.2515
   87MOL   C12217494   5.868   5.967   1.310  0.0152 -0.1729 -0.8669
   87MOL   C12317495   6.006   6.034   1.359 -0.3327  0.2671  1.4092
   87MOL   C12417496   6.126   5.961   1.281 -0.1257 -0.4662 -0.7423
   87MOL   O12517497   6.126   5.840   1.263  0.1929  0.6413  0.0938
   87MOL   N12617498   6.211   6.047   1.220  0.3004  0.5063  0.1874
   87MOL   H12717499   5.867   5.944   1.203  1.0570 -3.1720 -0.2798
   87MOL   H12817500   5.849   5.868   1.351  1.2779  0.0549  0.2908
   87MOL   H12917501   6.004   6.140   1.332  0.8457 -0.3167 -1.0875
   87MOL   H13017502   6.279   6.007   1.156 -1.0401 -2.0524  0.2907
   87MOL   H13117503   6.195   6.146   1.215 -0.2385  0.4944  1.6548
   87MOL   C13217504   6.026   6.026   1.515 -0.2136  0.0552  0.1133
   87MOL   C13317505   6.086   6.156   1.586 -0.0239  0.4693  0.8764
   87MOL   C13417506   6.241   6.172   1.563  0.4301  0.6387 -0.3346
   87MOL   O13517507   6.318   6.102   1.625 -0.0473  0.1912 -0.1166
   87MOL   N13617508   6.275   6.274   1.486  0.2744  0.0382  0.2893
   87MOL   H13717509   6.104   5.950   1.516 -0.6535 -0.4726 -1.9586
   87MOL   H13817510   5.939   5.983   1.565  0.2525 -0.5452  0.4074
   87MOL   H13917511   6.031   6.235   1.536 -0.6010  0.9819  2.2976
   87MOL   H14017512   6.209   6.307   1.417  0.2018 -0.1379  0.2738
   87MOL   H14117513   6.373   6.285   1.465  0.7497 -3.4603  0.2568
   87MOL   C14217514   6.059   6.162   1.743  0.0895  1.0737  0.4770
   87MOL   C14317515   6.092   6.303   1.803 -0.0442 -0.1071  0.5923
   87MOL   C14417516   6.223   6.319   1.877  0.0079 -0.0075 -0.6925
   87MOL   O14517517   6.244   6.432   1.933  0.2912 -0.1541  0.4296
   87MOL   N14617518   6.321   6.225   1.882 -0.0403 -0.7636 -0.2372
   87MOL   H14717519   6.125   6.095   1.798 -0.3529  1.1420  1.0990
   87MOL   H14817520   5.959   6.124   1.765  1.1383 -1.1345  1.5822
   87MOL   H14917521   6.110   6.373   1.721  0.6194  0.2791  1.0666
   87MOL   H15017522   6.407   6.250   1.930 -1.4527  1.5400  1.1740
   87MOL   H15117523   6.308   6.144   1.824  2.4736 -1.9612  0.7707
   87MOL   C15217524   5.973   6.366   1.877 -0.3657  0.9867 -0.0511
   87MOL   C15317525   5.941   6.509   1.841 -0.3266 -0.1101 -0.3998
   87MOL   C15417526   5.930   6.589   1.974 -0.3789  0.3176  0.5527
   87MOL   O15517527   5.821   6.632   2.016 -0.3226  0.6805 -0.0476
   87MOL   N15617528   6.043   6.601   2.044  0.1062  0.1096 -0.2980
   87MOL   H15717529   5.990   6.344   1.982  2.1672 -2.8703 -1.1429
   87MOL   H15817530   5.885   6.300   1.876  0.2011  0.1092  2.6702
   87MOL   H15917531   6.021   6.558   1.786 -1.0598  1.2086 -0.3308
   87MOL   H16017532   6.126   6.554   2.012  1.1864  1.7229  0.0973
   87MOL   H16117533   6.037   6.635   2.139 -0.9933  0.3269 -0.4375
   87MOL   C16217534   5.833   6.502   1.733 -0.3036  0.7270 -0.3629
   87MOL   C16317535   5.801   6.624   1.645  0.2911 -0.2535 -0.5824
   87MOL   C16417536   5.920   6.656   1.556  0.6536  0.1551  0.7160
   87MOL   O16517537   6.013   6.727   1.590  0.5091 -0.5908 -0.0088
   87MOL   N16617538   5.912   6.611   1.430  0.1543  0.0528  0.3375
   87MOL   H16717539   5.740   6.475   1.785 -0.3916  0.1481 -0.8216
   87MOL   H16817540   5.843   6.424   1.658 -0.2358 -0.4464  0.8495
   87MOL   H16917541   5.726   6.590   1.574  1.6254 -2.1423 -1.1475
   87MOL   H17017542   5.990   6.630   1.369  0.0059 -0.0801  0.1032
   87MOL   H17117543   5.826   6.569   1.397  0.2529  0.2890 -0.2269
   87MOL   C17217544   5.745   6.745   1.711  0.3675 -0.9970 -0.5950
   87MOL   C17317545   5.672   6.852   1.618 -0.1966  0.2349  0.4776
   87MOL   C17417546   5.640   6.980   1.697 -0.5127 -0.3070  0.4621
   87MOL   O17517547   5.562   6.973   1.790 -0.5696  0.4093 -1.0142
   87MOL   N17617548   5.708   7.091   1.669  0.1483 -0.6688  0.3135
   87MOL   H17717549   5.825   6.783   1.774  0.5557 -1.3260 -0.6329
   87MOL   H17817550   5.675   6.721   1.791  0.1080  2.0200  0.1512
   87MOL   H17917551   5.739   6.873   1.535 -0.1067 -0.1531  0.4477
   87MOL   H18017552   5.687   7.175   1.720 -0.9417  0.2273 -1.5933
   87MOL   H18117553   5.757   7.099   1.581  1.7400 -1.6117  1.0753
   87MOL   C18217554   5.555   6.780   1.553  0.4758  0.3009 -0.8316
   87MOL   C18317555   5.428   6.862   1.506 -0.2775 -0.2165 -0.2013
   87MOL   C18417556   5.302   6.775   1.509 -0.2706 -0.0890 -0.2774
   87MOL   O18517557   5.209   6.811   1.579  0.0428  0.3653 -0.1944
   87MOL   N18617558   5.285   6.666   1.436 -0.3658  0.7502 -0.4294
   87MOL   H18717559   5.531   6.706   1.630 -0.5249  1.6641  0.2037
   87MOL   H18817560   5.600   6.719   1.475  3.5420  1.1281  0.2266
   87MOL   H18917561   5.401   6.948   1.568 -0.0682 -0.2722 -0.0323
   87MOL   H19017562   5.195   6.622   1.446 -0.7313  1.6538  0.3301
   87MOL   H19117563   5.362   6.640   1.375  0.9698  2.0269  0.6726
   87MOL   C19217564   5.457   6.922   1.358  0.3809  0.0958 -0.3788
   87MOL   C19317565   5.364   7.035   1.322 -0.5529 -0.4907  0.0859
   87MOL   C19417566   5.409   7.175   1.369  0.0196  0.4052  0.0946
   87MOL   O19517567   5.488   7.179   1.463 -0.7088 -0.3466  0.2035
   87MOL   N19617568   5.355   7.280   1.307  0.7961  0.6826 -0.1818
   87MOL   H19717569   5.441   6.842   1.286  4.4356 -0.6990 -0.5270
   87MOL   H19817570   5.559   6.957   1.342 -0.0519  0.7905 -1.7090
   87MOL   H19917571   5.338   7.034   1.216 -0.5072 -0.6842  0.0763
   87MOL   H20017572   5.386   7.375   1.325  0.1707  0.7916  0.3498
   87MOL   H20117573   5.326   7.258   1.213  1.9567  0.9383 -0.6082
   87MOL   H20217574   5.265   7.004   1.357 -0.5396 -0.6641 -0.0263
   88MOL     C117575   1.686   3.818   2.206 -0.3651  0.2942 -0.4726
   88MOL     C217576   1.675   3.971   2.235 -0.6919  0.3412  0.2468
   88MOL     C317577   1.560   3.991   2.335  1.2103  0.1500 -0.0511
   88MOL     O417578   1.441   3.961   2.316  0.3175 -0.2731 -0.4686
   88MOL     N517579   1.603   4.046   2.452 -0.1094 -0.2603  0.2990
   88MOL     H617580   1.679   3.768   2.302  1.6056  0.0730 -0.4252
   88MOL     H717581   1.594   3.791   2.156 -2.4627  1.9155  2.3646
   88MOL     H817582   1.770   3.995   2.283 -1.6604  0.6150  2.0962
   88MOL     H917583   1.697   4.076   2.473  0.2675 -0.7899 -0.5869
   88MOL    H1017584   1.532   4.056   2.523 -1.3144 -0.0359 -0.9244
   88MOL    H1117585   1.775   3.790   2.150  0.2340  0.4182  0.3962
   88MOL    C1217586   1.643   4.043   2.101  0.5630 -0.1910 -0.1382
   88MOL    C1317587   1.616   4.191   2.089  0.4016 -0.0457 -0.4903
   88MOL    C1417588   1.549   4.230   1.953  0.0307  0.3915 -0.7653
   88MOL    O1517589   1.619   4.273   1.860  0.2213 -0.2316 -0.5807
   88MOL    N1617590   1.417   4.236   1.945  0.2875 -0.4284  0.6133
   88MOL    H1717591   1.562   3.989   2.053 -1.2318  0.3318  2.2019
   88MOL    H1817592   1.731   4.021   2.041  1.3313  1.2498  0.4504
   88MOL    H1917593   1.541   4.220   2.162 -1.4438 -3.8142 -0.7983
   88MOL    H2017594   1.363   4.206   2.025 -0.5644 -1.2149 -0.2451
   88MOL    H2117595   1.374   4.244   1.855  0.3860 -0.3048  0.5774
   88MOL    C2217596   1.759   4.259   2.106  0.5771 -0.5387 -0.2037
   88MOL    C2317597   1.762   4.406   2.155 -0.2095 -0.1178  0.0088
   88MOL    C2417598   1.886   4.488   2.117  0.5637  0.1330 -0.0312
   88MOL    O2517599   2.000   4.443   2.118 -0.6374 -0.7265  0.2444
   88MOL    N2617600   1.868   4.607   2.067  0.2645  0.2624 -0.1272
   88MOL    H2717601   1.812   4.252   2.012  2.4331  2.5789  0.5315
   88MOL    H2817602   1.822   4.208   2.179  0.9799 -0.5478 -0.5560
   88MOL    H2917603   1.677   4.458   2.110 -0.2984  0.1099  0.4342
   88MOL    H3017604   1.945   4.660   2.028 -1.5123  1.4441 -2.1439
   88MOL    H3117605   1.774   4.644   2.066  1.0625  2.4564  1.6331
   88MOL    C3217606   1.737   4.414   2.313  0.0450  0.6491  0.3127
   88MOL    C3317607   1.591   4.428   2.363 -0.0307 -0.2264  0.0742
   88MOL    C3417608   1.533   4.560   2.322  0.0933  1.2571 -0.0156
   88MOL    O3517609   1.584   4.669   2.345 -0.3158 -0.9679 -0.0358
   88MOL    N3617610   1.409   4.549   2.260 -0.1991 -0.8850  1.0059
   88MOL    H3717611   1.788   4.502   2.353 -1.2783  2.2600 -1.4278
   88MOL    H3817612   1.779   4.325   2.361  0.1099  0.2345 -0.5022
   88MOL    H3917613   1.528   4.353   2.315 -0.0293 -0.6064  0.6602
   88MOL    H4017614   1.346   4.627   2.260  0.8839  0.0033  1.8602
   88MOL    H4117615   1.371   4.460   2.232  1.9901 -0.8484 -2.3263
   88MOL    C4217616   1.567   4.397   2.515  0.2177 -0.0055  0.0824
   88MOL    C4317617   1.660   4.469   2.617 -0.5149 -0.2633 -0.1400
   88MOL    C4417618   1.787   4.389   2.650  0.4886  0.4301  0.2275
   88MOL    O4517619   1.793   4.265   2.634  0.1882  0.1978  0.2347
   88MOL    N4617620   1.897   4.452   2.684 -0.1002  0.2850  0.7651
   88MOL    H4717621   1.591   4.291   2.514 -0.4159 -0.1707 -3.1855
   88MOL    H4817622   1.460   4.412   2.531  0.0412 -0.1906 -0.8616
   88MOL    H4917623   1.693   4.558   2.564 -1.3696  0.7769  1.0495
   88MOL    H5017624   1.985   4.402   2.681 -1.2662 -1.6795 -1.4222
   88MOL    H5117625   1.892   4.551   2.703  1.2327  0.7419 -1.1392
   88MOL    C5217626   1.598   4.504   2.754 -0.7305 -0.1002 -0.0444
   88MOL    C5317627   1.481   4.605   2.749 -0.1984  0.9961  0.1329
   88MOL    C5417628   1.512   4.738   2.695  0.2574  0.4241  0.3880
   88MOL    O5517629   1.598   4.809   2.746 -0.1203 -0.4320  0.2806
   88MOL    N5617630   1.436   4.779   2.596 -0.6525 -0.4224  0.6426
   88MOL    H5717631   1.675   4.541   2.821 -0.8255 -1.3095  0.7409
   88MOL    H5817632   1.557   4.413   2.796  0.3431 -1.4865 -1.9081
   88MOL    H5917633   1.406   4.562   2.683 -0.4828  0.3407  0.8746
   88MOL    H6017634   1.368   4.715   2.556 -0.4530 -0.7785  0.8641
   88MOL    H6117635   1.451   4.866   2.547 -0.6542 -1.8757 -2.0686
   88MOL    C6217636   1.411   4.610   2.886 -0.0797  0.6089  0.3199
   88MOL    C6317637   1.314   4.486   2.896  0.3830 -0.0807 -0.1080
   88MOL    C6417638   1.163   4.525   2.883  0.7249  0.0657 -0.2367
   88MOL    O6517639   1.119   4.638   2.878  0.2571 -0.0512  0.2828
   88MOL    N6617640   1.092   4.414   2.869  0.3392  0.2011  0.2950
   88MOL    H6717641   1.354   4.703   2.893 -3.5066 -1.5339  2.5299
   88MOL    H6817642   1.490   4.617   2.961  2.2393  0.9955 -2.0914
   88MOL    H6917643   1.336   4.420   2.812  2.6171 -1.3520  1.4341
   88MOL    H7017644   0.992   4.403   2.868  0.1413  1.7580 -1.8175
   88MOL    H7117645   1.148   4.334   2.845 -2.5484 -2.2353  1.3973
   88MOL    C7217646   1.370   4.397   3.006  0.3152  0.0402 -0.5119
   88MOL    C7317647   1.324   4.412   3.150 -0.0578 -0.5289 -0.9091
   88MOL    C7417648   1.415   4.514   3.223  0.1040 -0.0492 -0.3977
   88MOL    O7517649   1.525   4.491   3.256  0.2492  0.0651  0.1670
   88MOL    N7617650   1.359   4.631   3.261  0.5901 -0.2558  0.1762
   88MOL    H7717651   1.478   4.389   2.999  0.2464 -2.0787  0.6067
   88MOL    H7817652   1.350   4.295   2.973 -0.6161 -0.5094  1.7033
   88MOL    H7917653   1.221   4.447   3.144  0.1757  0.2601 -0.3575
   88MOL    H8017654   1.260   4.649   3.257  0.9842  1.7693 -1.4518
   88MOL    H8117655   1.428   4.702   3.280 -0.0654  0.6592 -0.7578
   88MOL    C8217656   1.338   4.272   3.231  0.1606  0.0084 -0.1837
   88MOL    C8317657   1.233   4.239   3.346 -0.9697  0.1317 -0.0491
   88MOL    C8417658   1.275   4.124   3.441  0.4032  0.2502  0.2680
   88MOL    O8517659   1.200   4.047   3.497 -0.1393 -0.0383 -0.4347
   88MOL    N8617660   1.401   4.109   3.459 -0.9131 -0.3290 -0.1518
   88MOL    H8717661   1.436   4.264   3.277  0.9372  0.6862 -1.6762
   88MOL    H8817662   1.343   4.187   3.164 -2.5934  0.1497 -0.6415
   88MOL    H8917663   1.231   4.331   3.406 -1.9057  0.4475 -0.5547
   88MOL    H9017664   1.436   4.038   3.523  1.2303 -0.4743 -1.4239
   88MOL    H9117665   1.464   4.182   3.431 -0.9196 -0.7813 -1.3971
   88MOL    C9217666   1.090   4.219   3.290 -0.2047  0.5998  0.2029
   88MOL    C9317667   1.067   4.086   3.209 -0.4068 -1.0517  0.2853
   88MOL    C9417668   1.062   4.112   3.056 -0.8293 -0.2196  0.1932
   88MOL    O9517669   0.963   4.157   3.005 -0.1374  0.2198  0.0931
   88MOL    N9617670   1.169   4.100   2.974  0.0660  0.3823  0.2038
   88MOL    H9717671   1.069   4.300   3.220 -0.1522  1.4355  1.1594
   88MOL    H9817672   1.020   4.225   3.373 -0.3640 -2.8761  0.3895
   88MOL    H9917673   1.147   4.015   3.232  0.9518  0.6632  1.0306
   88MOL   H10017674   1.155   4.120   2.876  1.1738  2.3538  0.4076
   88MOL   H10117675   1.260   4.073   3.008  0.1721  0.7969  0.2553
   88MOL   C10217676   0.944   4.017   3.262 -0.1093  0.3223 -0.7737
   88MOL   C10317677   0.940   3.859   3.248  0.0860  0.3705  0.7265
   88MOL   C10417678   0.867   3.807   3.124 -0.3035 -0.6081  0.0686
   88MOL   O10517679   0.744   3.827   3.101  0.1552 -0.0436  0.1053
   88MOL   N10617680   0.941   3.753   3.026 -0.4565  0.5164  0.1476
   88MOL   H10717681   0.850   4.045   3.215 -0.1605 -0.5379 -1.1975
   88MOL   H10817682   0.931   4.033   3.369  0.1363  2.9318 -1.1041
   88MOL   H10917683   1.035   3.808   3.240  0.5817  1.4946 -0.6915
   88MOL   H11017684   1.041   3.738   3.034 -0.0273  2.3356 -1.4204
   88MOL   H11117685   0.900   3.736   2.936  2.4741  0.9266 -1.3040
   88MOL   C11217686   0.862   3.805   3.376 -0.6014  0.0434  0.2832
   88MOL   C11317687   0.943   3.794   3.502 -0.3251 -0.4132 -0.5525
   88MOL   C11417688   1.064   3.706   3.476 -0.1358 -0.1084  0.7348
   88MOL   O11517689   1.052   3.593   3.437 -0.5047 -0.1492  0.0712
   88MOL   N11617690   1.187   3.755   3.490  0.2911 -0.1966 -0.1198
   88MOL   H11717691   0.828   3.703   3.356  0.2875 -0.4424  1.1575
   88MOL   H11817692   0.767   3.854   3.390 -1.7347 -1.6380 -1.1881
   88MOL   H11917693   0.983   3.894   3.520  2.6593 -1.3428 -1.6832
   88MOL   H12017694   1.196   3.855   3.506 -0.4853  0.0355 -1.0784
   88MOL   H12117695   1.270   3.698   3.486  0.1905 -0.5835  2.5077
   88MOL   C12217696   0.834   3.744   3.611 -0.0671  0.2355  0.0476
   88MOL   C12317697   0.879   3.729   3.761  0.1021 -0.2172  0.6872
   88MOL   C12417698   0.918   3.871   3.811 -0.2733  0.5065  0.2356
   88MOL   O12517699   1.013   3.937   3.771 -0.7008  0.6372  0.2476
   88MOL   N12617700   0.843   3.921   3.906  0.4469 -0.1872 -0.4662
   88MOL   H12717701   0.783   3.655   3.574  0.1977 -0.6870  1.8398
   88MOL   H12817702   0.766   3.829   3.610 -0.0272  0.2642 -1.4217
   88MOL   H12917703   0.784   3.704   3.809 -1.5110  2.9082 -0.7009
   88MOL   H13017704   0.776   3.860   3.950  0.3367  0.9947  1.0362
   88MOL   H13117705   0.874   4.001   3.960 -0.3797  0.5765 -1.0930
   88MOL   C13217706   0.978   3.619   3.796  0.5874  0.5223  0.2359
   88MOL   C13317707   0.944   3.470   3.760 -0.0468  0.8896  1.2040
   88MOL   C13417708   0.810   3.424   3.817 -0.1001 -0.2110  0.2308
   88MOL   O13517709   0.799   3.409   3.936 -0.2198  0.5322 -0.3271
   88MOL   N13617710   0.711   3.407   3.737 -0.0926 -0.0200  0.4077
   88MOL   H13717711   0.997   3.622   3.904 -0.1423 -1.0320  0.4211
   88MOL   H13817712   1.079   3.644   3.765  1.1240  0.1101  1.5812
   88MOL   H13917713   0.924   3.461   3.654  0.3092 -1.6697  1.3287
   88MOL   H14017714   0.619   3.409   3.778 -0.3859  0.6127 -0.2715
   88MOL   H14117715   0.715   3.411   3.636  1.7059 -1.4565  0.3922
   88MOL   C14217716   1.054   3.367   3.798 -0.6549 -0.6096 -0.4634
   88MOL   C14317717   1.175   3.357   3.696  0.5448 -0.5385 -0.5404
   88MOL   C14417718   1.133   3.266   3.578  0.1961  0.1795 -0.1779
   88MOL   O14517719   1.107   3.148   3.596 -0.4472  0.0061 -0.6181
   88MOL   N14617720   1.130   3.321   3.460  0.2523  0.5565 -0.2812
   88MOL   H14717721   1.013   3.268   3.815 -0.7727 -0.6098 -0.7422
   88MOL   H14817722   1.094   3.408   3.891 -1.7976  1.4539 -0.8455
   88MOL   H14917723   1.164   3.457   3.654 -1.3505 -0.6027 -0.2379
   88MOL   H15017724   1.122   3.255   3.385 -1.7722  1.5318 -0.9494
   88MOL   H15117725   1.141   3.421   3.450  2.8715  0.4048  0.6421
   88MOL   C15217726   1.307   3.324   3.771  0.7106  0.4974 -0.2048
   88MOL   C15317727   1.437   3.339   3.684 -0.1853  0.5407 -0.5587
   88MOL   C15417728   1.456   3.463   3.601  0.1161  0.6417  0.3378
   88MOL   O15517729   1.387   3.484   3.506 -0.1998 -0.3712  0.1197
   88MOL   N15617730   1.541   3.552   3.642 -0.1445 -0.2562 -0.1438
   88MOL   H15717731   1.276   3.234   3.825 -0.2128 -0.0658 -1.6552
   88MOL   H15817732   1.318   3.404   3.844 -0.3485 -1.4644  2.1621
   88MOL   H15917733   1.518   3.331   3.757  2.2451  0.5409 -3.1794
   88MOL   H16017734   1.600   3.521   3.718 -2.2116 -1.6637  0.9385
   88MOL   H16117735   1.557   3.645   3.607  0.6555 -0.2151  0.3218
   88MOL   C16217736   1.451   3.213   3.593 -0.2481 -0.7762  0.0395
   88MOL   C16317737   1.426   3.067   3.649  0.1942 -0.5715 -0.5469
   88MOL   C16417738   1.516   3.042   3.775  0.1025  0.0696  0.8589
   88MOL   O16517739   1.629   3.090   3.775  0.1652  0.3020 -0.3848
   88MOL   N16617740   1.468   2.978   3.876 -0.0104  0.1437 -0.4278
   88MOL   H16717741   1.541   3.225   3.533 -0.8661 -2.0776 -1.2087
   88MOL   H16817742   1.382   3.222   3.509  0.6497 -0.9989 -0.7351
   88MOL   H16917743   1.321   3.082   3.673 -0.2483  0.6567 -3.0510
   88MOL   H17017744   1.378   2.933   3.873 -0.1803  0.4976 -0.7997
   88MOL   H17117745   1.529   2.954   3.953  0.4979 -0.4998 -1.0284
   88MOL   C17217746   1.446   2.956   3.552  0.5754 -0.7620  0.1803
   88MOL   C17317747   1.330   2.959   3.439  0.5727  0.4393 -0.1031
   88MOL   C17417748   1.236   2.840   3.470 -0.3927  0.3794  0.6959
   88MOL   O17517749   1.268   2.725   3.441  0.6545  0.1949 -0.7721
   88MOL   N17617750   1.127   2.864   3.536  0.1844 -0.0288 -0.0779
   88MOL   H17717751   1.446   2.854   3.590 -0.0952 -0.4666  0.9989
   88MOL   H17817752   1.547   2.967   3.513  0.6342 -1.6825  0.0782
   88MOL   H17917753   1.286   3.059   3.448  0.1047  0.1518  0.9528
   88MOL   H18017754   1.064   2.786   3.548 -3.0382  2.4999  0.0362
   88MOL   H18117755   1.113   2.963   3.551 -0.0182 -0.4793  3.0114
   88MOL   C18217756   1.372   2.952   3.289  0.4831  0.3352 -0.5719
   88MOL   C18317757   1.455   3.073   3.242 -0.6753 -0.4033  0.2975
   88MOL   C18417758   1.366   3.193   3.210  0.6123  0.3544 -0.2045
   88MOL   O18517759   1.259   3.174   3.144 -0.2602  0.3306  0.4977
   88MOL   N18617760   1.397   3.316   3.245  0.5652 -0.2957 -0.4860
   88MOL   H18717761   1.304   2.926   3.208 -0.1592  0.7980 -0.1791
   88MOL   H18817762   1.449   2.875   3.281  0.8275  0.7151 -0.9779
   88MOL   H18917763   1.532   3.104   3.312 -0.0077 -0.6860 -0.3038
   88MOL   H19017764   1.452   3.337   3.327  1.4539 -2.1948 -0.5445
   88MOL   H19117765   1.342   3.394   3.212 -0.2290 -1.3545 -1.7241
   88MOL   C19217766   1.541   3.031   3.114 -0.4600  0.8964 -1.0551
   88MOL   C19317767   1.475   3.039   2.978  0.2954  0.6892  0.7437
   88MOL   C19417768   1.535   3.159   2.900  0.2626 -0.5373  0.2199
   88MOL   O19517769   1.482   3.273   2.908  0.5510 -0.0425  0.1239
   88MOL   N19617770   1.638   3.143   2.821  0.4784  0.0476  0.6175
   88MOL   H19717771   1.589   2.934   3.122 -0.6488  0.8494 -0.4982
   88MOL   H19817772   1.626   3.098   3.104  1.3453 -1.0617  0.9305
   88MOL   H19917773   1.517   2.952   2.928  2.1255  2.5138 -1.0158
   88MOL   H20017774   1.679   3.054   2.796 -1.5482 -0.8269  0.3407
   88MOL   H20117775   1.653   3.217   2.754 -2.0747  0.1610  0.1216
   88MOL   H20217776   1.366   3.036   2.971  0.3340 -1.8246  1.0241
   89MOL     C117777   2.741   2.003   7.430  0.1932  0.3997  0.2191
   89MOL     C217778   2.757   2.111   7.538  0.0602 -0.0715 -0.3177
   89MOL     C317779   2.849   2.062   7.655  0.2410 -0.7185  0.2943
   89MOL     O417780   2.960   2.031   7.624 -0.2759 -0.4830 -0.3533
   89MOL     N517781   2.801   2.034   0.120 -0.1074  0.5303  0.1582
   89MOL     H617782   2.647   2.028   7.380  0.0328  1.4564  1.0171
   89MOL     H717783   2.818   1.997   7.353  1.3023 -1.2779  1.4301
   89MOL     H817784   2.807   2.194   7.489 -0.2338  0.2869 -0.0114
   89MOL     H917785   2.703   2.045   0.141 -0.0131  0.8791  0.4089
   89MOL    H1017786   2.862   1.985   0.184  0.0364  1.5640  0.8300
   89MOL    H1117787   2.727   1.911   7.485 -0.7746 -0.7003 -1.8152
   89MOL    C1217788   2.625   2.174   7.591 -0.4223 -0.3311 -0.1811
   89MOL    C1317789   2.513   2.225   7.495  0.1359  0.0856 -0.0453
   89MOL    C1417790   2.561   2.300   7.368 -0.1400 -0.1441 -0.3528
   89MOL    O1517791   2.630   2.404   7.379  0.5523  0.5999 -0.0799
   89MOL    N1617792   2.536   2.251   7.249  0.1830 -0.1140 -0.3127
   89MOL    H1717793   2.666   2.245   0.006  0.2550 -0.4217 -0.4704
   89MOL    H1817794   2.574   2.100   7.652  0.1759  0.8171  1.7410
   89MOL    H1917795   2.455   2.138   7.467  1.9144 -0.9615 -0.5481
   89MOL    H2017796   2.486   2.166   7.229 -0.3095  0.1515 -0.2084
   89MOL    H2117797   2.563   2.309   7.170  1.1482 -0.7937 -0.4945
   89MOL    C2217798   2.411   2.309   7.585  0.3816  0.2171 -0.5048
   89MOL    C2317799   2.267   2.334   7.531 -0.0082 -0.3991 -0.8261
   89MOL    C2417800   2.267   2.456   7.431 -0.1418  0.6305 -0.1150
   89MOL    O2517801   2.311   2.568   7.462 -0.1318  0.8305  0.2281
   89MOL    N2617802   2.210   2.423   7.313 -0.2323  0.7352 -0.5662
   89MOL    H2717803   2.463   2.402   7.607 -0.4033  0.6198 -0.3038
   89MOL    H2817804   2.403   2.250   0.019 -1.4604 -0.0983 -0.8353
   89MOL    H2917805   2.230   2.246   7.478 -3.9364  0.6032  0.1196
   89MOL    H3017806   2.149   2.343   7.301  0.5199 -0.0641  0.7578
   89MOL    H3117807   2.218   2.490   7.238  3.3629  0.7963 -0.1734
   89MOL    C3217808   2.168   2.368   7.645  0.6153 -0.2480  0.5991
   89MOL    C3317809   2.014   2.347   7.610 -0.8340 -0.0539  0.3488
   89MOL    C3417810   1.949   2.479   7.576 -0.1438 -0.6388  0.4085
   89MOL    O3517811   1.983   2.581   7.638  0.3369 -0.1174 -0.4482
   89MOL    N3617812   1.853   2.474   7.484  0.4360  0.4962 -0.2258
   89MOL    H3717813   2.198   2.469   0.016 -0.1333  0.0067  0.5022
   89MOL    H3817814   2.200   2.307   0.072  2.7155 -0.4290 -0.3235
   89MOL    H3917815   2.006   2.281   7.523 -0.4021 -0.8555  0.9033
   89MOL    H4017816   1.793   2.552   7.461  0.4444  0.1046 -1.6258
   89MOL    H4117817   1.834   2.385   7.440 -1.9632  1.0367 -0.3699
   89MOL    C4217818   1.935   2.280   0.064 -0.0181 -0.0907 -0.1376
   89MOL    C4317819   1.929   2.344   0.206  0.3963  0.2819 -0.5783
   89MOL    C4417820   1.985   2.254   0.321 -0.0545 -0.2176  0.5232
   89MOL    O4517821   1.946   2.141   0.336  0.1476 -0.1374 -0.1177
   89MOL    N4617822   2.073   2.303   0.403  0.0115 -0.4793 -0.2647
   89MOL    H4717823   1.990   2.189   0.088 -2.5490 -0.8194  3.4148
   89MOL    H4817824   1.837   2.245   0.034 -1.1660  0.7530  2.4742
   89MOL    H4917825   1.993   2.432   0.205  0.4679  0.2319 -2.5586
   89MOL    H5017826   2.122   2.240   0.465 -1.7732  0.7248  2.4716
   89MOL    H5117827   2.121   2.390   0.382  3.0478 -2.1251 -0.4712
   89MOL    C5217828   1.781   2.390   0.235 -0.8885 -0.0932  0.3686
   89MOL    C5317829   1.758   2.464   0.371 -0.1414  0.5336 -0.1855
   89MOL    C5417830   1.641   2.399   0.446  0.0247  0.3843 -0.1903
   89MOL    O5517831   1.526   2.425   0.419  0.0501  0.1925  0.6399
   89MOL    N5617832   1.669   2.304   0.535 -0.3837  0.0024  0.8531
   89MOL    H5717833   1.726   2.296   0.222 -0.4723  0.0138 -2.5489
   89MOL    H5817834   1.753   2.456   0.154  0.1055  0.1120  0.1847
   89MOL    H5917835   1.845   2.457   0.436 -1.1054  0.7641  1.1440
   89MOL    H6017836   1.597   2.264   0.594 -1.2353  0.4481  0.1357
   89MOL    H6117837   1.763   2.293   0.570 -0.7175 -2.8128  0.9365
   89MOL    C6217838   1.736   2.616   0.364 -0.2180  0.1417  0.5104
   89MOL    C6317839   1.839   2.705   0.284  0.1502  0.1420 -0.1557
   89MOL    C6417840   1.988   2.699   0.323 -0.3843 -1.0862 -0.2238
   89MOL    O6517841   2.025   2.708   0.444 -0.2972  0.2951  0.5734
   89MOL    N6617842   2.067   2.674   0.221 -0.0061  0.1741 -0.1706
   89MOL    H6717843   1.748   2.648   0.467  1.2365  2.5877 -0.3920
   89MOL    H6817844   1.635   2.640   0.330  0.3914 -0.2282 -1.6607
   89MOL    H6917845   1.829   2.664   0.183 -1.6384 -0.0702  0.1027
   89MOL    H7017846   2.025   2.655   0.131 -0.4382 -0.2778  0.1238
   89MOL    H7117847   2.158   2.640   0.246  0.2001  1.7289  1.2835
   89MOL    C7217848   1.795   2.850   0.307  0.5032 -0.3000  0.0112
   89MOL    C7317849   1.873   2.955   0.219  0.0862  0.3371  0.2274
   89MOL    C7417850   1.819   3.091   0.271  0.1485 -0.3553  0.1049
   89MOL    O7517851   1.904   3.168   0.324 -0.1642  0.4069 -0.5926
   89MOL    N7617852   1.694   3.124   0.258 -0.2413  0.2142 -0.3430
   89MOL    H7717853   1.819   2.858   0.413 -0.7732 -0.5793  0.3310
   89MOL    H7817854   1.688   2.867   0.307  0.5341 -0.0590  1.4546
   89MOL    H7917855   1.979   2.954   0.243  0.8871  2.4028 -2.8798
   89MOL    H8017856   1.673   3.220   0.238 -1.3761 -0.1564 -0.9727
   89MOL    H8117857   1.615   3.062   0.245  0.0615 -0.0167 -1.0949
   89MOL    C8217858   1.860   2.937   0.064 -0.3662 -0.0153 -0.2270
   89MOL    C8317859   1.971   2.996   7.637  0.5240 -0.2597  0.3501
   89MOL    C8417860   1.954   3.144   7.620  0.0789 -0.3527 -0.5990
   89MOL    O8517861   2.039   3.218   0.006 -0.8238 -0.5192  0.2346
   89MOL    N8617862   1.846   3.183   7.561  0.4749 -0.4107 -0.0746
   89MOL    H8717863   1.760   2.975   0.046 -0.2584 -0.0903 -1.0056
   89MOL    H8817864   1.861   2.828   0.056 -0.7632  0.1167 -2.4874
   89MOL    H8917865   2.064   2.977   0.034 -0.3592 -0.3931  1.8473
   89MOL    H9017866   1.847   3.280   7.533  1.4212 -0.3032  0.2945
   89MOL    H9117867   1.769   3.122   7.542  0.3568  0.4976 -2.7093
   89MOL    C9217868   1.988   2.931   7.498 -0.3260  0.2571  0.5551
   89MOL    C9317869   2.102   2.969   7.392 -0.4569  0.0631 -0.4117
   89MOL    C9417870   2.087   3.107   7.331 -0.4396  0.1156 -0.0339
   89MOL    O9517871   1.988   3.135   7.268  0.5077  0.2455 -0.2455
   89MOL    N9617872   2.183   3.193   7.348 -0.4298 -0.6779 -0.0735
   89MOL    H9717873   1.898   2.939   7.437  0.0843 -0.2716 -0.1268
   89MOL    H9817874   2.000   2.825   7.521  3.2526  0.3816 -0.4654
   89MOL    H9917875   2.197   2.963   7.445  1.8623 -0.3589 -4.3938
   89MOL   H10017876   2.260   3.163   7.405 -0.7149  1.1069  1.2813
   89MOL   H10117877   2.183   3.284   7.305  0.8106 -0.6464 -0.0357
   89MOL   C10217878   2.129   2.861   7.285 -0.4091  0.4019 -0.5244
   89MOL   C10317879   2.251   2.868   7.191 -0.3019  0.1490 -0.1034
   89MOL   C10417880   2.247   2.743   7.095 -0.1995  0.0375 -0.3924
   89MOL   O10517881   2.277   2.631   7.132 -0.2846  0.3847  0.1050
   89MOL   N10617882   2.225   2.760   6.964 -0.3116 -0.7481  0.1344
   89MOL   H10717883   2.037   2.865   7.226 -0.5880  1.0082 -0.2194
   89MOL   H10817884   2.132   2.765   7.336  0.6552  1.2620  1.0732
   89MOL   H10917885   2.253   2.957   7.130 -0.0366  0.3872  0.2522
   89MOL   H11017886   2.210   2.679   6.906  2.2064 -1.2808  0.1729
   89MOL   H11117887   2.191   2.850   6.933  0.5761 -0.1236  0.9499
   89MOL   C11217888   2.380   2.893   7.274  0.2371 -0.2599 -0.1665
   89MOL   C11317889   2.508   2.878   7.197  0.8627  0.9569  0.0731
   89MOL   C11417890   2.587   2.758   7.251  0.5499 -0.2219 -0.4569
   89MOL   O11517891   2.683   2.770   7.324  0.6246  0.2430 -0.1163
   89MOL   N11617892   2.539   2.640   7.230  0.3615  0.7697  0.0875
   89MOL   H11717893   2.381   2.824   7.358 -1.5561  0.3725  0.3966
   89MOL   H11817894   2.370   2.997   7.306 -1.3654  0.2116 -2.0890
   89MOL   H11917895   2.481   2.852   7.094  0.0933 -2.9904  1.1907
   89MOL   H12017896   2.457   2.642   7.171  1.0154  2.3774 -0.8035
   89MOL   H12117897   2.581   2.551   7.253 -1.9696 -0.6669 -0.9617
   89MOL   C12217898   2.593   3.006   7.176  0.7253 -0.4547 -0.3559
   89MOL   C12317899   2.683   3.071   7.280 -0.0974  0.6676  0.5441
   89MOL   C12417900   2.609   3.088   7.418  0.3590 -0.3118 -0.4401
   89MOL   O12517901   2.537   3.189   7.431  0.3635  0.1379  0.4199
   89MOL   N12617902   2.615   2.991   7.505  0.0284 -0.6186 -0.1776
   89MOL   H12717903   2.514   3.069   7.137 -1.3408 -2.2808  0.7997
   89MOL   H12817904   2.661   2.991   7.091  0.2648 -0.3926 -0.7354
   89MOL   H12917905   2.772   3.012   7.300 -1.0357 -0.8387  0.3370
   89MOL   H13017906   2.571   3.005   7.595  0.5657  0.0315 -0.0054
   89MOL   H13117907   2.645   2.903   7.466  2.0147 -0.9789  2.0310
   89MOL   C13217908   2.747   3.202   7.215 -0.1653 -0.0507 -0.2715
   89MOL   C13317909   2.864   3.249   7.302 -0.0400  0.1835  0.0647
   89MOL   C13417910   2.835   3.314   7.435  0.1534 -0.0136  0.1054
   89MOL   O13517911   2.771   3.416   7.450 -0.1066  0.2284  0.1577
   89MOL   N13617912   2.866   3.237   7.541  0.8442 -0.1546  0.2026
   89MOL   H13717913   2.668   3.275   7.203 -0.3556 -0.1599  0.3068
   89MOL   H13817914   2.787   3.183   7.116 -0.9930  1.2674 -0.8626
   89MOL   H13917915   2.932   3.165   7.319  0.6430  0.1452 -2.5676
   89MOL   H14017916   2.833   3.261   7.633 -0.2613  0.6009 -0.3769
   89MOL   H14117917   2.896   3.142   7.524 -1.2510 -1.0480  1.2135
   89MOL   C14217918   2.970   3.322   7.230  0.2809 -0.0632  0.2460
   89MOL   C14317919   2.952   3.472   7.173  0.4823  0.5123  0.0831
   89MOL   C14417920   2.816   3.482   7.093  0.7934  0.3895 -0.0683
   89MOL   O14517921   2.805   3.435   6.979  0.0452 -0.3119 -0.3515
   89MOL   N14617922   2.715   3.537   7.160 -0.3974 -0.2239 -0.3079
   89MOL   H14717923   3.005   3.264   7.145 -1.0524  0.2799 -0.5621
   89MOL   H14817924   3.052   3.337   7.300 -0.1882  1.5939  0.4563
   89MOL   H14917925   2.953   3.533   7.264 -0.8427  1.3758 -0.4678
   89MOL   H15017926   2.625   3.550   7.115 -1.3953  0.9402  1.9774
   89MOL   H15117927   2.722   3.578   7.251  2.2808  0.3142 -0.7350
   89MOL   C15217928   3.074   3.535   7.095 -0.4681 -0.3951  0.2232
   89MOL   C15317929   3.090   3.687   7.113 -0.3105 -0.4731  0.6738
   89MOL   C15417930   3.154   3.746   6.990 -0.6486  0.0890 -0.2883
   89MOL   O15517931   3.273   3.746   6.971  0.6902  0.0941  0.8403
   89MOL   N15617932   3.074   3.796   6.902 -0.2208  0.1946  0.2326
   89MOL   H15717933   3.053   3.510   6.991 -0.1545 -0.1289  0.0955
   89MOL   H15817934   3.162   3.476   7.121 -1.2052 -0.3649  2.9456
   89MOL   H15917935   2.990   3.730   7.115  0.5915  1.7304  1.0248
   89MOL   H16017936   2.975   3.809   6.919  0.0600 -0.3114  2.3418
   89MOL   H16117937   3.109   3.862   6.833  3.0373 -0.5376  1.1305
   89MOL   C16217938   3.156   3.734   7.246  0.1016 -0.0941  0.3709
   89MOL   C16317939   3.158   3.892   7.269 -0.0658  0.8634  0.8944
   89MOL   C16417940   3.292   3.949   7.305 -0.4390  0.4615  0.7669
   89MOL   O16517941   3.333   3.931   7.415  0.1070 -0.0839  0.0476
   89MOL   N16617942   3.351   4.032   7.222  0.1724 -0.3790  0.6115
   89MOL   H16717943   3.255   3.691   7.255 -0.6243 -1.3495  2.7371
   89MOL   H16817944   3.104   3.681   7.326 -3.4286  2.2227 -0.2496
   89MOL   H16917945   3.148   3.939   7.172  0.9725 -2.7000 -1.0172
   89MOL   H17017946   3.300   4.068   7.142 -1.4818  0.5980  2.0731
   89MOL   H17117947   3.444   4.067   7.236 -0.8083  2.5973  0.2234
   89MOL   C17217948   3.052   3.961   7.356 -0.3664  0.4690  0.5026
   89MOL   C17317949   2.918   3.993   7.282  0.5040  0.0938  0.1085
   89MOL   C17417950   2.933   4.114   7.187 -0.4556  0.1328  0.5935
   89MOL   O17517951   2.984   4.217   7.222  0.1188 -0.5662  0.1866
   89MOL   N17617952   2.888   4.095   7.062  0.0420  0.0225  0.3088
   89MOL   H17717953   3.092   4.053   7.399  0.6542 -0.3442  1.3235
   89MOL   H17817954   3.034   3.908   7.449 -0.5792 -1.3782 -0.5790
   89MOL   H17917955   2.893   3.909   7.217 -2.3593 -1.2400  2.8222
   89MOL   H18017956   2.907   4.164   6.991  0.2341 -0.4874 -0.1321
   89MOL   H18117957   2.840   4.009   7.040 -0.5402  0.4470 -0.0915
   89MOL   C18217958   2.798   4.024   7.381  0.4309 -0.1541 -0.6382
   89MOL   C18317959   2.766   3.920   7.490 -0.4019 -1.2873 -0.3997
   89MOL   C18417960   2.730   3.787   7.430 -0.0497  0.7084 -0.7899
   89MOL   O18517961   2.646   3.781   7.338 -0.3916 -0.0200  0.5445
   89MOL   N18617962   2.807   3.685   7.467  0.5493 -0.1818 -0.4213
   89MOL   H18717963   2.707   4.037   7.323  0.9552  1.5818 -1.1164
   89MOL   H18817964   2.804   4.125   7.422 -0.8002 -0.1470 -0.4562
   89MOL   H18917965   2.859   3.914   7.548 -0.2687  1.3823 -0.2562
   89MOL   H19017966   2.790   3.589   7.439  0.1216 -0.2291 -0.0005
   89MOL   H19117967   2.879   3.703   7.536 -1.5811  0.6239  1.6659
   89MOL   C19217968   2.649   3.985   7.567  0.0424 -0.1342 -0.1679
   89MOL   C19317969   2.638   3.944   0.062  0.4337  0.2581  0.5826
   89MOL   C19417970   2.754   4.002   0.150 -0.0724  0.3440  0.4800
   89MOL   O19517971   2.744   4.119   0.190 -0.3225  0.4450 -0.1928
   89MOL   N19617972   2.854   3.921   0.188 -0.2458 -0.1491 -0.3748
   89MOL   H19717973   2.552   3.971   7.520 -0.3752  1.4335  0.1967
   89MOL   H19817974   2.666   4.092   7.575  0.6360 -0.1516 -1.0776
   89MOL   H19917975   2.543   3.969   0.109  0.7425  3.3832 -0.3548
   89MOL   H20017976   2.850   3.826   0.156  0.9640 -0.3361  0.0217
   89MOL   H20117977   2.926   3.954   0.251 -1.3772  2.5120 -0.4087
   89MOL   H20217978   2.643   3.835   0.065  0.2700  0.2334  0.0923
   90MOL     C117979   2.088   5.327   1.588 -0.0263 -0.3687  1.1359
   90MOL     C217980   2.128   5.295   1.736 -0.0930 -0.5976 -0.7460
   90MOL     C317981   2.050   5.175   1.790  0.3102 -0.2175  0.2648
   90MOL     O417982   1.936   5.138   1.745  0.0303 -0.0502 -0.2051
   90MOL     N517983   2.109   5.111   1.895 -0.4655  0.2420  0.2660
   90MOL     H617984   1.986   5.365   1.580  0.2873  0.1485 -0.5653
   90MOL     H717985   2.151   5.409   1.554 -0.7596 -0.2879 -0.0651
   90MOL     H817986   2.236   5.281   1.742 -0.0417  0.3020  0.7808
   90MOL     H917987   2.199   5.145   1.924 -0.9114  0.6140  1.2464
   90MOL    H1017988   2.085   5.026   1.944  2.5596 -1.1680 -0.5727
   90MOL    H1117989   2.093   5.243   1.519 -0.6395 -0.1771  0.8508
   90MOL    C1217990   2.089   5.412   1.833 -0.8037 -0.9578 -0.1088
   90MOL    C1317991   2.141   5.564   1.801  0.3525  0.0474  0.7011
   90MOL    C1417992   2.045   5.632   1.697 -0.5979  0.6079  0.8576
   90MOL    O1517993   2.074   5.660   1.584 -0.1806  0.5690  0.3199
   90MOL    N1617994   1.922   5.657   1.742  0.3228  0.0891  0.7639
   90MOL    H1717995   2.138   5.393   1.929 -1.9308 -0.9070  0.4786
   90MOL    H1817996   1.981   5.426   1.837 -0.6982 -0.5693  1.6699
   90MOL    H1917997   2.111   5.617   1.892  0.3464 -0.0449  0.7528
   90MOL    H2017998   1.858   5.693   1.673 -0.2383 -1.1740  0.5997
   90MOL    H2117999   1.889   5.640   1.835  0.0500  0.0304  0.6569
   90MOL    C2218000   2.294   5.559   1.768  0.0780 -0.1554 -0.7152
   90MOL    C2318001   2.369   5.692   1.794 -0.8732 -0.4317 -0.1100
   90MOL    C2418002   2.391   5.783   1.675  0.6594 -0.4402  0.2332
   90MOL    O2518003   2.463   5.878   1.679 -0.0624 -0.5653 -0.1217
   90MOL    N2618004   2.329   5.752   1.559 -0.1430 -0.0815  0.1246
   90MOL    H2718005   2.324   5.511   1.675  2.0677  2.3799 -1.4482
   90MOL    H2818006   2.325   5.487   1.844  0.4672  2.1452  1.3801
   90MOL    H2918007   2.301   5.749   1.857 -0.1177  0.8649 -0.4448
   90MOL    H3018008   2.344   5.803   1.473  0.9885 -0.0069  0.3601
   90MOL    H3118009   2.245   5.698   1.570  0.2704 -0.3974  1.7726
   90MOL    C3218010   2.501   5.686   1.875  0.8372  0.1244  0.0585
   90MOL    C3318011   2.624   5.614   1.818  0.0882 -0.6337  0.0330
   90MOL    C3418012   2.659   5.491   1.896  0.2797  0.7529  0.5892
   90MOL    O3518013   2.762   5.490   1.969 -0.0796 -0.0227  0.4585
   90MOL    N3618014   2.596   5.372   1.871  0.8581  0.0812 -0.3634
   90MOL    H3718015   2.476   5.636   1.969  2.1277  0.3087  0.4981
   90MOL    H3818016   2.528   5.783   1.915  0.2084  0.6205 -0.6988
   90MOL    H3918017   2.596   5.573   1.721  0.2086 -1.2381  0.2550
   90MOL    H4018018   2.529   5.353   1.798  0.7514 -0.0948 -0.2200
   90MOL    H4118019   2.631   5.296   1.927  2.3525  0.9635 -0.0480
   90MOL    C4218020   2.748   5.709   1.796  0.5071  0.5115  0.0052
   90MOL    C4318021   2.864   5.665   1.704  0.0444  0.5960  0.5274
   90MOL    C4418022   3.006   5.725   1.744 -0.1043 -0.3773  0.4793
   90MOL    O4518023   3.032   5.840   1.764  0.3839 -0.5093  0.1760
   90MOL    N4618024   3.097   5.640   1.764  0.2534 -0.5677  0.5920
   90MOL    H4718025   2.782   5.731   1.897  0.0471 -0.7627  0.4579
   90MOL    H4818026   2.717   5.807   1.762  0.3763  0.9917  1.4745
   90MOL    H4918027   2.879   5.561   1.731  2.8591  0.6200 -0.8155
   90MOL    H5018028   3.076   5.541   1.764  0.7514 -0.6718 -1.0314
   90MOL    H5118029   3.187   5.666   1.801  0.3544 -1.6347  1.1163
   90MOL    C5218030   2.841   5.685   1.552 -0.2636  0.9299  0.5832
   90MOL    C5318031   2.818   5.560   1.457 -0.3337  0.2346  0.6271
   90MOL    C5418032   2.892   5.431   1.499  0.2260  0.0166 -0.1002
   90MOL    O5518033   2.999   5.397   1.450  0.8492  0.2404 -1.0405
   90MOL    N5618034   2.827   5.353   1.587  0.0680  0.3993  0.0379
   90MOL    H5718035   2.926   5.738   1.507  1.1075  0.3657  2.4663
   90MOL    H5818036   2.757   5.751   1.529 -0.9043  0.6093  1.9787
   90MOL    H5918037   2.711   5.542   1.469 -0.0162 -0.1194  3.2281
   90MOL    H6018038   2.865   5.266   1.621  2.3071  0.6588 -1.7117
   90MOL    H6118039   2.735   5.381   1.618 -0.4000 -0.7485 -0.3009
   90MOL    C6218040   2.854   5.601   1.311  0.2966  0.1308 -0.2282
   90MOL    C6318041   2.848   5.492   1.194  0.6071 -0.4990  0.2583
   90MOL    C6418042   2.966   5.512   1.100  0.0914  0.4301 -0.8800
   90MOL    O6518043   2.958   5.540   0.980  0.4531 -0.0080 -0.6470
   90MOL    N6618044   3.083   5.489   1.159  0.4670 -0.1651  0.1646
   90MOL    H6718045   2.951   5.650   1.308  1.3146 -1.6152  2.7150
   90MOL    H6818046   2.787   5.678   1.272  2.5033  1.3790 -1.6945
   90MOL    H6918047   2.857   5.392   1.237  0.7003 -0.3664  0.5517
   90MOL    H7018048   3.083   5.451   1.252  0.5195 -2.0489 -0.5709
   90MOL    H7118049   3.173   5.508   1.117  0.6127  0.5212  0.7846
   90MOL    C7218050   2.721   5.488   1.109  0.3693 -0.0398 -0.4432
   90MOL    C7318051   2.698   5.354   1.037 -0.3676 -0.7494 -0.3134
   90MOL    C7418052   2.595   5.362   0.924 -0.8231  0.7609 -0.0716
   90MOL    O7518053   2.494   5.437   0.930 -0.3427  0.0026  0.0308
   90MOL    N7618054   2.624   5.290   0.812 -0.1274  0.2870 -0.2942
   90MOL    H7718055   2.726   5.568   1.035  0.0320  2.0576  1.7304
   90MOL    H7818056   2.638   5.521   1.171 -0.7034  0.3888 -2.0846
   90MOL    H7918057   2.793   5.327   0.990 -0.1668 -2.3378  0.9712
   90MOL    H8018058   2.542   5.269   0.757  0.4241  0.9058 -1.3691
   90MOL    H8118059   2.701   5.226   0.798 -0.1982  0.4139 -1.2343
   90MOL    C8218060   2.649   5.253   1.141  1.2119  0.7707  0.1515
   90MOL    C8318061   2.717   5.120   1.127 -0.1873  0.1022  0.4312
   90MOL    C8418062   2.693   5.042   0.995 -0.7285 -0.1398  0.4089
   90MOL    O8518063   2.586   4.989   0.974  0.2653 -0.4125 -0.2279
   90MOL    N8618064   2.795   5.029   0.910 -0.4040 -0.1908  0.2707
   90MOL    H8718065   2.544   5.228   1.128  1.3546  1.4653 -2.5597
   90MOL    H8818066   2.652   5.294   1.242 -1.7144 -1.6090  1.2603
   90MOL    H8918067   2.823   5.143   1.138 -0.9135  3.8269  0.5932
   90MOL    H9018068   2.889   5.058   0.934  0.8757 -1.2836 -3.0844
   90MOL    H9118069   2.778   4.994   0.817 -0.4127  1.6859 -0.4642
   90MOL    C9218070   2.675   5.022   1.242  0.6232  0.1396 -0.9221
   90MOL    C9318071   2.713   5.068   1.391  0.2312  0.6807  0.7852
   90MOL    C9418072   2.858   5.016   1.420  0.2404  0.2378  0.0630
   90MOL    O9518073   2.864   4.906   1.472 -0.3177  0.2133 -0.8973
   90MOL    N9618074   2.964   5.092   1.387 -0.0967 -0.1527 -0.8146
   90MOL    H9718075   2.703   4.918   1.231 -0.6618 -0.0887 -2.1195
   90MOL    H9818076   2.567   5.020   1.235  0.4250  1.9930  0.8844
   90MOL    H9918077   2.721   5.176   1.391 -0.4694  0.7488 -1.1886
   90MOL   H10018078   3.055   5.048   1.393 -1.2111 -2.5149 -0.5722
   90MOL   H10118079   2.953   5.190   1.366 -0.4822 -0.2196 -0.9356
   90MOL   C10218080   2.612   5.036   1.509  0.0768  0.0666 -0.3644
   90MOL   C10318081   2.477   5.100   1.504  0.1427  0.1106 -0.2122
   90MOL   C10418082   2.475   5.259   1.515  0.1463  0.0210 -0.6254
   90MOL   O10518083   2.550   5.324   1.594 -0.0222  0.2399  1.0019
   90MOL   N10618084   2.387   5.325   1.445 -0.1015  0.0341  0.3146
   90MOL   H10718085   2.660   5.055   1.605  2.6035  2.6544 -2.0703
   90MOL   H10818086   2.611   4.927   1.504 -0.3657 -0.1408  3.0952
   90MOL   H10918087   2.433   5.069   1.409  0.9074  0.0468 -0.5505
   90MOL   H11018088   2.331   5.273   1.379 -0.5840  0.2954  0.5176
   90MOL   H11118089   2.375   5.423   1.466 -1.0343  0.0761 -0.3816
   90MOL   C11218090   2.389   5.037   1.615 -0.2044  1.3764  0.5734
   90MOL   C11318091   2.364   4.877   1.618 -0.0418  0.1938 -0.3256
   90MOL   C11418092   2.336   4.824   1.477  0.0171 -0.4452  0.1343
   90MOL   O11518093   2.228   4.836   1.421  0.4098 -0.2027  0.5364
   90MOL   N11618094   2.437   4.769   1.409  0.1309  0.9564 -0.2407
   90MOL   H11718095   2.293   5.090   1.615 -0.0119  1.7511 -1.0448
   90MOL   H11818096   2.427   5.067   1.712 -0.2279  2.8001  0.1548
   90MOL   H11918097   2.456   4.829   1.651 -0.9458 -1.0702  0.4273
   90MOL   H12018098   2.414   4.723   1.322  0.5195  1.1141 -0.4322
   90MOL   H12118099   2.530   4.762   1.448  0.6835  2.8496 -1.1336
   90MOL   C12218100   2.259   4.838   1.723 -0.7192  0.3441  0.3539
   90MOL   C12318101   2.218   4.691   1.736  0.2296 -0.2423 -0.1089
   90MOL   C12418102   2.093   4.685   1.816 -0.1889 -0.2457 -0.0617
   90MOL   O12518103   2.070   4.751   1.911  0.6867 -0.2352  0.3696
   90MOL   N12618104   2.014   4.585   1.782  0.5937 -0.1435 -0.4940
   90MOL   H12718105   2.173   4.903   1.707 -0.7693  0.3655  0.7157
   90MOL   H12818106   2.300   4.873   1.818  1.7546  0.6131 -0.7620
   90MOL   H12918107   2.214   4.653   1.634 -0.2179 -1.0928  0.2145
   90MOL   H13018108   2.013   4.512   1.713  1.2939 -2.9807  2.4011
   90MOL   H13118109   1.937   4.581   1.848 -1.4590  3.1583 -2.5262
   90MOL   C13218110   2.340   4.620   1.804 -0.2177 -0.3067 -0.7018
   90MOL   C13318111   2.368   4.477   1.753  0.0655  0.8634  0.0737
   90MOL   C13418112   2.386   4.377   1.861 -0.1828 -0.3488  0.1407
   90MOL   O13518113   2.479   4.296   1.872  0.3330 -0.1932  0.2772
   90MOL   N13618114   2.280   4.360   1.944 -0.1043 -0.1982  0.1407
   90MOL   H13718115   2.315   4.607   1.909  2.9376 -0.1875  0.1144
   90MOL   H13818116   2.429   4.683   1.803 -1.5120  1.5990 -0.1208
   90MOL   H13918117   2.274   4.434   1.717  0.2641  0.6319 -0.1636
   90MOL   H14018118   2.286   4.300   2.025  1.5854 -0.8527 -0.4331
   90MOL   H14118119   2.212   4.434   1.951  0.8605  0.6789  0.3289
   90MOL   C14218120   2.463   4.474   1.633  0.0834 -0.2531 -0.0408
   90MOL   C14318121   2.617   4.496   1.664  0.2193  0.5144 -0.1128
   90MOL   C14418122   2.679   4.620   1.595  0.6031  0.5198  0.0774
   90MOL   O14518123   2.705   4.613   1.478  0.1196 -0.2671  0.3986
   90MOL   N14618124   2.702   4.725   1.667  0.8360 -0.2228  0.6571
   90MOL   H14718125   2.410   4.544   1.569  1.9467 -0.1135 -1.4679
   90MOL   H14818126   2.452   4.380   1.579 -2.6343  0.4501 -0.8211
   90MOL   H14918127   2.613   4.518   1.770 -3.1481  1.1891 -0.3184
   90MOL   H15018128   2.742   4.801   1.615  0.4489  0.2386  1.0283
   90MOL   H15118129   2.685   4.727   1.767  0.3257 -2.0293  0.6321
   90MOL   C15218130   2.703   4.371   1.643 -0.9913  0.2350 -0.7813
   90MOL   C15318131   2.842   4.350   1.711 -0.4212  0.2347  0.1382
   90MOL   C15418132   2.832   4.363   1.860 -0.7082 -0.4604 -0.4505
   90MOL   O15518133   2.794   4.459   1.917 -0.4021 -0.0045  0.4315
   90MOL   N15618134   2.878   4.266   1.941 -0.1328  0.1741 -0.1578
   90MOL   H15718135   2.711   4.351   1.536  0.0704  0.5964 -0.7773
   90MOL   H15818136   2.659   4.277   1.677 -1.0811 -0.2374 -2.1814
   90MOL   H15918137   2.874   4.248   1.689 -1.6136 -0.4379  1.4757
   90MOL   H16018138   2.874   4.271   2.042  0.5803 -2.0112  0.0107
   90MOL   H16118139   2.914   4.177   1.909  1.4154  0.7640 -0.0570
   90MOL   C16218140   2.951   4.453   1.659  0.3957 -0.1845  0.6035
   90MOL   C16318141   3.094   4.405   1.659 -0.6330 -0.5562 -0.4055
   90MOL   C16418142   3.195   4.521   1.705  0.6473  0.2858  0.3760
   90MOL   O16518143   3.180   4.634   1.659  0.2889 -0.2738 -0.3475
   90MOL   N16618144   3.297   4.493   1.788 -0.6582  0.1595 -0.3861
   90MOL   H16718145   2.939   4.547   1.713 -1.1019  0.7801 -1.3470
   90MOL   H16818146   2.929   4.478   1.555  0.3512 -0.5539  0.5235
   90MOL   H16918147   3.097   4.329   1.738 -0.9798 -0.4660 -0.3066
   90MOL   H17018148   3.330   4.398   1.797  3.9825  1.9304  3.5668
   90MOL   H17118149   3.345   4.564   1.843  1.6410 -1.0127 -0.8474
   90MOL   C17218150   3.142   4.346   1.534 -0.0437  0.1445  0.2707
   90MOL   C17318151   3.232   4.221   1.537 -0.1309 -0.4504  0.5601
   90MOL   C17418152   3.377   4.256   1.591  0.5944  0.5288 -0.1724
   90MOL   O17518153   3.466   4.308   1.520  0.4077 -0.6447 -0.4386
   90MOL   N17618154   3.409   4.210   1.708 -0.5876  0.2841  0.0929
   90MOL   H17718155   3.198   4.418   1.474 -1.2872  1.3411  0.5158
   90MOL   H17818156   3.060   4.324   1.465 -0.2757  1.8019  0.0051
   90MOL   H17918157   3.191   4.147   1.607  0.8828 -1.2021  0.3737
   90MOL   H18018158   3.507   4.222   1.731 -0.7993  1.2249  0.5112
   90MOL   H18118159   3.346   4.139   1.743 -0.4891 -0.5776 -1.4331
   90MOL   C18218160   3.237   4.151   1.395  0.3622  0.2845  0.0254
   90MOL   C18318161   3.104   4.098   1.344  0.4577 -0.1509  0.5638
   90MOL   C18418162   3.036   4.002   1.439 -0.3410 -0.1798 -0.0615
   90MOL   O18518163   3.096   3.927   1.513  0.9353  0.0924  0.4027
   90MOL   N18618164   2.898   4.008   1.436  0.1036 -0.4859  0.0278
   90MOL   H18718165   3.303   4.066   1.412 -2.7032 -2.2480 -0.2434
   90MOL   H18818166   3.283   4.224   1.328  1.3150 -0.6365 -0.3431
   90MOL   H18918167   3.046   4.188   1.324 -0.8789 -1.6196 -2.4777
   90MOL   H19018168   2.849   4.079   1.384  0.1176  0.4941  1.3512
   90MOL   H19118169   2.861   3.947   1.508 -0.4524  1.4364  1.3946
   90MOL   C19218170   3.115   4.037   1.207  0.1320 -0.2025 -0.2185
   90MOL   C19318171   3.188   4.110   1.087  0.6781  0.2484 -0.7919
   90MOL   C19418172   3.110   4.217   1.011  0.1628  0.2572 -0.3783
   90MOL   O19518173   2.999   4.194   0.962  0.5224 -0.1232  0.6741
   90MOL   N19618174   3.169   4.336   0.989  0.4171  0.0624  0.1712
   90MOL   H19718175   3.013   4.012   1.175 -1.0875  1.9975  1.7444
   90MOL   H19818176   3.160   3.938   1.213 -1.5018 -1.0424 -1.3067
   90MOL   H19918177   3.288   4.144   1.112 -0.0850  0.8506  1.6244
   90MOL   H20018178   3.123   4.408   0.935  1.1961  0.6962  0.3555
   90MOL   H20118179   3.260   4.358   1.027  0.0507  0.4118  0.8453
   90MOL   H20218180   3.199   4.029   1.016 -0.4832  0.9733 -1.8230
   91MOL     C118181   3.977   5.551   1.682 -0.1791  0.2395 -0.3327
   91MOL     C218182   4.001   5.441   1.791  0.2195  0.1637 -0.1644
   91MOL     C318183   4.058   5.315   1.725 -0.3360  0.4937 -0.0566
   91MOL     O418184   4.027   5.200   1.754 -0.0201 -0.7174 -0.3893
   91MOL     N518185   4.136   5.336   1.619  0.2843  0.0696 -0.6899
   91MOL     H618186   4.064   5.608   1.649  0.0754 -0.1029 -0.2524
   91MOL     H718187   3.930   5.510   1.593 -0.4855  0.2791 -0.1867
   91MOL     H818188   4.081   5.482   1.853 -1.2915  0.3846  1.6762
   91MOL     H918189   4.145   5.426   1.573 -0.0764 -0.9045 -2.7511
   91MOL    H1018190   4.175   5.254   1.575 -2.1020 -0.4964 -1.8674
   91MOL    H1118191   3.904   5.622   1.720  0.0859 -0.0285  0.6912
   91MOL    C1218192   3.874   5.420   1.878 -0.1206  0.0904  0.0628
   91MOL    C1318193   3.883   5.330   2.003  0.1140 -0.2866  0.6737
   91MOL    C1418194   3.741   5.289   2.043  0.7292  1.4308  0.0801
   91MOL    O1518195   3.676   5.234   1.957  0.2166 -0.7748 -0.0344
   91MOL    N1618196   3.703   5.308   2.167 -0.1183 -0.0184  0.4516
   91MOL    H1718197   3.790   5.387   1.818 -1.5464  1.7599  1.0794
   91MOL    H1818198   3.861   5.521   1.917 -0.0149  0.1490 -0.0541
   91MOL    H1918199   3.937   5.240   1.974 -0.3522  0.5057 -2.9114
   91MOL    H2018200   3.610   5.286   2.201 -0.6979  0.7040 -0.6173
   91MOL    H2118201   3.761   5.337   2.244 -1.0351  0.3192  1.0294
   91MOL    C2218202   3.969   5.407   2.108  0.3277  1.2593 -0.0781
   91MOL    C2318203   4.064   5.322   2.196  1.0352 -0.3444  0.3315
   91MOL    C2418204   4.199   5.310   2.124 -0.1734  0.2321 -0.2289
   91MOL    O2518205   4.296   5.359   2.179  0.0229  0.0793  0.5726
   91MOL    N2618206   4.209   5.245   2.008 -0.0047 -0.9577  0.2941
   91MOL    H2718207   3.903   5.456   2.180 -0.4380 -1.6058  1.2280
   91MOL    H2818208   4.020   5.494   2.066 -0.7100  2.0514  0.2661
   91MOL    H2918209   4.073   5.380   2.288  0.2967 -0.0433  0.2148
   91MOL    H3018210   4.134   5.215   1.947  1.2549  0.5165 -2.0178
   91MOL    H3118211   4.300   5.211   1.983 -1.0087 -2.6414 -1.2222
   91MOL    C3218212   4.029   5.179   2.239  0.2436  0.1886 -0.2539
   91MOL    C3318213   4.112   5.145   2.367 -0.1704 -0.0086  0.1420
   91MOL    C3418214   4.113   4.988   2.379  0.1145  0.0544 -0.0559
   91MOL    O3518215   4.015   4.913   2.382 -0.0358 -0.3858  0.1719
   91MOL    N3618216   4.232   4.941   2.415  0.0092  0.0717  0.0887
   91MOL    H3718217   4.054   5.110   2.159  0.0558 -0.0581 -0.1051
   91MOL    H3818218   3.920   5.184   2.252  0.3821 -0.0685  1.1348
   91MOL    H3918219   4.216   5.173   2.351 -0.0790  0.5704  1.6465
   91MOL    H4018220   4.237   4.843   2.439  0.2061 -0.1188 -0.7122
   91MOL    H4118221   4.302   5.006   2.447 -0.1445  0.4972 -0.4375
   91MOL    C4218222   4.065   5.212   2.499 -0.0436  0.3186 -0.1274
   91MOL    C4318223   3.925   5.190   2.566 -0.1374  0.5982 -0.4662
   91MOL    C4418224   3.809   5.238   2.482  0.1004 -0.3633  0.1021
   91MOL    O4518225   3.808   5.354   2.446 -0.1776 -0.0902  0.0109
   91MOL    N4618226   3.709   5.163   2.451 -0.4133  0.5000 -0.0062
   91MOL    H4718227   4.061   5.320   2.487 -0.0018  0.4050  0.6265
   91MOL    H4818228   4.152   5.196   2.563  0.3383  3.0044  0.0699
   91MOL    H4918229   3.919   5.083   2.586 -0.6870  0.7450  0.1695
   91MOL    H5018230   3.700   5.065   2.475  0.0003  0.0586 -1.6304
   91MOL    H5118231   3.630   5.207   2.406 -0.9077 -0.1242  0.2543
   91MOL    C5218232   3.936   5.264   2.700 -0.2750 -0.6225 -0.0595
   91MOL    C5318233   3.809   5.265   2.796  0.1383 -0.0837 -0.2176
   91MOL    C5418234   3.724   5.392   2.799  0.5635 -0.1916 -0.2169
   91MOL    O5518235   3.642   5.422   2.883  0.1643  0.5051  0.5711
   91MOL    N5618236   3.744   5.478   2.701  0.0441  0.1565  0.5626
   91MOL    H5718237   3.967   5.368   2.685  0.7016 -0.9257 -0.1890
   91MOL    H5818238   4.027   5.228   2.748  0.2415 -0.6971 -1.0748
   91MOL    H5918239   3.735   5.196   2.756 -0.3537  0.6569 -0.6153
   91MOL    H6018240   3.702   5.569   2.690 -0.8120 -0.4482 -1.4385
   91MOL    H6118241   3.808   5.449   2.628 -0.7433 -0.5281  0.1295
   91MOL    C6218242   3.843   5.207   2.938  0.5434 -0.0900 -1.0052
   91MOL    C6318243   3.867   5.059   2.956  0.7334 -0.2010  0.2407
   91MOL    C6418244   3.739   4.971   2.943  0.8571  0.7680 -0.1962
   91MOL    O6518245   3.659   4.963   3.035  0.7498  0.1448  0.5225
   91MOL    N6618246   3.711   4.924   2.820 -0.0250 -0.1225 -0.9300
   91MOL    H6718247   3.770   5.247   3.008  0.2334 -1.3112 -0.6121
   91MOL    H6818248   3.940   5.249   2.963 -0.9840  2.0839  1.4723
   91MOL    H6918249   3.932   5.026   2.874 -1.4677 -3.1306 -0.3798
   91MOL    H7018250   3.632   4.860   2.814 -0.7666  0.7062 -0.2412
   91MOL    H7118251   3.776   4.933   2.744 -0.2376  1.5004 -0.9355
   91MOL    C7218252   3.944   5.031   3.086 -0.3242 -0.4158 -0.6182
   91MOL    C7318253   4.040   4.921   3.078  0.3604 -0.2435 -1.3070
   91MOL    C7418254   4.059   4.877   3.226 -0.4218  0.1749  0.0356
   91MOL    O7518255   4.137   4.945   3.294 -0.4992  0.1431 -0.0284
   91MOL    N7618256   4.000   4.763   3.265  0.0682 -0.3797  0.2985
   91MOL    H7718257   3.860   5.013   3.153 -0.6294  0.8376 -0.6607
   91MOL    H7818258   3.994   5.120   3.124  0.6267 -0.7977 -0.9342
   91MOL    H7918259   3.984   4.848   3.020 -1.5902 -1.5434  2.1144
   91MOL    H8018260   4.014   4.733   3.360  0.8664 -0.0838  0.2748
   91MOL    H8118261   3.943   4.704   3.205 -0.7346 -2.0858  2.6869
   91MOL    C8218262   4.176   4.956   3.005 -0.5308  0.2377  0.0623
   91MOL    C8318263   4.229   4.827   2.933  0.3894  0.3684 -0.2400
   91MOL    C8418264   4.376   4.789   2.965  0.2692  0.2733  0.1187
   91MOL    O8518265   4.408   4.671   2.972 -0.2487  0.2758  0.7118
   91MOL    N8618266   4.471   4.884   2.975 -0.1893  0.0200  0.0182
   91MOL    H8718267   4.244   5.016   3.065 -1.5707  0.5255  0.9695
   91MOL    H8818268   4.156   5.031   2.928 -0.7298  0.8894  0.7416
   91MOL    H8918269   4.165   4.746   2.969 -0.4470  1.4957  0.8660
   91MOL    H9018270   4.466   4.979   2.940 -1.4084  0.4095  1.2247
   91MOL    H9118271   4.565   4.861   3.005 -0.7242  0.4107  2.0959
   91MOL    C9218272   4.211   4.826   2.778  0.5686  0.2697  0.7105
   91MOL    C9318273   4.212   4.677   2.720  0.6693 -0.5381 -0.7408
   91MOL    C9418274   4.340   4.658   2.637  0.4844 -0.3500  0.1790
   91MOL    O9518275   4.374   4.738   2.548 -0.5902 -0.0985  0.8342
   91MOL    N9618276   4.425   4.556   2.669 -0.4351 -0.0082  0.2696
   91MOL    H9718277   4.294   4.887   2.741 -0.1182  1.4903  1.1594
   91MOL    H9818278   4.127   4.881   2.735 -0.5458 -2.1294 -0.2700
   91MOL    H9918279   4.210   4.610   2.806 -2.6216 -0.0538 -0.3441
   91MOL   H10018280   4.522   4.547   2.642 -0.8769  0.3244 -1.4145
   91MOL   H10118281   4.385   4.481   2.724 -0.9624  1.0667  1.3571
   91MOL   C10218282   4.075   4.659   2.642  0.1167  0.0400  0.0907
   91MOL   C10318283   4.046   4.520   2.582  0.4165  0.1369  0.7356
   91MOL   C10418284   4.133   4.483   2.467  0.7347  0.7273  0.1714
   91MOL   O10518285   4.213   4.394   2.473  0.3701  0.0070 -0.7590
   91MOL   N10618286   4.132   4.560   2.357  0.1405  0.8310 -0.1048
   91MOL   H10718287   4.056   4.733   2.564 -2.4343 -1.2185 -0.5497
   91MOL   H10818288   3.999   4.683   2.717 -0.2139  1.4720 -0.6827
   91MOL   H10918289   4.070   4.463   2.671 -0.5163 -0.2229  0.7603
   91MOL   H11018290   4.056   4.626   2.347  1.3722  2.4210  0.9416
   91MOL   H11118291   4.201   4.559   2.283  0.5055  4.4776  0.0953
   91MOL   C11218292   3.893   4.502   2.553  0.1728 -0.3593 -0.1601
   91MOL   C11318293   3.842   4.360   2.530  0.5001  0.0372  0.1977
   91MOL   C11418294   3.713   4.362   2.448 -0.1829 -0.0087 -0.0821
   91MOL   O11518295   3.606   4.320   2.489 -0.0938 -0.4491  0.0838
   91MOL   N11618296   3.721   4.414   2.326 -0.2834  0.6707 -0.3043
   91MOL   H11718297   3.868   4.564   2.468 -2.0243 -1.7154 -0.5386
   91MOL   H11818298   3.828   4.548   2.627  2.2467  0.9730  0.8760
   91MOL   H11918299   3.917   4.314   2.465 -0.4935 -0.6010 -0.5016
   91MOL   H12018300   3.798   4.474   2.299 -1.8340  1.7803 -2.3628
   91MOL   H12118301   3.644   4.418   2.261 -0.4425 -2.3959 -0.3664
   91MOL   C12218302   3.835   4.275   2.660  0.0958  0.2300 -0.6133
   91MOL   C12318303   3.808   4.125   2.642  0.0201 -0.2430  0.0217
   91MOL   C12418304   3.763   4.055   2.766  0.3900 -0.0519 -0.4462
   91MOL   O12518305   3.811   4.089   2.872 -0.1479  0.4117 -0.0789
   91MOL   N12618306   3.673   3.957   2.757 -1.0358 -0.2472  1.0364
   91MOL   H12718307   3.754   4.317   2.719 -1.2329 -1.3879 -1.2409
   91MOL   H12818308   3.930   4.289   2.711 -1.3567 -1.2378  2.6905
   91MOL   H12918309   3.721   4.102   2.580 -1.6769 -2.0858  3.0137
   91MOL   H13018310   3.650   3.899   2.837 -1.6906 -2.0316 -0.4114
   91MOL   H13118311   3.609   3.949   2.679 -2.1426  2.5612  1.6085
   91MOL   C13218312   3.937   4.051   2.586  0.2345  0.3844  0.4195
   91MOL   C13318313   3.927   4.037   2.437  0.0038 -0.1945 -0.1306
   91MOL   C13418314   3.868   3.896   2.397  0.2845 -1.0466 -0.8129
   91MOL   O13518315   3.949   3.801   2.409  0.4100 -0.5068  0.0884
   91MOL   N13618316   3.750   3.891   2.334  0.2884 -0.6021  0.1269
   91MOL   H13718317   3.950   3.962   2.648 -0.4978 -0.7341 -1.0106
   91MOL   H13818318   4.022   4.115   2.607 -0.7637  1.4053  1.4993
   91MOL   H13918319   3.858   4.110   2.392  1.2501 -0.9258 -3.3881
   91MOL   H14018320   3.732   3.800   2.295  0.4665 -0.4441 -0.3204
   91MOL   H14118321   3.678   3.959   2.354  2.2126  1.5177  0.0510
   91MOL   C14218322   4.060   4.061   2.373 -0.8696  0.7919  1.0298
   91MOL   C14318323   4.055   4.086   2.217  0.6707  0.2304  0.0676
   91MOL   C14418324   4.180   4.035   2.153 -0.1291  0.0462 -0.1335
   91MOL   O14518325   4.285   4.098   2.160  0.5417 -0.1411  0.3518
   91MOL   N14618326   4.170   3.927   2.079 -0.2299 -0.2316 -0.1845
   91MOL   H14718327   4.119   3.971   2.391 -1.5703 -0.0482 -0.7193
   91MOL   H14818328   4.115   4.142   2.421  0.3040  1.7608 -1.8967
   91MOL   H14918329   3.974   4.029   2.171 -0.0127  2.3314 -1.3999
   91MOL   H15018330   4.080   3.896   2.046  1.0237 -3.1213 -0.9940
   91MOL   H15118331   4.252   3.881   2.042  0.2196  2.1890 -2.3396
   91MOL   C15218332   4.033   4.239   2.181  0.5100 -0.3067 -0.0608
   91MOL   C15318333   4.031   4.273   2.032 -0.3573 -0.1044  1.1305
   91MOL   C15418334   4.043   4.420   2.020 -0.2814  0.0070  0.4002
   91MOL   O15518335   3.970   4.492   2.086 -0.2261  0.1519  0.6055
   91MOL   N15618336   4.141   4.468   1.941  0.3058 -0.3756  0.3211
   91MOL   H15718337   4.105   4.297   2.239  0.1726 -0.0370  0.0901
   91MOL   H15818338   3.934   4.268   2.218  0.7538  3.8459 -2.4072
   91MOL   H15918339   4.125   4.234   1.992 -0.2660 -2.4447  3.4866
   91MOL   H16018340   4.139   4.568   1.923 -3.2031 -0.7398 -1.6775
   91MOL   H16118341   4.205   4.408   1.891  2.5129  2.6940 -0.7408
   91MOL   C16218342   3.904   4.215   1.952 -0.6491  0.2657  0.6196
   91MOL   C16318343   3.909   4.222   1.798  0.5130  0.1036  0.1695
   91MOL   C16418344   3.775   4.198   1.729 -0.2878  0.3503  0.0610
   91MOL   O16518345   3.672   4.208   1.796 -0.2428  0.2302  0.5411
   91MOL   N16618346   3.765   4.182   1.599 -0.6659 -0.1481 -0.0158
   91MOL   H16718347   3.830   4.284   1.995 -0.7748  1.6377 -1.7368
   91MOL   H16818348   3.886   4.111   1.983 -0.2780  0.1961  0.6042
   91MOL   H16918349   3.933   4.324   1.767  1.0601 -0.1177 -0.1355
   91MOL   H17018350   3.677   4.150   1.563 -1.7008  0.4760  1.8950
   91MOL   H17118351   3.840   4.193   1.532 -1.1765 -1.2571 -0.7686
   91MOL   C17218352   4.031   4.147   1.748 -0.3236  0.0182 -0.4760
   91MOL   C17318353   4.154   4.218   1.680 -0.4261  0.6572 -1.1543
   91MOL   C17418354   4.111   4.267   1.542  0.1246 -0.4155 -0.8573
   91MOL   O17518355   4.078   4.181   1.459  0.3520  0.0294  0.1574
   91MOL   N17618356   4.109   4.389   1.498 -0.2043 -0.0175  0.5638
   91MOL   H17718357   4.001   4.069   1.677 -0.2091  0.6793 -1.2581
   91MOL   H17818358   4.073   4.085   1.827 -2.1100  0.6305  0.9769
   91MOL   H17918359   4.186   4.311   1.727  1.8059 -0.5748 -0.1965
   91MOL   H18018360   4.067   4.394   1.406  0.3030 -0.6358  0.2940
   91MOL   H18118361   4.154   4.461   1.552  0.4475  0.4625 -0.5879
   91MOL   C18218362   4.273   4.128   1.660  0.1914 -0.1319 -0.7639
   91MOL   C18318363   4.368   4.106   1.783 -0.6868  0.3250 -0.0484
   91MOL   C18418364   4.425   4.244   1.834 -0.1644  0.2945 -0.4242
   91MOL   O18518365   4.495   4.316   1.757  0.1058 -0.6433  0.1023
   91MOL   N18618366   4.415   4.264   1.962 -0.1620 -0.3285 -0.1051
   91MOL   H18718367   4.332   4.161   1.574  0.8878 -0.5769 -0.4603
   91MOL   H18818368   4.226   4.035   1.628 -3.7541  0.6334  2.4106
   91MOL   H18918369   4.321   4.058   1.869 -0.7924 -0.1906 -0.3915
   91MOL   H19018370   4.460   4.344   2.006  1.3658 -1.5817  0.6813
   91MOL   H19118371   4.380   4.197   2.029 -1.5898  0.1334 -0.3912
   91MOL   C19218372   4.484   4.009   1.754  0.6788  0.0597 -0.1778
   91MOL   C19318373   4.567   3.963   1.874 -0.8232 -0.1004  0.1191
   91MOL   C19418374   4.698   3.893   1.839  0.2981  0.4727 -0.5054
   91MOL   O19518375   4.751   3.908   1.729 -0.0119 -0.1726 -0.1584
   91MOL   N19618376   4.761   3.825   1.933  0.0779  0.1995  0.0572
   91MOL   H19718377   4.543   4.043   1.669  0.4756  1.4791  0.2352
   91MOL   H19818378   4.428   3.927   1.710  0.0583  0.2499  0.2439
   91MOL   H19918379   4.590   4.047   1.940 -0.1724 -0.6867  0.6478
   91MOL   H20018380   4.850   3.781   1.917 -0.3396 -0.7637  0.3076
   91MOL   H20118381   4.713   3.817   2.021 -0.1639  0.0741 -0.0838
   91MOL   H20218382   4.511   3.894   1.938  1.3876 -1.1455  0.9578
   92MOL     C118383   1.674   5.437   0.310 -1.1707 -0.0485 -0.0694
   92MOL     C218384   1.794   5.343   0.272 -0.3726 -0.3105  0.5803
   92MOL     C318385   1.739   5.204   0.238 -0.2943  0.2336  0.1683
   92MOL     O418386   1.738   5.159   0.124 -0.1982  0.3030 -0.0326
   92MOL     N518387   1.694   5.136   0.342  0.4249 -0.5304  0.0509
   92MOL     H618388   1.590   5.447   0.242 -0.4458 -0.1231 -0.9924
   92MOL     H718389   1.621   5.404   0.399 -1.4230  0.8674  0.1242
   92MOL     H818390   1.839   5.380   0.180 -0.8817 -1.8814 -0.3157
   92MOL     H918391   1.673   5.041   0.312 -0.3725  0.3189 -2.1214
   92MOL    H1018392   1.709   5.165   0.438 -1.2466  0.6879 -0.0274
   92MOL    H1118393   1.710   5.535   0.343  1.9848 -1.7767  1.9099
   92MOL    C1218394   1.904   5.352   0.383 -0.7273  0.7194 -0.7454
   92MOL    C1318395   2.039   5.280   0.378 -0.4099 -0.0404  0.2274
   92MOL    C1418396   2.030   5.132   0.393 -0.0918 -0.4946  0.0167
   92MOL    O1518397   1.981   5.078   0.491  0.0485 -0.3032  0.0195
   92MOL    N1618398   2.064   5.065   0.290  0.6013  0.7605 -0.4915
   92MOL    H1718399   1.855   5.338   0.479 -0.3113  0.2703 -0.5994
   92MOL    H1818400   1.931   5.458   0.389  2.1000  0.0282 -0.3177
   92MOL    H1918401   2.097   5.300   0.288  0.7821  1.0094  1.2115
   92MOL    H2018402   2.077   4.965   0.290 -2.9962  0.2107 -1.8510
   92MOL    H2118403   2.110   5.109   0.211  0.5838  1.1130 -0.3086
   92MOL    C2218404   2.140   5.335   0.488  0.4793  0.7309  0.1866
   92MOL    C2318405   2.282   5.266   0.514 -0.0972 -0.3403 -0.1501
   92MOL    C2418406   2.353   5.345   0.626  0.3885  0.0373  0.2162
   92MOL    O2518407   2.429   5.441   0.604 -0.0389  0.2766  0.0651
   92MOL    N2618408   2.319   5.317   0.748 -0.5909 -0.3250  0.1560
   92MOL    H2718409   2.083   5.324   0.580  0.4545  0.5908  0.1543
   92MOL    H2818410   2.156   5.441   0.465  0.5921  0.8035  0.5894
   92MOL    H2918411   2.266   5.173   0.568  1.7508  0.1795  1.3725
   92MOL    H3018412   2.352   5.382   0.818 -1.2017  1.0387 -0.7911
   92MOL    H3118413   2.239   5.258   0.764 -0.7529  0.2671  1.6061
   92MOL    C3218414   2.360   5.266   0.379 -0.1622 -1.1198 -0.5775
   92MOL    C3318415   2.514   5.223   0.381 -0.4177  0.2222 -0.2590
   92MOL    C3418416   2.598   5.310   0.284  0.0976  0.3688 -0.5439
   92MOL    O3518417   2.607   5.273   0.167  0.1211  0.2617  0.6317
   92MOL    N3618418   2.645   5.424   0.340 -0.2186 -0.3686  0.4650
   92MOL    H3718419   2.349   5.367   0.339 -1.8353 -0.5278  1.2550
   92MOL    H3818420   2.313   5.196   0.309  1.4815 -0.6527 -2.1796
   92MOL    H3918421   2.555   5.253   0.478 -0.8800 -1.7065  0.5695
   92MOL    H4018422   2.621   5.461   0.431  1.1886  0.8615  0.3722
   92MOL    H4118423   2.707   5.489   0.294 -1.6910  0.4045 -0.4733
   92MOL    C4218424   2.541   5.077   0.367 -0.2419 -0.2121 -0.0500
   92MOL    C4318425   2.491   4.978   0.483  0.1446 -0.4218  1.0086
   92MOL    C4418426   2.553   5.006   0.622  0.2751  0.3998 -0.1443
   92MOL    O4518427   2.677   5.024   0.636 -0.2705 -0.1150  0.4825
   92MOL    N4618428   2.470   4.992   0.728 -0.0424  0.4329  0.4245
   92MOL    H4718429   2.649   5.071   0.352 -0.2907 -0.0220 -0.4702
   92MOL    H4818430   2.493   5.052   0.273  1.7691  2.1855 -1.7912
   92MOL    H4918431   2.384   4.994   0.492  0.5564  2.6572  1.0458
   92MOL    H5018432   2.379   4.949   0.722 -0.7406  2.1137 -1.6152
   92MOL    H5118433   2.499   5.008   0.823  0.2302 -1.7317  0.7307
   92MOL    C5218434   2.526   4.829   0.451  0.6538  0.6741  0.6811
   92MOL    C5318435   2.427   4.737   0.381  0.4314 -0.9559 -0.8511
   92MOL    C5418436   2.371   4.801   0.255  0.2760 -0.6698  0.0199
   92MOL    O5518437   2.272   4.875   0.261 -0.2174  0.2148 -0.4924
   92MOL    N5618438   2.435   4.785   0.140 -0.3987  0.1387  0.0871
   92MOL    H5718439   2.547   4.776   0.543 -2.1867 -1.9308 -0.0657
   92MOL    H5818440   2.624   4.825   0.405  0.6652  1.7158  0.6004
   92MOL    H5918441   2.478   4.647   0.346  1.0660 -0.7555 -0.4392
   92MOL    H6018442   2.514   4.725   0.125  0.9515  2.2960 -1.6692
   92MOL    H6118443   2.403   4.854   0.073 -1.0300 -0.1714  0.0669
   92MOL    C6218444   2.308   4.691   0.472 -0.2623  0.0765  0.0503
   92MOL    C6318445   2.323   4.580   0.568  0.0024 -0.3056  0.2115
   92MOL    C6418446   2.277   4.445   0.514 -0.3019 -0.4870 -0.4075
   92MOL    O6518447   2.177   4.418   0.449  0.8229 -0.0763  0.0880
   92MOL    N6618448   2.368   4.351   0.544  0.7782  0.0531  0.1356
   92MOL    H6718449   2.219   4.682   0.409  1.0414 -0.5087 -1.7580
   92MOL    H6818450   2.279   4.773   0.538 -0.0359 -1.1878  1.7223
   92MOL    H6918451   2.431   4.576   0.581  0.1425 -1.3519 -1.1237
   92MOL    H7018452   2.443   4.367   0.610  1.7602  1.7432 -1.3448
   92MOL    H7118453   2.360   4.256   0.511 -0.1671  0.9494 -2.3645
   92MOL    C7218454   2.279   4.618   0.715  0.0875  0.2545  1.2941
   92MOL    C7318455   2.130   4.652   0.724 -0.0885 -0.1947 -0.1894
   92MOL    C7418456   2.124   4.798   0.785 -0.2481  0.2166  0.9556
   92MOL    O7518457   2.188   4.826   0.888  0.1515  0.7205  0.0564
   92MOL    N7618458   2.056   4.885   0.712  0.3282  0.5297 -0.4241
   92MOL    H7718459   2.338   4.699   0.758  1.4191 -0.8822  1.6158
   92MOL    H7818460   2.298   4.537   0.785  0.1154  0.8307  1.9535
   92MOL    H7918461   2.099   4.657   0.620  2.4678  0.3570 -0.9602
   92MOL    H8018462   2.068   4.981   0.742  0.7331  0.0312  1.0218
   92MOL    H8118463   2.016   4.869   0.620  0.8821  2.1456 -0.9658
   92MOL    C8218464   2.053   4.545   0.812  0.3760 -0.0995  0.3906
   92MOL    C8318465   1.906   4.551   0.827  0.5373 -0.4606  0.2532
   92MOL    C8418466   1.818   4.551   0.703 -0.2092 -0.0933 -0.2911
   92MOL    O8518467   1.852   4.612   0.605 -0.0996 -0.0162  0.0378
   92MOL    N8618468   1.700   4.482   0.700  0.4205  0.1703  0.6644
   92MOL    H8718469   2.097   4.525   0.909  0.0810 -1.1486  0.3143
   92MOL    H8818470   2.062   4.447   0.766 -0.1989 -0.2418  0.5801
   92MOL    H8918471   1.870   4.461   0.878 -0.0119 -0.5793 -0.3400
   92MOL    H9018472   1.652   4.470   0.612  0.9118 -0.1320  0.4318
   92MOL    H9118473   1.665   4.454   0.790 -0.8625  0.5835  0.2970
   92MOL    C9218474   1.850   4.674   0.913  0.0101  0.5029 -0.4601
   92MOL    C9318475   1.916   4.697   1.049  0.3188 -0.5559  0.2387
   92MOL    C9418476   1.874   4.585   1.151 -0.9161  0.1928 -0.0892
   92MOL    O9518477   1.929   4.478   1.154 -0.1947 -0.3165 -0.1051
   92MOL    N9618478   1.757   4.615   1.219  0.3989 -0.0955  0.0852
   92MOL    H9718479   1.743   4.654   0.922  0.1920  0.5393  2.4016
   92MOL    H9818480   1.868   4.765   0.856 -0.9245  0.1067 -1.4073
   92MOL    H9918481   2.023   4.685   1.039 -0.1924 -3.0964 -2.7908
   92MOL   H10018482   1.741   4.713   1.239  1.3555  0.0522  0.1862
   92MOL   H10118483   1.716   4.554   1.288  1.7493  0.1461  1.1330
   92MOL   C10218484   1.876   4.837   1.107  0.4525  0.0749 -0.4595
   92MOL   C10318485   1.950   4.895   1.229 -0.3748 -0.1321 -0.6005
   92MOL   C10418486   1.884   4.862   1.365 -0.4776  0.1227  0.5810
   92MOL   O10518487   1.762   4.856   1.378  0.7799 -0.5081  0.1374
   92MOL   N10618488   1.964   4.844   1.470 -0.2463  0.8565  0.4439
   92MOL   H10718489   1.767   4.840   1.110  0.4207 -1.1701 -0.0422
   92MOL   H10818490   1.925   4.898   1.031  0.2176 -0.1808 -0.8218
   92MOL   H10918491   2.050   4.854   1.236  0.1518  1.3712  1.2916
   92MOL   H11018492   1.915   4.827   1.557 -1.3500 -0.2138 -0.3695
   92MOL   H11118493   2.063   4.828   1.465 -0.3732 -0.1411  0.9772
   92MOL   C11218494   1.975   5.056   1.211 -0.0055 -0.0499  0.3852
   92MOL   C11318495   2.081   5.101   1.104  0.3114 -0.2106  0.0919
   92MOL   C11418496   2.222   5.080   1.156 -0.1981 -0.4890  0.0120
   92MOL   O11518497   2.258   5.146   1.255  0.2726 -0.2174  0.2209
   92MOL   N11618498   2.299   4.987   1.099  0.4049 -0.3191  0.6187
   92MOL   H11718499   2.018   5.099   1.301  1.1244  1.7478 -0.9809
   92MOL   H11818500   1.881   5.106   1.189 -0.2689 -0.4951  0.5043
   92MOL   H11918501   2.081   5.029   1.022  0.5032  0.1089 -0.1926
   92MOL   H12018502   2.393   4.979   1.136 -0.2532 -1.9550  1.9856
   92MOL   H12118503   2.259   4.925   1.030  0.2329  1.5548 -1.0283
   92MOL   C12218504   2.052   5.244   1.052  0.0732 -0.3951  0.4352
   92MOL   C12318505   1.942   5.250   0.945  0.4314 -0.3666 -1.2999
   92MOL   C12418506   1.980   5.210   0.807 -0.1093  0.4325 -0.2997
   92MOL   O12518507   2.092   5.162   0.781  0.2711 -0.0768  0.3020
   92MOL   N12618508   1.888   5.223   0.711 -0.3879  0.9275 -0.0706
   92MOL   H12718509   2.147   5.277   1.011  0.9954 -0.6244  2.3408
   92MOL   H12818510   2.033   5.307   1.139  1.4206  1.3338 -0.5015
   92MOL   H12918511   1.867   5.185   0.989  2.2427 -0.6742  1.4814
   92MOL   H13018512   1.793   5.245   0.739 -0.8890 -2.5076  1.1419
   92MOL   H13118513   1.923   5.192   0.622  1.5914  0.2700  0.9137
   92MOL   C13218514   1.871   5.393   0.942  0.1136 -0.5511 -0.2379
   92MOL   C13318515   1.780   5.416   1.063  0.4583  0.1159 -0.8752
   92MOL   C13418516   1.637   5.378   1.032  0.0954 -0.9450 -0.8590
   92MOL   O13518517   1.595   5.276   1.082  0.1722  0.2699  0.3799
   92MOL   N13618518   1.564   5.461   0.962  0.2466 -0.1547 -0.2904
   92MOL   H13718519   1.817   5.420   0.851 -0.4381  2.5193  0.9347
   92MOL   H13818520   1.954   5.463   0.946 -0.7856  0.5236 -0.1722
   92MOL   H13918521   1.816   5.351   1.142  1.0704 -0.2738 -1.4718
   92MOL   H14018522   1.465   5.457   0.944  0.4739 -0.9720 -1.4452
   92MOL   H14118523   1.601   5.553   0.945  2.4624 -0.8601  0.5327
   92MOL   C14218524   1.779   5.560   1.122  0.7580  0.0510  0.6365
   92MOL   C14318525   1.884   5.580   1.239  0.1018  0.7464  0.1840
   92MOL   C14418526   2.033   5.582   1.205  0.3770 -0.0215 -0.1082
   92MOL   O14518527   2.070   5.633   1.094  0.3659 -0.1557  0.1795
   92MOL   N14618528   2.120   5.532   1.286  0.3500  1.1482  0.2575
   92MOL   H14718529   1.682   5.599   1.153  0.5879  0.6164 -0.5863
   92MOL   H14818530   1.797   5.627   1.038  2.1173 -2.5925 -1.2616
   92MOL   H14918531   1.862   5.680   1.276 -3.1276 -0.1029  0.7122
   92MOL   H15018532   2.092   5.498   1.377 -1.2233  0.2576 -0.5461
   92MOL   H15118533   2.217   5.547   1.262  0.2858  0.0470 -0.7236
   92MOL   C15218534   1.853   5.494   1.371 -0.0361  0.3000  0.5220
   92MOL   C15318535   1.708   5.516   1.435 -0.0841 -0.8707  0.2039
   92MOL   C15418536   1.672   5.670   1.447  0.4793 -0.0736 -0.4982
   92MOL   O15518537   1.735   5.733   1.532  0.2567  0.4260 -0.6352
   92MOL   N15618538   1.575   5.712   1.369  0.3174 -0.1927  0.0417
   92MOL   H15718539   1.916   5.519   1.456  1.0021 -2.3501  0.5756
   92MOL   H15818540   1.867   5.392   1.336  3.0423  1.4724 -1.8878
   92MOL   H15918541   1.631   5.478   1.368  0.1951 -1.4723  0.2290
   92MOL   H16018542   1.523   5.643   1.316  0.6657  0.5512 -1.2840
   92MOL   H16118543   1.546   5.808   1.357 -0.1955 -0.1928  1.2231
   92MOL   C16218544   1.704   5.442   1.569 -0.6967  0.3925  0.3584
   92MOL   C16318545   1.577   5.456   1.655 -0.0589 -0.2905  0.2843
   92MOL   C16418546   1.610   5.536   1.784  0.4383  0.1226 -0.2308
   92MOL   O16518547   1.695   5.499   1.870  0.1997  0.4318  0.3766
   92MOL   N16618548   1.535   5.645   1.804 -0.4542 -0.1542 -0.7206
   92MOL   H16718549   1.789   5.460   1.635 -2.7253 -0.6066  3.3310
   92MOL   H16818550   1.703   5.335   1.546  1.0117  0.6959 -1.2288
   92MOL   H16918551   1.504   5.519   1.603  0.9054 -0.1316 -0.9149
   92MOL   H17018552   1.465   5.672   1.736 -2.0498 -0.1878  0.8857
   92MOL   H17118553   1.554   5.708   1.880  1.6407  0.2376 -1.5327
   92MOL   C17218554   1.511   5.320   1.684  0.1318 -0.1450 -0.2778
   92MOL   C17318555   1.587   5.190   1.717 -0.6659 -0.3701 -0.0528
   92MOL   C17418556   1.599   5.102   1.593 -0.4030  0.4461 -0.2824
   92MOL   O17518557   1.509   5.064   1.517 -0.1466 -0.4149  0.0094
   92MOL   N17618558   1.719   5.060   1.560  0.4486 -0.0304 -0.1942
   92MOL   H17718559   1.448   5.302   1.597  0.2095 -0.4061 -0.2786
   92MOL   H17818560   1.449   5.345   1.770 -0.1775 -0.0752 -0.5199
   92MOL   H17918561   1.687   5.217   1.752 -0.1355 -1.5882 -0.5921
   92MOL   H18018562   1.787   5.086   1.630  0.4033 -0.6386  0.0795
   92MOL   H18118563   1.730   5.003   1.478 -1.7230 -0.6936 -0.0431
   92MOL   C18218564   1.519   5.105   1.828  0.8127  0.4114  0.1430
   92MOL   C18318565   1.599   5.009   1.923  0.0125  0.6530 -0.1131
   92MOL   C18418566   1.668   5.084   2.037  0.4619  0.0203 -0.0616
   92MOL   O18518567   1.603   5.101   2.139 -0.2419  0.2237  0.5770
   92MOL   N18618568   1.788   5.127   2.024  0.8075 -0.3545 -0.2807
   92MOL   H18718569   1.449   5.042   1.773  0.0198  0.2921  1.2657
   92MOL   H18818570   1.445   5.152   1.894  0.6708  2.1770 -1.2323
   92MOL   H18918571   1.523   4.948   1.972  2.2916 -2.9538 -0.8434
   92MOL   H19018572   1.834   5.197   2.081  0.3779  2.4115 -3.2036
   92MOL   H19118573   1.838   5.104   1.939  0.4804 -0.6320 -0.3991
   92MOL   C19218574   1.693   4.896   1.857 -0.0919  0.1542 -0.3307
   92MOL   C19318575   1.635   4.786   1.759 -0.6318 -0.7265  0.2380
   92MOL   C19418576   1.617   4.656   1.830 -0.6708 -0.5278 -0.0545
   92MOL   O19518577   1.570   4.655   1.939  0.5595  0.1536  0.4952
   92MOL   N19618578   1.662   4.552   1.762  0.3020  0.2622 -0.4811
   92MOL   H19718579   1.760   4.854   1.932 -0.1775 -0.3935 -0.5527
   92MOL   H19818580   1.774   4.944   1.802  1.0595 -1.8782 -0.4740
   92MOL   H19918581   1.534   4.816   1.728 -0.2494 -1.6846 -2.0044
   92MOL   H20018582   1.692   4.558   1.666  1.7813  1.1872  0.0301
   92MOL   H20118583   1.643   4.460   1.800  1.7432  1.0172  2.1959
   92MOL   H20218584   1.701   4.776   1.673 -2.0890 -0.8628 -0.8909
   93MOL     C118585   2.380   1.680   3.424 -0.3867 -0.2591 -0.2106
   93MOL     C218586   2.382   1.752   3.289  0.1873 -0.0128 -0.3310
   93MOL     C318587   2.259   1.722   3.197  0.0299 -0.0382  0.2132
   93MOL     O418588   2.189   1.620   3.211  0.8181 -0.2231  0.3007
   93MOL     N518589   2.245   1.796   3.086 -0.4005  0.8200 -0.3459
   93MOL     H618590   2.478   1.692   3.468 -1.0038  2.0574  0.5908
   93MOL     H718591   2.304   1.717   3.492 -1.1086 -0.9943 -0.5977
   93MOL     H818592   2.376   1.860   3.306 -0.9829 -0.4364  2.2608
   93MOL     H918593   2.168   1.777   3.023 -0.8276 -0.5874  0.5704
   93MOL    H1018594   2.305   1.877   3.084  1.9460 -0.6705  3.6959
   93MOL    H1118595   2.380   1.572   3.406 -0.4235 -0.6177  1.8177
   93MOL    C1218596   2.511   1.718   3.215  0.8436  0.6299  0.4029
   93MOL    C1318597   2.645   1.771   3.257 -0.0711  0.2035  0.2018
   93MOL    C1418598   2.642   1.917   3.296  0.2713 -0.1793 -0.0220
   93MOL    O1518599   2.693   1.949   3.404 -0.0603 -0.2595 -0.4750
   93MOL    N1618600   2.591   2.010   3.223 -0.2666  0.4617  0.2830
   93MOL    H1718601   2.494   1.744   3.110 -0.8021  0.4602  0.6195
   93MOL    H1818602   2.509   1.610   3.207 -2.0364  0.7281 -0.8340
   93MOL    H1918603   2.659   1.708   3.346 -1.6505  0.0590  0.3631
   93MOL    H2018604   2.544   1.994   3.135 -0.2381  0.1003  0.3341
   93MOL    H2118605   2.625   2.103   3.242 -2.9706  1.6524 -0.3901
   93MOL    C2218606   2.767   1.750   3.160  0.0865 -0.0355 -0.5730
   93MOL    C2318607   2.919   1.747   3.214 -0.1352  1.1299  0.7835
   93MOL    C2418608   3.018   1.809   3.120 -0.1417 -0.4084  0.1361
   93MOL    O2518609   3.096   1.742   3.055 -0.5829  0.0771 -0.1786
   93MOL    N2618610   3.014   1.941   3.104  0.1494  0.3987  0.4496
   93MOL    H2718611   2.768   1.824   3.079  0.4560 -0.6726 -1.1553
   93MOL    H2818612   2.747   1.659   3.103  1.2146 -1.9798  2.0555
   93MOL    H2918613   2.926   1.804   3.307  3.2425 -0.1998  1.4109
   93MOL    H3018614   2.955   2.003   3.158 -0.6714  1.1293 -1.2373
   93MOL    H3118615   3.091   1.984   3.056  0.6929  1.7610  2.5020
   93MOL    C3218616   2.953   1.600   3.243  0.8364  0.7159 -0.0077
   93MOL    C3318617   3.087   1.579   3.317 -0.7106  0.3457  0.0864
   93MOL    C3418618   3.104   1.427   3.335  0.5852  0.1290  0.8092
   93MOL    O3518619   3.111   1.369   3.443  0.1293 -0.0340  0.2665
   93MOL    N3618620   3.099   1.351   3.231  0.0321 -0.0482  0.6342
   93MOL    H3718621   2.931   1.538   3.156 -2.7643  1.8949 -0.0077
   93MOL    H3818622   2.869   1.573   3.309 -0.7120  1.9009 -1.4650
   93MOL    H3918623   3.159   1.612   3.242  0.0272 -3.3253 -0.9043
   93MOL    H4018624   3.096   1.252   3.251 -1.0865  0.3602  2.6509
   93MOL    H4118625   3.086   1.386   3.137  0.0249  1.0810  1.0498
   93MOL    C4218626   3.119   1.668   3.440  0.0343  0.6884  0.4164
   93MOL    C4318627   3.048   1.652   3.579  0.1888  0.3234  0.0017
   93MOL    C4418628   2.904   1.713   3.576  0.0492  0.1732  1.0423
   93MOL    O4518629   2.804   1.647   3.599  0.6964  0.2195  0.0689
   93MOL    N4618630   2.890   1.840   3.547 -0.1404 -0.0178  0.2919
   93MOL    H4718631   3.106   1.772   3.412 -1.7177 -0.5346 -3.8496
   93MOL    H4818632   3.226   1.652   3.444 -0.1731 -0.6921  1.0764
   93MOL    H4918633   3.050   1.548   3.609 -0.2221  0.6155  1.0699
   93MOL    H5018634   2.975   1.884   3.515 -0.3957 -0.8560 -1.5741
   93MOL    H5118635   2.799   1.881   3.531 -0.4660 -1.2037 -0.9694
   93MOL    C5218636   3.131   1.717   3.684  0.0232 -0.3058 -1.2926
   93MOL    C5318637   3.074   1.682   3.823  0.1559  0.1746  0.2645
   93MOL    C5418638   2.975   1.784   3.875 -0.0602  0.6108  0.1069
   93MOL    O5518639   3.009   1.900   3.903 -0.5698  0.3280 -0.0122
   93MOL    N5618640   2.852   1.741   3.908 -0.0726  0.2567 -0.9351
   93MOL    H5718641   3.132   1.825   3.667 -0.5295 -0.5017 -2.6413
   93MOL    H5818642   3.235   1.688   3.670  0.1723  0.7269 -2.3728
   93MOL    H5918643   3.020   1.587   3.826 -1.4806  1.1701  3.5479
   93MOL    H6018644   2.801   1.808   3.965 -0.0060  0.3314 -0.9632
   93MOL    H6118645   2.809   1.650   3.904 -1.2233  0.5778  2.7027
   93MOL    C6218646   3.191   1.680   3.924 -0.8848 -1.0405 -0.6670
   93MOL    C6318647   3.168   1.646   4.074  0.0579 -0.3398 -0.2715
   93MOL    C6418648   3.251   1.730   4.171  0.8674  0.2711  0.2099
   93MOL    O6518649   3.362   1.772   4.138  0.6414 -0.1942 -0.0684
   93MOL    N6618650   3.201   1.761   4.292 -0.0156  0.4078  0.1093
   93MOL    H6718651   3.256   1.768   3.916 -0.0331 -1.7150 -1.2157
   93MOL    H6818652   3.256   1.601   3.886 -0.7070  0.0970 -2.7777
   93MOL    H6918653   3.069   1.678   4.109 -0.1957  0.1480 -1.4270
   93MOL    H7018654   3.110   1.724   4.318  0.2745 -0.5497 -0.2206
   93MOL    H7118655   3.267   1.778   4.367  0.4412 -0.7283 -0.0271
   93MOL    C7218656   3.186   1.492   4.113  0.3082 -0.6812 -0.4279
   93MOL    C7318657   3.062   1.410   4.109 -0.5541 -0.1153 -0.4324
   93MOL    C7418658   2.975   1.445   4.234  0.7381 -0.2579 -0.0404
   93MOL    O7518659   2.888   1.533   4.226  1.1346 -0.2398  0.1598
   93MOL    N7618660   3.008   1.384   4.346  0.2347 -0.2324  0.1758
   93MOL    H7718661   3.224   1.478   4.214 -1.2209  0.1325  0.2809
   93MOL    H7818662   3.258   1.444   4.047 -0.9729 -1.1034 -1.5456
   93MOL    H7918663   3.003   1.437   4.022  0.0385  2.7082 -0.0347
   93MOL    H8018664   2.949   1.407   4.425 -0.1720  1.6400 -0.6369
   93MOL    H8118665   3.070   1.305   4.359  0.9880  0.3814  0.3736
   93MOL    C8218666   3.096   1.258   4.090 -1.0321  0.0052  0.2118
   93MOL    C8318667   3.126   1.201   3.947 -0.3590 -0.5051  0.0325
   93MOL    C8418668   3.054   1.276   3.834  0.1348 -0.3659  0.6866
   93MOL    O8518669   2.933   1.289   3.834 -0.0734 -0.1409 -0.0175
   93MOL    N8618670   3.123   1.324   3.730  0.3486  0.6437 -0.2576
   93MOL    H8718671   3.019   1.196   4.137 -0.9689 -0.4286 -0.2648
   93MOL    H8818672   3.186   1.244   4.149 -0.5501  1.7443 -0.0813
   93MOL    H8918673   3.234   1.208   3.937 -0.2516  1.5926  2.3664
   93MOL    H9018674   3.224   1.319   3.720  0.5185  2.1863  0.6111
   93MOL    H9118675   3.080   1.380   3.658  0.7154 -0.1098 -1.0781
   93MOL    C9218676   3.085   1.052   3.940  0.1913 -0.6797 -0.5279
   93MOL    C9318677   3.213   0.961   3.952  0.0704  0.2409  0.7720
   93MOL    C9418678   3.287   0.942   3.818 -0.3538 -0.4510 -0.2188
   93MOL    O9518679   3.223   0.914   3.719 -0.0099  0.1846 -0.0569
   93MOL    N9618680   3.416   0.961   3.817  0.0166 -0.1609 -1.0826
   93MOL    H9718681   3.037   1.038   3.843 -1.1802  1.6988 -0.2327
   93MOL    H9818682   3.005   1.027   4.010 -0.4991  0.9608 -0.7267
   93MOL    H9918683   3.282   1.017   4.015  0.4143 -0.0662  0.6706
   93MOL   H10018684   3.466   0.978   3.903  1.4741  0.1705 -1.9647
   93MOL   H10118685   3.469   0.924   3.739 -1.7781  0.2874 -2.5583
   93MOL   C10218686   3.191   0.827   4.024 -0.3979 -0.0744 -0.4424
   93MOL   C10318687   3.099   0.722   3.955 -0.3190 -0.2253 -0.2294
   93MOL   C10418688   2.963   0.711   4.015  0.4598  0.9617  0.4511
   93MOL   O10518689   2.965   0.656   4.122  0.4097  0.2123  0.0496
   93MOL   N10618690   2.852   0.761   3.961 -0.7829  0.0813 -0.3885
   93MOL   H10718691   3.157   0.858   4.123  0.7838 -0.1956  0.0092
   93MOL   H10818692   3.292   0.791   4.045 -0.7740 -1.0808 -0.3329
   93MOL   H10918693   3.082   0.755   3.853 -0.6005  0.5402  0.0596
   93MOL   H11018694   2.857   0.820   3.879  2.7143 -0.2847 -0.5155
   93MOL   H11118695   2.762   0.738   4.001 -0.6760  1.1407  0.4658
   93MOL   C11218696   3.192   0.596   3.954  0.0435  0.6189 -0.0366
   93MOL   C11318697   3.301   0.582   3.839  0.1689  0.3640  0.2616
   93MOL   C11418698   3.237   0.528   3.711 -0.3213  0.9654  0.2268
   93MOL   O11518699   3.134   0.462   3.709 -0.4138 -0.5228  0.7228
   93MOL   N11618700   3.292   0.559   3.589  0.0172  0.3702  0.7784
   93MOL   H11718701   3.127   0.508   3.949  0.5749  0.0889  1.7945
   93MOL   H11818702   3.232   0.564   4.050 -0.2859 -2.0274 -0.7400
   93MOL   H11918703   3.333   0.685   3.827  1.2829  0.1518  1.3038
   93MOL   H12018704   3.243   0.542   3.502  0.1790  1.4714  0.4684
   93MOL   H12118705   3.363   0.630   3.588  2.0683 -1.6311 -0.4707
   93MOL   C12218706   3.423   0.489   3.878  0.0767  0.2974  0.2103
   93MOL   C12318707   3.500   0.533   4.006  0.1379 -0.0112 -0.0715
   93MOL   C12418708   3.560   0.668   3.997  0.0456 -0.4651  1.1693
   93MOL   O12518709   3.614   0.717   3.899  0.0300  0.3013 -0.2096
   93MOL   N12618710   3.550   0.741   4.104 -0.0931  0.3018  0.6592
   93MOL   H12718711   3.500   0.496   3.801  1.3007  1.0956  1.4858
   93MOL   H12818712   3.399   0.383   3.887  1.7908 -0.3236 -2.2747
   93MOL   H12918713   3.435   0.526   4.094  1.2076  1.7004  0.8674
   93MOL   H13018714   3.502   0.698   4.182  2.4712 -1.5877  1.2760
   93MOL   H13118715   3.582   0.836   4.112  1.2329 -0.0397 -0.3167
   93MOL   C13218716   3.610   0.427   4.039 -0.0566  0.0669 -0.2358
   93MOL   C13318717   3.565   0.288   4.088  0.5660  0.7405  0.3368
   93MOL   C13418718   3.491   0.291   4.224  0.8796  0.1708 -0.4174
   93MOL   O13518719   3.534   0.350   4.320 -1.0745  0.4607 -0.1286
   93MOL   N13618720   3.386   0.215   4.244 -0.3708  0.0014  0.3336
   93MOL   H13718721   3.685   0.467   4.108  3.8488 -0.9934 -3.6651
   93MOL   H13818722   3.660   0.416   3.943  0.0607  0.1523 -0.1849
   93MOL   H13918723   3.498   0.235   4.020  0.9951 -1.3431  1.4956
   93MOL   H14018724   3.318   0.210   4.318  0.0833  1.0709  0.8184
   93MOL   H14118725   3.362   0.151   4.169  1.9422 -0.5692  0.0354
   93MOL   C14218726   3.688   0.191   4.086  0.4752 -0.2369 -0.4112
   93MOL   C14318727   3.677   0.080   3.985 -0.0182 -0.5238 -0.0065
   93MOL   C14418728   3.578   7.634   4.041  0.3463  0.0829  0.2020
   93MOL   O14518729   3.617   7.543   4.116 -0.3748 -0.4776  0.9388
   93MOL   N14618730   3.447   7.638   4.009  0.0510  0.6657 -0.2554
   93MOL   H14718731   3.724   0.166   4.186  0.5241 -0.4252 -0.4746
   93MOL   H14818732   3.774   0.249   4.052 -0.0730  1.1522  0.5297
   93MOL   H14918733   3.635   0.114   3.890 -0.4121  1.5815  0.8979
   93MOL   H15018734   3.419   0.033   3.927  2.3316 -0.0624 -1.5283
   93MOL   H15118735   3.388   7.583   4.070  1.8208 -0.0274  0.8495
   93MOL   C15218736   3.817   0.014   3.954  0.2211  0.5980  0.1761
   93MOL   C15318737   3.823   7.538   3.862 -0.7471 -0.5554  0.1558
   93MOL   C15418738   3.949   7.447   3.876  0.7381 -0.5821  0.0582
   93MOL   O15518739   3.943   7.331   3.827 -0.5150 -0.0172 -0.1354
   93MOL   N15618740   4.052   7.490   3.938 -0.2312 -0.3933  0.6806
   93MOL   H15718741   3.850   7.646   4.055  0.6002 -0.7666 -0.2768
   93MOL   H15818742   3.891   0.090   3.929 -1.2089  2.0366  0.1879
   93MOL   H15918743   3.737   7.470   3.868 -2.1256  1.1523  0.1373
   93MOL   H16018744   4.117   7.419   3.968 -0.5810 -1.5620 -1.2478
   93MOL   H16118745   4.062   7.576   3.991 -1.7733 -1.2341  2.3715
   93MOL   C16218746   3.822   7.572   3.718 -0.1314  0.2707  0.5611
   93MOL   C16318747   3.746   7.466   3.632 -0.2223  0.1639 -0.2474
   93MOL   C16418748   3.798   7.491   3.490  0.4648  0.2677  0.1792
   93MOL   O16518749   3.915   7.497   3.461 -0.2074 -0.5305 -0.4419
   93MOL   N16618750   3.713   7.490   3.386 -0.0299  0.6788  0.1604
   93MOL   H16718751   3.925   7.587   3.684  0.8546  0.1212  3.3063
   93MOL   H16818752   3.771   0.011   3.713  0.0169  0.4609  2.2812
   93MOL   H16918753   3.769   7.365   3.664  2.0823  0.6192 -0.4216
   93MOL   H17018754   3.616   7.469   3.404 -0.3727  1.7182 -0.4245
   93MOL   H17118755   3.747   7.499   3.291  0.8614 -1.1194  0.3000
   93MOL   C17218756   3.587   7.488   3.646  0.0322  0.5904 -0.0123
   93MOL   C17318757   3.502   7.360   3.651 -0.0691  0.3588  0.5149
   93MOL   C17418758   3.499   7.278   3.519 -0.2609 -0.1942  0.0672
   93MOL   O17518759   3.489   7.332   3.407 -0.0518  0.4685  0.0931
   93MOL   N17618760   3.487   7.146   3.537  0.1524 -0.1137  0.2373
   93MOL   H17718761   3.549   7.553   3.567  0.2333  0.3576 -0.2989
   93MOL   H17818762   3.567   7.545   3.737  0.5522 -0.8307  1.0058
   93MOL   H17918763   3.556   7.298   3.724 -1.3353  0.4855  1.5782
   93MOL   H18018764   3.471   7.115   3.631 -1.3436 -1.9796 -0.6219
   93MOL   H18118765   3.465   7.086   3.459 -0.1192 -0.1925  0.3747
   93MOL   C18218766   3.361   7.404   3.688 -0.1617  0.1886 -0.4682
   93MOL   C18318767   3.324   7.356   3.838  0.2708 -0.0473  0.2552
   93MOL   C18418768   3.329   7.207   3.849  0.2919  0.4635  0.1356
   93MOL   O18518769   3.288   7.137   3.759  0.0442 -0.8044 -0.3205
   93MOL   N18618770   3.355   7.147   3.968  0.7601  0.8016 -0.0701
   93MOL   H18718771   3.293   7.358   3.616 -0.7242  0.7828 -0.3173
   93MOL   H18818772   3.328   7.506   3.669 -0.1998  0.6763  2.0953
   93MOL   H18918773   3.398   7.406   3.900  0.9319  1.3366 -1.6136
   93MOL   H19018774   3.376   7.208   4.046 -3.4591  0.3479  1.5575
   93MOL   H19118775   3.356   7.049   3.989 -0.2857  1.0314  1.1668
   93MOL   C19218776   3.175   7.406   3.866  0.4116  0.4604 -1.1760
   93MOL   C19318777   3.115   7.374   4.008 -0.0361 -0.2375 -0.1052
   93MOL   C19418778   3.208   7.425   4.125  0.8529  0.8951  0.3392
   93MOL   O19518779   3.322   7.388   4.138 -0.0651  0.5930  0.5482
   93MOL   N19618780   3.149   7.492   4.225  0.2145 -0.4873  0.0224
   93MOL   H19718781   3.111   7.357   3.793 -0.0646  0.8865 -1.0414
   93MOL   H19818782   3.164   7.513   3.848  2.9780  1.3100  1.8554
   93MOL   H19918783   3.021   7.428   4.009  0.3125  0.3836 -0.3882
   93MOL   H20018784   3.051   7.517   4.227 -0.0316 -1.2792 -1.4354
   93MOL   H20118785   3.215   7.528   4.293 -1.0538  1.8223  0.0873
   93MOL   H20218786   3.090   7.268   4.014  0.0166 -0.1689  1.5058
   94MOL     C118787   1.648   1.887   4.011 -0.3219 -0.0736 -0.5730
   94MOL     C218788   1.520   1.876   4.088 -0.2819 -0.0123  0.4910
   94MOL     C318789   1.439   2.009   4.078 -0.3193  0.9098 -0.3880
   94MOL     O418790   1.485   2.120   4.115  0.1859 -0.3335  0.2953
   94MOL     N518791   1.314   2.010   4.027  0.5991  0.1653 -0.6322
   94MOL     H618792   1.728   1.934   4.069 -0.0758  1.4784 -2.1220
   94MOL     H718793   1.696   1.796   3.974  0.2657  0.0724 -0.1847
   94MOL     H818794   1.465   1.792   4.045 -0.4451  0.0728  0.5338
   94MOL     H918795   1.268   1.921   4.009  0.7347 -0.4000  1.6971
   94MOL    H1018796   1.270   2.101   4.021  1.5902  0.6284 -0.8792
   94MOL    H1118797   1.635   1.932   3.913  0.6750  1.5416  0.0151
   94MOL    C1218798   1.545   1.835   4.237 -0.2379  0.1730  0.1023
   94MOL    C1318799   1.440   1.749   4.303  0.4689 -0.0458 -0.2167
   94MOL    C1418800   1.312   1.828   4.331  0.5416 -0.6013 -0.2286
   94MOL    O1518801   1.307   1.925   4.413  0.7684 -0.4909 -0.0122
   94MOL    N1618802   1.201   1.803   4.261 -0.1023  0.0848 -0.1902
   94MOL    H1718803   1.568   1.917   4.305 -1.0865  0.7584 -0.3145
   94MOL    H1818804   1.633   1.770   4.234  0.5830  1.2873 -0.0658
   94MOL    H1918805   1.417   1.666   4.236  0.5666  0.2464 -0.6130
   94MOL    H2018806   1.104   1.827   4.279 -0.8356 -3.4978  1.1248
   94MOL    H2118807   1.211   1.745   4.179  0.2033  0.4630 -0.4205
   94MOL    C2218808   1.499   1.688   4.435 -0.0527  0.4514  0.0276
   94MOL    C2318809   1.620   1.587   4.425 -0.6063 -0.7989  0.2772
   94MOL    C2418810   1.595   1.482   4.310 -0.4451 -0.4279 -0.7171
   94MOL    O2518811   1.492   1.415   4.316  0.0401 -0.3595 -0.0906
   94MOL    N2618812   1.675   1.475   4.206  0.0777 -0.2911  0.2515
   94MOL    H2718813   1.420   1.641   4.494  1.0986  0.5118  1.6658
   94MOL    H2818814   1.531   1.775   4.492 -0.7527  1.8613 -1.7007
   94MOL    H2918815   1.709   1.641   4.392 -0.1537 -1.8201 -0.2203
   94MOL    H3018816   1.736   1.553   4.189 -2.4386  1.3798 -1.5177
   94MOL    H3118817   1.674   1.396   4.143  2.1977  1.5999 -2.2730
   94MOL    C3218818   1.649   1.522   4.564 -0.4304  0.0650  0.0779
   94MOL    C3318819   1.769   1.419   4.589  0.1610 -0.1676 -0.5237
   94MOL    C3418820   1.905   1.475   4.538  0.2281 -0.0724  0.1040
   94MOL    O3518821   1.912   1.514   4.426  0.2206 -0.6283 -0.0890
   94MOL    N3618822   2.001   1.488   4.632  0.9789 -0.0836  0.4506
   94MOL    H3718823   1.562   1.467   4.601 -0.3961  0.7404  1.2003
   94MOL    H3818824   1.684   1.601   4.630 -2.9129  1.0212  0.3095
   94MOL    H3918825   1.779   1.411   4.697  0.6171  0.8644 -0.4847
   94MOL    H4018826   1.994   1.435   4.718 -0.8550 -1.3914 -0.4664
   94MOL    H4118827   2.090   1.522   4.600  0.8037  0.1954  0.2589
   94MOL    C4218828   1.738   1.277   4.542 -0.1299  0.4474 -0.4228
   94MOL    C4318829   1.809   1.153   4.600  0.1554 -0.0214  0.1184
   94MOL    C4418830   1.815   1.035   4.501 -0.6414  0.0518 -0.3334
   94MOL    O4518831   1.708   0.991   4.451  0.3616  0.5404  0.0421
   94MOL    N4618832   1.931   0.979   4.461 -0.1157  0.1208  0.1863
   94MOL    H4718833   1.763   1.278   4.436  0.7736 -0.4535 -0.2283
   94MOL    H4818834   1.631   1.257   4.539 -0.4028  1.8651 -0.4410
   94MOL    H4918835   1.910   1.194   4.603 -0.0879  0.5952  0.0552
   94MOL    H5018836   1.925   0.918   4.380 -0.5094 -0.0750  0.3637
   94MOL    H5118837   2.024   0.995   4.496 -0.2022 -1.1503  1.0542
   94MOL    C5218838   1.747   1.111   4.739  0.1161  0.4024  0.8076
   94MOL    C5318839   1.838   1.027   4.836  0.4348 -1.0212  0.4856
   94MOL    C5418840   1.839   0.877   4.799  0.2193  0.9910  0.8378
   94MOL    O5518841   1.939   0.814   4.765 -0.1667 -0.0367  0.1904
   94MOL    N5618842   1.726   0.814   4.787  0.4053 -0.4061  0.6399
   94MOL    H5718843   1.657   1.051   4.721  1.5410 -1.5995  0.0706
   94MOL    H5818844   1.707   1.195   4.794 -1.0668  2.1450 -2.5928
   94MOL    H5918845   1.939   1.062   4.816 -0.8149  2.0176 -0.8280
   94MOL    H6018846   1.731   0.730   4.732  0.3284  0.3709 -0.5827
   94MOL    H6118847   1.635   0.846   4.817  0.0338  0.1519 -1.0256
   94MOL    C6218848   1.806   1.054   4.988  1.4786  0.1064  0.5160
   94MOL    C6318849   1.893   1.164   5.050 -0.3130  0.3700 -0.1918
   94MOL    C6418850   1.898   1.295   4.975 -0.4461  0.1625 -0.4372
   94MOL    O6518851   1.970   1.312   4.878 -0.4151 -0.3172  0.0034
   94MOL    N6618852   1.815   1.391   5.009 -0.1078 -0.2922  0.0653
   94MOL    H6718853   1.825   0.964   5.046 -1.2914 -1.5240 -0.9843
   94MOL    H6818854   1.699   1.077   4.992  1.1948 -0.9543 -0.6748
   94MOL    H6918855   1.818   1.173   5.128 -1.4012 -0.5406 -1.1145
   94MOL    H7018856   1.744   1.379   5.080 -0.6927 -0.8350 -0.6049
   94MOL    H7118857   1.826   1.482   4.966  0.8432 -2.1348 -3.8988
   94MOL    C7218858   2.030   1.117   5.105 -0.2367 -0.1294 -0.7652
   94MOL    C7318859   2.039   1.120   5.255  0.3123 -0.2335  0.2096
   94MOL    C7418860   2.177   1.153   5.319  0.4450 -0.0387  0.9484
   94MOL    O7518861   2.192   1.158   5.436 -0.0887  0.3407 -0.2353
   94MOL    N7618862   2.281   1.180   5.240 -0.2539  0.2125  0.3422
   94MOL    H7718863   2.107   1.183   5.064 -2.2968  1.5277 -2.0756
   94MOL    H7818864   2.054   1.014   5.080 -4.1380 -1.9722  2.5556
   94MOL    H7918865   1.984   1.209   5.284  2.5259  0.4741  2.4083
   94MOL    H8018866   2.261   1.184   5.141  0.7176  1.3149  0.1703
   94MOL    H8118867   2.375   1.205   5.269  0.3456 -2.6546  0.9762
   94MOL    C8218868   1.983   0.993   5.327 -0.2847 -0.0546 -0.0064
   94MOL    C8318869   1.901   1.019   5.452 -0.4696  0.3165 -0.0807
   94MOL    C8418870   1.960   0.942   5.567  0.9321  0.1793  0.0581
   94MOL    O8518871   1.887   0.879   5.644  0.1997  0.3644  0.2471
   94MOL    N8618872   2.091   0.942   5.586 -0.4249  1.1719 -0.0814
   94MOL    H8718873   2.064   0.922   5.343 -0.4153 -0.5174 -1.3039
   94MOL    H8818874   1.928   0.943   5.247  1.2807 -1.7994 -0.0240
   94MOL    H8918875   1.914   1.124   5.479  0.7149  0.0664  0.3448
   94MOL    H9018876   2.136   1.007   5.523 -0.0894 -1.3855 -2.6463
   94MOL    H9118877   2.138   0.897   5.663  1.8643  2.1662 -0.8503
   94MOL    C9218878   1.752   0.997   5.411 -0.6112  0.0747 -0.0664
   94MOL    C9318879   1.636   1.011   5.512 -0.8136 -0.2825 -0.5665
   94MOL    C9418880   1.495   0.998   5.448  0.6744  0.0729 -0.9444
   94MOL    O9518881   1.472   1.006   5.330 -1.0191 -0.1866 -0.2291
   94MOL    N9618882   1.394   0.969   5.531 -0.2541 -0.5877  0.0662
   94MOL    H9718883   1.749   0.894   5.376 -3.5482  0.4014 -0.9546
   94MOL    H9818884   1.735   1.060   5.324  1.4758  0.1117 -0.4582
   94MOL    H9918885   1.639   0.922   5.574 -0.2263  0.9339  1.1837
   94MOL   H10018886   1.419   0.950   5.627 -0.7161 -2.5908 -0.1863
   94MOL   H10118887   1.300   0.960   5.497  0.3154 -3.5860 -0.8564
   94MOL   C10218888   1.662   1.128   5.614 -0.4875 -0.0556  0.2669
   94MOL   C10318889   1.661   1.273   5.558  0.0465  0.6365  0.2294
   94MOL   C10418890   1.752   1.346   5.655 -0.1747 -0.3958 -0.7081
   94MOL   O10518891   1.732   1.350   5.778 -0.1429 -0.1074 -0.0986
   94MOL   N10618892   1.852   1.415   5.610  0.9086 -0.1865 -1.0199
   94MOL   H10718893   1.754   1.101   5.665 -0.2705 -0.2928 -0.2493
   94MOL   H10818894   1.583   1.128   5.689 -1.1921 -1.7529 -0.4521
   94MOL   H10918895   1.703   1.269   5.458  0.6434 -3.1941  0.5342
   94MOL   H11018896   1.890   1.424   5.517  0.6693 -2.6154 -1.4046
   94MOL   H11118897   1.917   1.457   5.675  1.2267 -2.6009  0.2907
   94MOL   C11218898   1.519   1.328   5.546 -0.2966  0.0629  0.9687
   94MOL   C11318899   1.502   1.429   5.429  0.3402  0.0765 -0.0507
   94MOL   C11418900   1.514   1.358   5.294  0.5559  0.1342 -0.5737
   94MOL   O11518901   1.618   1.345   5.233  0.6289 -0.6770  0.2269
   94MOL   N11618902   1.407   1.310   5.229 -0.1216  0.0143 -0.7490
   94MOL   H11718903   1.482   1.368   5.641  0.6730 -0.5400  1.6097
   94MOL   H11818904   1.450   1.245   5.528  0.2842 -0.4276  0.9701
   94MOL   H11918905   1.397   1.457   5.434  0.1617 -0.2930 -1.5286
   94MOL   H12018906   1.315   1.307   5.270  0.6184  1.3535  1.0838
   94MOL   H12118907   1.412   1.283   5.132 -1.7224  1.2061 -1.1694
   94MOL   C12218908   1.590   1.560   5.449  0.0489  0.3087  0.2508
   94MOL   C12318909   1.507   1.692   5.437 -0.1560  0.4628 -0.2367
   94MOL   C12418910   1.590   1.808   5.378 -0.1104 -0.1239 -0.2272
   94MOL   O12518911   1.701   1.830   5.426  1.2723 -0.2292 -0.5058
   94MOL   N12618912   1.547   1.883   5.281  0.4364  0.0614  0.5981
   94MOL   H12718913   1.675   1.554   5.380 -3.5123  0.2765 -4.4447
   94MOL   H12818914   1.626   1.550   5.551 -0.6649 -1.2306  0.3670
   94MOL   H12918915   1.424   1.689   5.366  1.2419  0.0421 -1.8958
   94MOL   H13018916   1.613   1.950   5.245 -0.6482 -0.0043 -1.6432
   94MOL   H13118917   1.454   1.878   5.241  0.1977 -0.9214  1.2652
   94MOL   C13218918   1.460   1.728   5.575  0.4600 -0.1952 -0.0907
   94MOL   C13318919   1.332   1.658   5.631  0.0820 -0.2923 -0.6654
   94MOL   C13418920   1.205   1.661   5.536  0.0844  0.7337  0.4054
   94MOL   O13518921   1.193   1.733   5.438  0.3556  0.0296  0.9375
   94MOL   N13618922   1.116   1.560   5.543  0.1502 -0.5926  0.2777
   94MOL   H13718923   1.436   1.834   5.568  0.1163  0.0122  3.4632
   94MOL   H13818924   1.540   1.735   5.649 -0.8877 -3.1312  1.7133
   94MOL   H13918925   1.358   1.552   5.631  0.2804 -0.2618 -2.3636
   94MOL   H14018926   1.041   1.556   5.476 -0.4278 -0.4330  0.9057
   94MOL   H14118927   1.112   1.487   5.614  1.3960 -2.2875 -1.3434
   94MOL   C14218928   1.303   1.712   5.776  0.3418 -0.0693 -0.0927
   94MOL   C14318929   1.262   1.617   5.885  0.9154 -0.0363 -0.5646
   94MOL   C14418930   1.337   1.487   5.893 -0.0702  1.0264  0.0393
   94MOL   O14518931   1.286   1.378   5.857  0.4748  0.3490 -0.0476
   94MOL   N14618932   1.451   1.485   5.962 -0.4144  0.0105  0.4339
   94MOL   H14718933   1.244   1.804   5.778 -0.9904 -0.9090 -0.4014
   94MOL   H14818934   1.398   1.746   5.816 -0.1138 -0.2525  1.1725
   94MOL   H14918935   1.296   1.662   5.978  2.1818 -0.1073 -0.9833
   94MOL   H15018936   1.512   1.406   5.950 -1.4256 -0.8668  0.9135
   94MOL   H15118937   1.479   1.568   6.012  2.2422  0.2117 -1.3220
   94MOL   C15218938   1.107   1.600   5.888  0.2741  0.1010 -0.2704
   94MOL   C15318939   1.047   1.547   6.027 -0.3576  0.3683  0.8893
   94MOL   C15418940   0.984   1.404   6.019  0.2316 -0.3652 -0.1892
   94MOL   O15518941   0.861   1.383   6.048 -0.2800 -0.5894  0.1823
   94MOL   N15618942   1.057   1.302   5.970 -0.4067 -0.0877 -0.5052
   94MOL   H15718943   1.078   1.539   5.803  0.1683  0.2606 -0.3479
   94MOL   H15818944   1.080   1.704   5.872  2.3664  0.6786 -0.2436
   94MOL   H15918945   1.136   1.540   6.090 -0.6084  0.6163  1.2780
   94MOL   H16018946   1.012   1.213   5.953  2.9384 -2.0082  0.2380
   94MOL   H16118947   1.140   1.332   5.921  0.7659 -0.3423  1.2394
   94MOL   C16218948   0.955   1.649   6.095 -0.5767 -0.3346  0.0633
   94MOL   C16318949   1.030   1.778   6.141  0.3179  0.4888  0.0929
   94MOL   C16418950   1.025   1.791   6.295  1.2201 -0.0332 -0.1174
   94MOL   O16518951   0.928   1.842   6.349 -0.2372 -0.0663  0.0482
   94MOL   N16618952   1.130   1.754   6.363  0.3747 -0.1764 -0.1599
   94MOL   H16718953   0.904   1.602   6.179 -0.8962  0.5604  0.3725
   94MOL   H16818954   0.869   1.675   6.034 -0.1502 -0.3411 -0.5407
   94MOL   H16918955   1.137   1.774   6.121  1.1404  2.8495  3.4998
   94MOL   H17018956   1.136   1.772   6.462  0.5605 -2.2505  0.2289
   94MOL   H17118957   1.198   1.695   6.317  0.0287 -0.1783 -0.6729
   94MOL   C17218958   0.979   1.905   6.061 -0.3276 -0.3058 -0.2765
   94MOL   C17318959   1.059   2.041   6.070  0.4656  0.5095  0.7851
   94MOL   C17418960   1.191   2.026   5.979  0.0026 -1.0618  0.6207
   94MOL   O17518961   1.277   1.943   6.003 -0.0812  0.3315  0.1212
   94MOL   N17618962   1.222   2.128   5.895 -0.1976 -0.0596 -0.0178
   94MOL   H17718963   0.877   1.942   6.069  0.4592  2.3392 -1.9362
   94MOL   H17818964   0.969   1.864   5.960 -1.1207 -0.3091 -0.1989
   94MOL   H17918965   0.992   2.117   6.030 -1.0923 -1.2893 -0.1049
   94MOL   H18018966   1.305   2.132   5.838 -2.0232  0.6193 -2.7208
   94MOL   H18118967   1.151   2.199   5.886 -0.5040 -0.4612 -0.9024
   94MOL   C18218968   1.093   2.093   6.212  0.0509 -0.8296 -0.5790
   94MOL   C18318969   1.162   2.230   6.228 -0.5805  0.8807  0.3244
   94MOL   C18418970   1.224   2.234   6.375  0.3145  0.3985 -0.1662
   94MOL   O18518971   1.182   2.304   6.466  0.0862 -0.2443  0.6581
   94MOL   N18618972   1.327   2.156   6.394 -0.1130  0.0403  1.1253
   94MOL   H18718973   1.161   2.019   6.254 -0.7829 -1.1926  0.1456
   94MOL   H18818974   1.002   2.089   6.272 -1.0756  2.9294 -1.9007
   94MOL   H18918975   1.245   2.231   6.156  0.2108  1.9996  1.2357
   94MOL   H19018976   1.389   2.165   6.473  0.6187  0.1295  0.5506
   94MOL   H19118977   1.362   2.105   6.314 -2.6565  1.1039 -0.7159
   94MOL   C19218978   1.064   2.351   6.202 -0.5528 -0.5901 -0.5367
   94MOL   C19318979   1.135   2.484   6.193 -0.1101 -0.1562  0.1476
   94MOL   C19418980   1.047   2.607   6.227 -0.0240  0.8152 -0.4478
   94MOL   O19518981   1.094   2.706   6.275  0.4127 -0.2351  0.0274
   94MOL   N19618982   0.915   2.596   6.226  0.3341 -0.0996 -0.6477
   94MOL   H19718983   0.995   2.348   6.286  0.4710 -0.4443  0.3315
   94MOL   H19818984   1.002   2.337   6.114 -1.3531 -0.1974 -0.0432
   94MOL   H19918985   1.218   2.491   6.264 -1.2601 -2.3427  1.7332
   94MOL   H20018986   0.871   2.507   6.206 -0.6058  0.1127  0.3815
   94MOL   H20118987   0.864   2.673   6.267 -2.7408 -3.1504  1.5839
   94MOL   H20218988   1.193   2.494   6.101  2.5796 -1.9831  1.5745
   95MOL     C118989   2.986   6.753   1.122 -0.5013  0.0329 -0.2902
   95MOL     C218990   2.967   6.903   1.164 -0.6929 -0.5790  0.6969
   95MOL     C318991   2.878   6.982   1.074  0.3164 -0.8542 -0.0077
   95MOL     O418992   2.768   7.033   1.108 -0.4150 -0.1904 -0.0227
   95MOL     N518993   2.912   6.986   0.948 -0.2808  0.4938  0.2360
   95MOL     H618994   3.071   6.748   1.054 -0.4198  2.1936 -0.3879
   95MOL     H718995   3.003   6.685   1.205  1.6063  1.7645  0.7534
   95MOL     H818996   2.912   6.909   1.258 -1.1819  1.1084  0.3301
   95MOL     H918997   2.844   7.030   0.887  1.0665  2.1243 -0.1270
   95MOL    H1018998   3.000   6.947   0.918  1.0430  3.0121  0.5989
   95MOL    H1118999   2.899   6.715   1.067  0.9579 -1.1691 -1.8233
   95MOL    C1219000   3.103   6.983   1.180  0.2174  0.5660  0.0299
   95MOL    C1319001   3.168   6.964   1.320 -0.0452 -0.4892 -0.8046
   95MOL    C1419002   3.087   7.048   1.426 -0.4222  0.3760 -0.7843
   95MOL    O1519003   3.057   7.166   1.403  0.1124 -0.2929 -0.0018
   95MOL    N1619004   3.045   6.981   1.535 -1.3248 -0.2508 -0.1562
   95MOL    H1719005   3.079   7.088   1.162  3.2423  0.7924 -3.0305
   95MOL    H1819006   3.169   6.967   1.095  1.7661 -0.8781  1.4579
   95MOL    H1919007   3.160   6.860   1.353 -1.0537 -0.1127  0.1541
   95MOL    H2019008   2.978   7.016   1.603 -1.6469 -0.4490 -0.3672
   95MOL    H2119009   3.102   6.907   1.574 -0.7476  0.5388  0.5142
   95MOL    C2219010   3.309   7.012   1.313  0.2961 -0.1208  0.0194
   95MOL    C2319011   3.410   6.940   1.416 -1.0248 -0.0544  0.6939
   95MOL    C2419012   3.374   6.975   1.562 -0.6193 -0.2397 -1.1950
   95MOL    O2519013   3.383   7.093   1.610  0.1087 -0.4014  0.3467
   95MOL    N2619014   3.306   6.885   1.633  0.0753  0.0510  0.5446
   95MOL    H2719015   3.327   7.117   1.336  0.1775 -0.2863  0.8839
   95MOL    H2819016   3.343   6.988   1.212  2.6812 -0.1494  0.7868
   95MOL    H2919017   3.394   6.833   1.398 -1.1631 -0.0784  0.9729
   95MOL    H3019018   3.283   6.798   1.586  0.0112 -0.0393  0.7417
   95MOL    H3119019   3.285   6.905   1.730 -1.6686  0.1922  0.1628
   95MOL    C3219020   3.556   6.969   1.381 -0.3306  0.0367  0.0123
   95MOL    C3319021   3.667   6.848   1.374 -0.8986  0.2491 -1.0499
   95MOL    C3419022   3.648   6.775   1.240  0.4153  0.7488 -0.4390
   95MOL    O3519023   3.549   6.778   1.168  0.2467 -0.8208  0.0674
   95MOL    N3619024   3.752   6.700   1.205  0.0319  1.0100  0.0818
   95MOL    H3719025   3.596   7.036   1.457  0.2987  0.9105 -1.0802
   95MOL    H3819026   3.548   7.018   1.284 -0.9013  1.2859  0.6750
   95MOL    H3919027   3.763   6.901   1.371 -2.0929  2.3965 -2.7723
   95MOL    H4019028   3.744   6.617   1.148 -0.4520  1.7701 -0.9842
   95MOL    H4119029   3.829   6.700   1.270  0.7092 -0.0412 -0.6987
   95MOL    C4219030   3.668   6.765   1.503 -1.3298  0.4217  0.4449
   95MOL    C4319031   3.792   6.780   1.600 -0.3846  0.4082 -0.0211
   95MOL    C4419032   3.897   6.675   1.548 -0.4232 -0.3229 -0.2602
   95MOL    O4519033   3.925   6.683   1.429 -0.1834 -0.7972 -0.3728
   95MOL    N4619034   3.954   6.588   1.637  0.0399  0.4242 -0.4695
   95MOL    H4719035   3.641   6.660   1.497 -2.5955  0.5813  2.7185
   95MOL    H4819036   3.578   6.794   1.558 -2.8440  1.7535 -2.6169
   95MOL    H4919037   3.851   6.869   1.577  2.0682 -1.1705  0.0492
   95MOL    H5019038   3.917   6.579   1.730  3.5935  2.2112  1.2037
   95MOL    H5119039   4.030   6.527   1.609  0.7025  0.1251  1.8872
   95MOL    C5219040   3.757   6.767   1.749 -0.0285  0.1494 -0.0410
   95MOL    C5319041   3.691   6.898   1.806  0.1017  0.3122 -0.0577
   95MOL    C5419042   3.787   7.010   1.799  0.5648 -0.2352 -0.0231
   95MOL    O5519043   3.770   7.096   1.712  0.5488 -0.4419  0.4085
   95MOL    N5619044   3.896   7.016   1.874 -0.1607  0.7835  0.2058
   95MOL    H5719045   3.849   6.742   1.801  0.8916  2.0547 -0.7121
   95MOL    H5819046   3.680   6.691   1.767 -0.4532  0.8959  1.3638
   95MOL    H5919047   3.608   6.921   1.738  0.7081 -0.0057 -0.9074
   95MOL    H6019048   3.955   7.096   1.857  0.5307  0.0955 -0.6628
   95MOL    H6119049   3.912   6.953   1.951  0.3051  0.4985 -0.1241
   95MOL    C6219050   3.644   6.873   1.948  0.2645 -0.0449 -0.0991
   95MOL    C6319051   3.575   6.995   2.017  0.0809 -0.7003 -0.6223
   95MOL    C6419052   3.518   6.939   2.147  0.0701 -0.4832 -0.0050
   95MOL    O6519053   3.448   6.844   2.154  0.0073  0.1207 -0.3351
   95MOL    N6619054   3.549   6.998   2.262  0.2247 -0.0519 -0.1419
   95MOL    H6719055   3.723   6.832   2.012 -1.2079 -0.4856  1.4746
   95MOL    H6819056   3.584   6.783   1.939 -1.1154  0.7496  0.9442
   95MOL    H6919057   3.651   7.066   2.051  0.8329 -2.0316  0.5435
   95MOL    H7019058   3.576   7.095   2.257 -1.4216  0.5808  2.3125
   95MOL    H7119059   3.515   6.972   2.353 -0.1293  1.0237  0.0443
   95MOL    C7219060   3.473   7.078   1.930 -0.8887  0.1886  0.5353
   95MOL    C7319061   3.398   7.200   1.977  0.0233  0.3067 -0.1561
   95MOL    C7419062   3.498   7.291   2.056 -0.6033 -0.6839  0.1768
   95MOL    O7519063   3.507   7.289   2.181 -0.2962  0.1167 -0.1035
   95MOL    N7619064   3.577   7.366   1.985  0.6334 -0.3401  0.3024
   95MOL    H7719065   3.397   7.011   1.892 -2.0238  1.1282  1.1091
   95MOL    H7819066   3.530   7.106   1.841 -0.9065  1.5921  0.9456
   95MOL    H7919067   3.375   7.258   1.887 -1.3575 -2.1728 -1.4774
   95MOL    H8019068   3.619   7.442   2.037  0.4948 -0.7028  0.9443
   95MOL    H8119069   3.589   7.369   1.885  0.9940  0.7286  0.3743
   95MOL    C8219070   3.259   7.160   2.050  0.0424 -0.0719 -0.1260
   95MOL    C8319071   3.155   7.113   1.947  1.1124 -0.0618  0.0590
   95MOL    C8419072   3.069   7.227   1.888  0.4065 -0.0983 -0.2789
   95MOL    O8519073   3.015   7.210   1.780 -0.2796  0.6898 -0.3431
   95MOL    N8619074   3.040   7.329   1.962  0.1363  0.0804  0.0349
   95MOL    H8719075   3.216   7.246   2.102  0.5378 -0.8430  1.5918
   95MOL    H8819076   3.291   7.097   2.132  1.7222  0.5578 -0.2626
   95MOL    H8919077   3.194   7.067   1.856 -1.6282 -1.1532 -0.6194
   95MOL    H9019078   3.054   7.323   2.062 -1.5270  0.5224  0.3134
   95MOL    H9119079   2.970   7.392   1.924 -0.5266 -0.3050  0.6060
   95MOL    C9219080   3.053   7.012   2.008  0.0730  0.1716  0.3099
   95MOL    C9319081   3.118   6.877   2.062 -0.0144  0.7470  0.6805
   95MOL    C9419082   3.145   6.773   1.955  0.1679 -0.1676  0.1842
   95MOL    O9519083   3.061   6.743   1.871 -0.8265  0.0640 -1.3794
   95MOL    N9619084   3.266   6.718   1.955 -0.6718 -0.0390 -0.3142
   95MOL    H9719085   2.963   6.997   1.948 -0.7274 -1.4054  1.8606
   95MOL    H9819086   3.020   7.064   2.098 -0.0561  0.6353 -0.0013
   95MOL    H9919087   3.213   6.905   2.107  0.2590  2.0344 -0.6495
   95MOL   H10019088   3.298   6.649   1.890 -2.6335 -0.4963 -0.8192
   95MOL   H10119089   3.336   6.752   2.019 -0.1640 -0.8280 -0.4517
   95MOL   C10219090   3.022   6.814   2.170  0.0399  0.2277 -0.3097
   95MOL   C10319091   3.006   6.882   2.304 -0.8666  0.2650 -0.3796
   95MOL   C10419092   3.139   6.906   2.372  0.1093  0.1975 -0.2665
   95MOL   O10519093   3.203   6.814   2.428 -0.0805 -0.2653  0.0677
   95MOL   N10619094   3.182   7.026   2.366  0.0821  0.1978 -0.4667
   95MOL   H10719095   3.051   6.710   2.181  2.3894  1.0793  1.8129
   95MOL   H10819096   2.927   6.799   2.119 -0.9584 -1.5313  1.9762
   95MOL   H10919097   2.960   6.978   2.281 -0.9622  0.6883  1.4999
   95MOL   H11019098   3.262   7.058   2.420 -0.6516 -0.0385  0.7901
   95MOL   H11119099   3.124   7.091   2.316 -0.2119  0.7119  0.5270
   95MOL   C11219100   2.896   6.827   2.405  0.2470 -0.4737 -1.2123
   95MOL   C11319101   2.756   6.788   2.351  0.1230  0.2102  0.6083
   95MOL   C11419102   2.691   6.895   2.257 -0.2780 -0.8680  0.1794
   95MOL   O11519103   2.691   7.014   2.295 -0.5516 -0.0870  0.4191
   95MOL   N11619104   2.644   6.859   2.140  0.0982  0.2627  0.0148
   95MOL   H11719105   2.889   6.906   2.480  0.5917 -2.7174  1.2773
   95MOL   H11819106   2.943   6.739   2.450  0.8911  0.2102 -0.5242
   95MOL   H11919107   2.780   6.712   2.278  2.7124  1.0046  0.5872
   95MOL   H12019108   2.595   6.925   2.081 -0.5390  1.0983  1.4577
   95MOL   H12119109   2.652   6.762   2.110 -1.8167  0.4936 -1.3254
   95MOL   C12219110   2.667   6.742   2.471  0.2284 -0.3005 -0.2344
   95MOL   C12319111   2.685   6.601   2.537 -0.2051  0.1843 -0.1430
   95MOL   C12419112   2.736   6.612   2.684  0.7102  0.3310  0.2465
   95MOL   O12519113   2.812   6.529   2.730  0.1368 -0.3564 -0.2833
   95MOL   N12619114   2.685   6.703   2.759 -0.3775  0.2166  0.1893
   95MOL   H12719115   2.572   6.742   2.416  0.7574  1.3646 -1.1819
   95MOL   H12819116   2.652   6.822   2.543 -0.3874 -1.7812  1.2967
   95MOL   H12919117   2.583   6.565   2.552 -0.2943  0.6515  0.4183
   95MOL   H13019118   2.711   6.715   2.856  4.2134 -0.0992 -0.8672
   95MOL   H13119119   2.596   6.742   2.732 -0.6459  0.6361  1.6431
   95MOL   C13219120   2.757   6.498   2.447  0.0245  0.0171  0.8058
   95MOL   C13319121   2.690   6.441   2.321 -0.6960 -0.5487  0.1816
   95MOL   C13419122   2.562   6.369   2.350 -0.0622 -0.0126  0.1300
   95MOL   O13519123   2.566   6.260   2.407  0.5043  0.0077  0.7244
   95MOL   N13619124   2.443   6.425   2.311 -0.3260  0.1437 -0.7043
   95MOL   H13719125   2.782   6.409   2.505  3.0944  0.7863  0.7191
   95MOL   H13819126   2.849   6.550   2.421  0.0741 -0.7993 -0.7048
   95MOL   H13919127   2.654   6.528   2.266 -0.8156 -0.6418  0.1136
   95MOL   H14019128   2.425   6.519   2.277  1.7202  1.1322  0.8183
   95MOL   H14119129   2.353   6.383   2.329  0.7317 -1.4388  1.0028
   95MOL   C14219130   2.797   6.349   2.247 -0.2483  0.2797  0.5243
   95MOL   C14319131   2.799   6.358   2.090  0.0733  0.4720 -0.5321
   95MOL   C14419132   2.821   6.499   2.035 -0.2077  0.4743 -0.2078
   95MOL   O14519133   2.753   6.595   2.076 -0.8344  0.1493 -0.4653
   95MOL   N14619134   2.919   6.519   1.947  0.9685  0.0523  0.1395
   95MOL   H14719135   2.769   6.249   2.281  3.3429  0.0577  3.1225
   95MOL   H14819136   2.901   6.353   2.280  0.0706  1.1751 -0.5520
   95MOL   H14919137   2.878   6.291   2.057 -1.7799 -2.8226  1.4684
   95MOL   H15019138   2.963   6.440   1.903 -1.5881 -1.6425  0.4795
   95MOL   H15119139   2.941   6.608   1.904  1.6737  0.1554  0.7143
   95MOL   C15219140   2.671   6.299   2.018 -0.0211  0.1422 -0.1159
   95MOL   C15319141   2.661   6.146   2.000 -0.2488 -0.1358  0.7869
   95MOL   C15419142   2.770   6.095   1.906 -0.2080 -0.0970  0.6357
   95MOL   O15519143   2.773   6.119   1.792  0.7164  0.0998 -0.1261
   95MOL   N15619144   2.866   6.021   1.961 -0.5998  0.0553 -0.3354
   95MOL   H15719145   2.666   6.339   1.917 -1.4160  0.0852 -0.0773
   95MOL   H15819146   2.587   6.342   2.073  1.0161  2.9310 -0.6147
   95MOL   H15919147   2.695   6.100   2.093  1.0429 -0.0290  0.3796
   95MOL   H16019148   2.940   5.977   1.908  2.4272 -1.4520  4.7517
   95MOL   H16119149   2.852   5.989   2.056 -2.0072  3.0039  0.4946
   95MOL   C16219150   2.527   6.101   1.956  0.5120  0.3825  0.3385
   95MOL   C16319151   2.426   6.095   2.074 -0.2710  0.1313  0.4649
   95MOL   C16419152   2.454   5.973   2.160 -0.3625  0.4249  0.0296
   95MOL   O16519153   2.404   5.867   2.138  0.9651 -0.3196 -0.1649
   95MOL   N16619154   2.519   5.991   2.272 -0.5250  0.3906  0.3698
   95MOL   H16719155   2.546   6.005   1.907  2.0850  0.6327  0.4194
   95MOL   H16819156   2.496   6.145   1.861  0.3592 -1.9133 -0.7142
   95MOL   H16919157   2.441   6.183   2.137 -0.9996  0.4752  0.1622
   95MOL   H17019158   2.559   5.907   2.309 -0.0453  0.4762  0.0457
   95MOL   H17119159   2.550   6.083   2.302 -0.1937 -0.1681  1.7386
   95MOL   C17219160   2.278   6.100   2.026  0.0678 -0.3433  0.0824
   95MOL   C17319161   2.229   6.227   1.941  0.1857  0.0620  1.0489
   95MOL   C17419162   2.243   6.360   2.017 -0.0728 -0.1918 -0.0202
   95MOL   O17519163   2.178   6.388   2.124  0.4130  0.7350  0.1342
   95MOL   N17619164   2.334   6.442   1.964  0.4213  0.0279 -0.2009
   95MOL   H17719165   2.213   6.096   2.113  0.4102  1.4060  0.4342
   95MOL   H17819166   2.271   6.010   1.965 -0.9571 -0.5657  0.5260
   95MOL   H17919167   2.287   6.230   1.849  0.4592  1.0234  1.2493
   95MOL   H18019168   2.394   6.412   1.889  1.2999 -2.0755  1.2985
   95MOL   H18119169   2.352   6.527   2.016  0.1471  0.3853 -0.6869
   95MOL   C18219170   2.097   6.207   1.869 -0.1160  0.1656 -0.7533
   95MOL   C18319171   1.987   6.128   1.935  0.2486 -0.2220 -0.7497
   95MOL   C18419172   1.882   6.097   1.820 -0.2251 -0.1375 -1.2488
   95MOL   O18519173   1.870   6.185   1.733 -0.5211 -0.1727  0.1830
   95MOL   N18619174   1.822   5.987   1.830 -0.1742 -0.0659  0.7004
   95MOL   H18719175   2.113   6.176   1.766 -1.8468  3.8208 -2.1812
   95MOL   H18819176   2.057   6.307   1.858  2.3560  1.3245  0.3784
   95MOL   H18919177   2.033   6.033   1.963 -2.0498 -1.4159 -0.8299
   95MOL   H19019178   1.757   5.969   1.755  0.9078  0.8993 -0.4924
   95MOL   H19119179   1.860   5.913   1.887 -0.1806 -2.4076 -2.2292
   95MOL   C19219180   1.925   6.166   2.068  0.2226 -0.0694 -0.3871
   95MOL   C19319181   1.835   6.296   2.072 -0.1288 -0.5411 -0.1965
   95MOL   C19419182   1.779   6.335   2.211 -0.3964  0.7012 -0.7334
   95MOL   O19519183   1.807   6.274   2.307  0.4185 -0.5086 -0.3132
   95MOL   N19619184   1.679   6.418   2.220 -0.0144 -1.1645  0.6727
   95MOL   H19719185   1.994   6.181   2.151 -0.7199  2.3039  0.0057
   95MOL   H19819186   1.863   6.085   2.105  2.3759 -1.0415  1.2353
   95MOL   H19919187   1.867   6.390   2.027  2.2453  0.1681  2.8503
   95MOL   H20019188   1.630   6.430   2.308 -1.1231 -0.0921 -0.0699
   95MOL   H20119189   1.667   6.486   2.147  3.7983  1.1266  2.0700
   95MOL   H20219190   1.747   6.261   2.017 -0.1063  0.8411 -1.1429
   96MOL     C119191   5.226   5.532   4.987 -0.4893  0.8524  0.1343
   96MOL     C219192   5.188   5.434   4.873  0.0901  0.0464 -0.4320
   96MOL     C319193   5.041   5.389   4.891  0.5300  0.5679 -0.1679
   96MOL     O419194   5.011   5.308   4.981  0.4301 -0.0004 -1.0678
   96MOL     N519195   4.947   5.428   4.808 -0.5393 -0.7589  0.5235
   96MOL     H619196   5.159   5.618   4.982 -0.3150  0.9618 -0.3512
   96MOL     H719197   5.212   5.490   5.086  0.5356 -0.0889 -0.1175
   96MOL     H819198   5.185   5.491   4.780 -1.3001 -1.5485 -1.4147
   96MOL     H919199   4.962   5.490   4.729  1.7579 -1.9464 -0.0160
   96MOL    H1019200   4.854   5.401   4.836 -0.8761 -0.8000 -0.6109
   96MOL    H1119201   5.326   5.568   4.965 -1.2154  1.2153 -2.9063
   96MOL    C1219202   5.281   5.315   4.845 -0.2383 -0.2475 -0.5306
   96MOL    C1319203   5.319   5.222   4.963 -0.4758  0.4168 -0.1702
   96MOL    C1419204   5.413   5.281   5.071 -0.0153  1.0801 -0.2327
   96MOL    O1519205   5.518   5.333   5.041  0.2293  0.0432  0.2685
   96MOL    N1619206   5.382   5.266   5.204 -0.0168  0.3592  0.1298
   96MOL    H1719207   5.371   5.347   4.792  0.3793  1.1538  1.3003
   96MOL    H1819208   5.230   5.274   4.758 -0.7262  0.2573 -0.4900
   96MOL    H1919209   5.228   5.193   5.017  0.4016 -1.4495  0.3327
   96MOL    H2019210   5.293   5.224   5.226  0.3316  0.9955  2.9253
   96MOL    H2119211   5.428   5.324   5.273  0.1421  2.1931 -1.4409
   96MOL    C2219212   5.383   5.086   4.914 -0.5465  0.3816  0.5346
   96MOL    C2319213   5.404   4.971   5.017 -0.4647  0.1266 -1.0893
   96MOL    C2419214   5.543   4.910   5.013 -0.5211  0.3418  0.0533
   96MOL    O2519215   5.557   4.787   5.020 -0.1173 -0.2366 -0.2779
   96MOL    N2619216   5.643   4.990   4.985  0.2135  0.4190 -0.4230
   96MOL    H2719217   5.470   5.125   4.861 -0.0446 -0.2037  0.9334
   96MOL    H2819218   5.327   5.048   4.828  0.3099 -2.2470  1.1089
   96MOL    H2919219   5.405   5.008   5.120 -0.4773 -1.5354 -0.4786
   96MOL    H3019220   5.612   5.084   4.969 -0.6772  0.0417 -0.9402
   96MOL    H3119221   5.739   4.959   4.977 -0.3849 -1.5084 -0.5350
   96MOL    C3219222   5.284   4.870   5.016  0.3460 -0.0068  0.0024
   96MOL    C3319223   5.198   4.856   5.142 -0.2820 -0.6710  0.1390
   96MOL    C3419224   5.132   4.989   5.176 -0.6497  0.2071 -0.0174
   96MOL    O3519225   5.184   5.066   5.266  0.4122  0.0629  0.0027
   96MOL    N3619226   5.029   5.028   5.104 -0.9289  0.1481  0.3398
   96MOL    H3719227   5.323   4.769   5.005 -0.0563 -0.0667 -0.9253
   96MOL    H3819228   5.225   4.890   4.926 -0.2075 -0.3824  0.2845
   96MOL    H3919229   5.110   4.796   5.120 -1.5486  0.9718  0.6843
   96MOL    H4019230   5.005   5.126   5.109 -2.1298 -0.0491 -1.2281
   96MOL    H4119231   5.005   4.972   5.024 -1.0271  1.0891 -0.2974
   96MOL    C4219232   5.276   4.810   5.276  0.7143 -0.4291  0.5598
   96MOL    C4319233   5.319   4.664   5.279 -0.4741 -0.1031 -0.8553
   96MOL    C4419234   5.206   4.567   5.265  0.3257  0.2335 -0.5770
   96MOL    O4519235   5.103   4.585   5.331 -0.2301 -0.3635 -0.4870
   96MOL    N4619236   5.213   4.462   5.185  0.0514  0.1465  0.5697
   96MOL    H4719237   5.211   4.823   5.363  2.0605  1.2000  1.3564
   96MOL    H4819238   5.368   4.863   5.302  0.0127  0.0431  2.1767
   96MOL    H4919239   5.372   4.648   5.185 -2.8586 -2.5385 -1.8273
   96MOL    H5019240   5.293   4.434   5.132 -0.7628 -1.3377  0.0975
   96MOL    H5119241   5.125   4.423   5.154 -0.4408  1.6813 -0.0446
   96MOL    C5219242   5.399   4.629   5.409 -0.2450 -0.6984  0.3542
   96MOL    C5319243   5.545   4.672   5.417 -0.6495 -0.6067 -0.9121
   96MOL    C5419244   5.642   4.587   5.337 -0.3827 -0.2796 -0.5283
   96MOL    O5519245   5.695   4.490   5.382 -0.0368 -0.6125 -0.1348
   96MOL    N5619246   5.660   4.611   5.207 -0.0281  0.0838  0.0994
   96MOL    H5719247   5.404   4.521   5.417  1.3252 -0.6814 -0.4356
   96MOL    H5819248   5.342   4.653   5.499  0.4770  1.5387  0.2458
   96MOL    H5919249   5.549   4.772   5.374  0.5144 -0.5757 -0.7520
   96MOL    H6019250   5.715   4.553   5.145 -0.8888  0.3781 -0.9745
   96MOL    H6119251   5.605   4.680   5.156 -1.1901 -0.0976  1.0920
   96MOL    C6219252   5.592   4.684   5.569  0.6665  0.0561  0.3754
   96MOL    C6319253   5.734   4.739   5.604  0.9606  0.0975  0.7022
   96MOL    C6419254   5.816   4.621   5.664 -0.1900  0.2656  0.0274
   96MOL    O6519255   5.769   4.556   5.758 -0.4403 -0.7887  0.0525
   96MOL    N6619256   5.937   4.595   5.608  0.6121  0.1438  0.0059
   96MOL    H6719257   5.577   4.585   5.611  2.2901  0.4747  1.9737
   96MOL    H6819258   5.519   4.749   5.618 -2.3184 -1.0799 -2.3497
   96MOL    H6919259   5.780   4.778   5.513 -2.0902  0.6785 -0.6570
   96MOL    H7019260   5.971   4.658   5.537  0.2369  0.3236 -0.0119
   96MOL    H7119261   5.995   4.519   5.641 -0.1038 -0.0129  0.9142
   96MOL    C7219262   5.725   4.854   5.700  0.7419  0.0393 -0.0920
   96MOL    C7319263   5.866   4.915   5.726  0.2968 -0.2751  0.0133
   96MOL    C7419264   5.921   4.881   5.859  0.0740 -1.0983  0.0652
   96MOL    O7519265   5.851   4.825   5.941 -0.5882 -0.2180  0.7438
   96MOL    N7619266   6.047   4.925   5.878  0.2849 -0.1011  0.3142
   96MOL    H7719267   5.672   4.824   5.790  0.1557 -0.6024 -0.6446
   96MOL    H7819268   5.660   4.930   5.656 -0.6830 -1.1293 -0.0692
   96MOL    H7919269   5.936   4.890   5.646 -1.1617 -0.8072 -1.1326
   96MOL    H8019270   6.076   4.940   5.974 -0.5773  2.7518  0.1696
   96MOL    H8119271   6.089   4.981   5.806 -1.8510  2.5886  1.0593
   96MOL    C8219272   5.856   5.077   5.705  1.0707  0.1100  0.6956
   96MOL    C8319273   5.910   5.125   5.574 -0.0794  0.2375 -0.2311
   96MOL    C8419274   6.064   5.130   5.580 -0.2673 -0.1410 -0.1683
   96MOL    O8519275   6.125   5.052   5.650 -0.5036 -0.0066 -0.1580
   96MOL    N8619276   6.127   5.224   5.506  0.3652 -0.6230 -0.1410
   96MOL    H8719277   5.918   5.133   5.775  3.0515  0.5566 -1.3658
   96MOL    H8819278   5.757   5.118   5.720  1.1552  0.8762 -0.7728
   96MOL    H8919279   5.868   5.049   5.508  1.5359  0.8425 -2.0231
   96MOL    H9019280   6.075   5.289   5.448  0.4768 -0.4684 -0.0685
   96MOL    H9119281   6.225   5.221   5.482 -0.0703 -2.5377 -1.8847
   96MOL    C9219282   5.845   5.257   5.523  0.0380 -0.1333 -0.3210
   96MOL    C9319283   5.700   5.254   5.493  0.0503  0.1187 -0.4577
   96MOL    C9419284   5.665   5.152   5.388  0.3776 -0.3859  0.0806
   96MOL    O9519285   5.728   5.160   5.283  0.2514  0.0848 -0.7605
   96MOL    N9619286   5.562   5.067   5.409  0.5377 -0.0351 -0.0997
   96MOL    H9719287   5.897   5.289   5.432  0.4471 -1.4630 -0.5624
   96MOL    H9819288   5.871   5.319   5.609  1.1535 -1.9247  0.6578
   96MOL    H9919289   5.651   5.221   5.584 -0.7222  0.8695 -0.5869
   96MOL   H10019290   5.514   5.081   5.497  1.7065 -1.0519  0.7167
   96MOL   H10119291   5.523   5.004   5.340  0.6329  1.3155 -1.4046
   96MOL   C10219292   5.668   5.398   5.441  0.1598 -0.2774  0.0636
   96MOL   C10319293   5.619   5.476   5.571  0.2120 -0.8997  1.3277
   96MOL   C10419294   5.466   5.474   5.578 -0.1005 -0.0494 -0.3978
   96MOL   O10519295   5.403   5.516   5.479  0.0840  0.2918 -0.0757
   96MOL   N10619296   5.413   5.421   5.678  0.2731  1.0981 -0.6817
   96MOL   H10719297   5.581   5.395   5.375  2.8976  1.1244 -3.7721
   96MOL   H10819298   5.742   5.449   5.381  1.4408  0.0029  1.8541
   96MOL   H10919299   5.661   5.443   5.665 -0.3347  2.4664  2.8161
   96MOL   H11019300   5.312   5.421   5.681  0.2598  2.2818 -0.6916
   96MOL   H11119301   5.459   5.424   5.768 -2.1664  1.5227  0.6284
   96MOL   C11219302   5.671   5.622   5.584 -0.0909  0.5178 -0.3842
   96MOL   C11319303   5.791   5.659   5.680 -0.1832 -0.1372  0.6120
   96MOL   C11419304   5.787   5.814   5.689  0.5968  0.4544  0.5266
   96MOL   O11519305   5.858   5.891   5.629 -0.2537 -0.5103  0.0577
   96MOL   N11619306   5.688   5.870   5.760 -0.2017 -0.0312 -0.0953
   96MOL   H11719307   5.593   5.690   5.619 -0.5701 -0.8424  1.2813
   96MOL   H11819308   5.689   5.659   5.483  1.2216  1.4275  0.1736
   96MOL   H11919309   5.776   5.624   5.782  1.8005  1.0839  1.3304
   96MOL   H12019310   5.677   5.970   5.755 -0.2750 -0.0935 -1.4966
   96MOL   H12119311   5.621   5.814   5.811 -1.0530  1.2539  0.2271
   96MOL   C12219312   5.929   5.607   5.628 -0.2941  0.3213  0.0575
   96MOL   C12319313   6.035   5.589   5.739  0.5988 -0.4927  0.3343
   96MOL   C12419314   6.176   5.602   5.696  0.1861  0.7861 -0.6755
   96MOL   O12519315   6.263   5.661   5.761 -0.3330 -0.0341  0.2078
   96MOL   N12619316   6.211   5.548   5.577 -0.2640  0.5224 -0.4854
   96MOL   H12719317   5.968   5.679   5.556  0.5702 -1.0714 -0.8685
   96MOL   H12819318   5.926   5.514   5.572 -1.2131  0.8112 -0.7115
   96MOL   H12919319   6.027   5.669   5.813  1.6643 -0.9536  0.9589
   96MOL   H13019320   6.310   5.545   5.561 -0.0411  1.0454  0.7225
   96MOL   H13119321   6.141   5.502   5.520 -1.9964  0.0676  1.8879
   96MOL   C13219322   6.015   5.463   5.832  0.2289 -0.4123  0.2682
   96MOL   C13319323   6.072   5.467   5.970  0.5596 -0.0423 -0.2231
   96MOL   C13419324   6.052   5.336   6.055 -0.4443  0.2477  0.0890
   96MOL   O13519325   5.938   5.299   6.082  0.2802  0.2457 -0.3582
   96MOL   N13619326   6.164   5.269   6.092  0.0489 -0.0086 -0.1022
   96MOL   H13719327   6.060   5.375   5.786 -0.7859 -0.2179 -1.1443
   96MOL   H13819328   5.908   5.443   5.836 -0.1546  0.9115 -2.0271
   96MOL   H13919329   6.180   5.483   5.974  0.5438  0.5212 -1.7903
   96MOL   H14019330   6.255   5.303   6.065  1.0257 -0.9400  1.8882
   96MOL   H14119331   6.137   5.180   6.133  0.3366  0.2932  0.7468
   96MOL   C14219332   6.009   5.587   6.056 -0.3124 -0.2466  0.2140
   96MOL   C14319333   6.110   5.701   6.083 -0.6827 -0.2254 -0.7239
   96MOL   C14419334   6.198   5.658   6.196  0.0420  0.7967  0.3279
   96MOL   O14519335   6.160   5.678   6.311 -0.0524  0.0053  0.0916
   96MOL   N14619336   6.309   5.596   6.172 -0.2722 -0.6849  0.4317
   96MOL   H14719337   5.968   5.559   6.153 -0.1241 -0.8318  0.1249
   96MOL   H14819338   5.925   5.634   6.004 -0.3578  1.0763  1.4421
   96MOL   H14919339   6.172   5.708   5.993 -0.9050  2.7723 -0.7038
   96MOL   H15019340   6.333   5.578   6.076 -0.6396  2.2704 -0.2764
   96MOL   H15119341   6.359   5.561   6.252 -0.0586 -2.2031 -0.3459
   96MOL   C15219342   6.053   5.847   6.096  0.6299  0.1461 -0.6865
   96MOL   C15319343   6.115   5.948   5.997 -0.0913 -0.1985  0.2745
   96MOL   C15419344   6.269   5.950   6.022 -0.5364 -0.1649  0.3264
   96MOL   O15519345   6.310   6.001   6.127  0.2726 -0.1246 -0.4352
   96MOL   N15619346   6.353   5.915   5.925  0.0344 -0.3463  0.0936
   96MOL   H15719347   6.066   5.876   6.200  2.9925 -0.0194 -0.8871
   96MOL   H15819348   5.945   5.849   6.090  0.3910  1.0813  2.7087
   96MOL   H15919349   6.087   5.919   5.896  1.1182 -0.2771 -0.0408
   96MOL   H16019350   6.446   5.954   5.922  0.0226 -0.2682  0.7799
   96MOL   H16119351   6.322   5.875   5.837 -0.8154 -1.2165  0.7755
   96MOL   C16219352   6.043   6.086   6.009 -0.7210 -0.0990  0.0676
   96MOL   C16319353   6.063   6.170   5.877  0.9075  0.0349  0.3557
   96MOL   C16419354   6.196   6.246   5.870 -0.2098 -0.0459 -0.1150
   96MOL   O16519355   6.235   6.328   5.951  0.2040 -0.2496 -0.5492
   96MOL   N16619356   6.268   6.209   5.764  0.0185  0.6283  0.3966
   96MOL   H16719357   6.082   6.156   6.083 -0.3059  1.8468 -1.9368
   96MOL   H16819358   5.938   6.065   6.028 -0.4002 -0.5078  1.4112
   96MOL   H16919359   6.061   6.098   5.795 -1.3050  2.6408 -1.9740
   96MOL   H17019360   6.248   6.123   5.714 -0.4540  1.0232 -0.0914
   96MOL   H17119361   6.349   6.260   5.732 -1.0669  1.4172 -1.1902
   96MOL   C17219362   5.947   6.266   5.865 -0.4956 -1.1514  0.4234
   96MOL   C17319363   5.851   6.249   5.748  0.8550 -0.2548 -0.5607
   96MOL   C17419364   5.924   6.287   5.617  0.1813 -0.0818 -0.5262
   96MOL   O17519365   5.945   6.403   5.585  0.1957 -0.1690  0.2613
   96MOL   N17619366   5.951   6.179   5.542 -0.3500  0.4167  0.3411
   96MOL   H17719367   5.980   6.370   5.860 -0.9665 -1.0859 -3.2573
   96MOL   H17819368   5.896   6.256   5.961  0.7204 -0.4216  1.1629
   96MOL   H17919369   5.825   6.143   5.751 -0.5947  0.1112  0.9770
   96MOL   H18019370   5.998   6.177   5.453 -1.8980  0.4885 -0.4986
   96MOL   H18119371   5.923   6.094   5.588 -0.9740  0.6405  0.3866
   96MOL   C18219372   5.712   6.319   5.749 -0.1675 -0.4005 -0.2248
   96MOL   C18319373   5.614   6.321   5.876  0.1528 -0.1103  0.1898
   96MOL   C18419374   5.569   6.180   5.906  0.3749  0.2889  0.4878
   96MOL   O18519375   5.546   6.103   5.818  0.2230 -0.4382  0.2996
   96MOL   N18619376   5.557   6.153   6.031 -0.8211 -0.6493 -0.4230
   96MOL   H18719377   5.667   6.277   5.659  0.3591  1.2771 -1.2866
   96MOL   H18819378   5.730   6.425   5.730  1.6170 -0.4699  0.9334
   96MOL   H18919379   5.681   6.358   5.953 -1.2697  0.5806  1.1086
   96MOL   H19019380   5.584   6.224   6.097  2.6067 -2.2903  0.0327
   96MOL   H19119381   5.523   6.062   6.059 -1.0017 -0.2691  0.6109
   96MOL   C19219382   5.497   6.421   5.842 -0.6548 -0.3977 -0.1278
   96MOL   C19319383   5.531   6.570   5.866  1.0290  0.1389  0.0134
   96MOL   C19419384   5.553   6.610   6.013  0.3066 -0.0498  0.6799
   96MOL   O19519385   5.494   6.556   6.105  0.1954  0.9817 -0.1229
   96MOL   N19619386   5.648   6.694   6.044 -0.1140 -0.3924  0.4515
   96MOL   H19719387   5.417   6.387   5.909  0.0555 -1.3394  0.2524
   96MOL   H19819388   5.448   6.423   5.745 -3.8168  1.9896  1.4357
   96MOL   H19919389   5.621   6.598   5.811  2.4380 -1.2810  1.5502
   96MOL   H20019390   5.687   6.683   6.137 -0.5910 -0.0295  0.6978
   96MOL   H20119391   5.691   6.742   5.967 -3.3119 -1.7959 -2.2976
   96MOL   H20219392   5.456   6.637   5.824  1.1114 -1.5964 -3.1069
   97MOL     C119393   6.394   0.909   1.116  0.0080 -0.9985  0.5430
   97MOL     C219394   6.455   1.033   1.184 -0.4715  0.0691  0.6787
   97MOL     C319395   6.343   1.133   1.198  0.3024 -0.3158 -0.6267
   97MOL     O419396   6.304   1.208   1.107 -0.2676 -0.0159 -0.6008
   97MOL     N519397   6.279   1.136   1.315 -0.4649  0.1855  0.3651
   97MOL     H619398   6.304   0.875   1.167 -0.8933  1.0781  0.3845
   97MOL     H719399   6.365   0.934   1.014  3.4675  0.3156 -0.2035
   97MOL     H819400   6.498   1.006   1.281  1.9304  0.9093 -0.1156
   97MOL     H919401   6.305   1.068   1.385 -2.6766  0.5371  1.5740
   97MOL    H1019402   6.204   1.201   1.334 -0.2127  0.8797 -0.9881
   97MOL    H1119403   6.472   0.834   1.100  1.1132  0.7291 -2.6959
   97MOL    C1219404   6.579   1.080   1.106 -0.3820  0.5413 -0.0516
   97MOL    C1319405   6.644   1.210   1.158  0.0288 -0.1995  0.0838
   97MOL    C1419406   6.761   1.259   1.061  0.1884  0.3404  0.3074
   97MOL    O1519407   6.860   1.193   1.060  0.5434  0.2041  0.4739
   97MOL    N1619408   6.758   1.373   0.993 -0.4490 -0.6459  0.7543
   97MOL    H1719409   6.533   1.098   1.009 -2.2413 -0.2365  0.6590
   97MOL    H1819410   6.651   0.999   1.107 -0.3924  0.5244  1.5862
   97MOL    H1919411   6.580   1.298   1.147 -0.2276 -0.5873 -1.7068
   97MOL    H2019412   6.678   1.428   1.020  0.1544  0.8753 -0.5123
   97MOL    H2119413   6.845   1.412   0.961 -1.0361  0.9581  1.0728
   97MOL    C2219414   6.681   1.204   1.312  0.0231  0.2961  0.7508
   97MOL    C2319415   6.605   1.303   1.404  0.1296  0.0885  0.2840
   97MOL    C2419416   6.643   1.451   1.377  0.7920 -0.0197  0.7159
   97MOL    O2519417   6.755   1.479   1.328 -0.3323  0.3038 -0.5405
   97MOL    N2619418   6.549   1.539   1.400 -0.1231 -0.4123  0.3656
   97MOL    H2719419   6.788   1.226   1.319  0.3337 -1.3779  1.5024
   97MOL    H2819420   6.693   1.104   1.353  4.3010  1.0498  1.6084
   97MOL    H2919421   6.496   1.298   1.393  0.0153  2.8228 -0.1791
   97MOL    H3019422   6.458   1.517   1.437 -0.3349  0.3285  0.2992
   97MOL    H3119423   6.565   1.635   1.373 -3.2630  0.0343 -0.0753
   97MOL    C3219424   6.638   1.275   1.558 -0.3850  0.5038  0.1825
   97MOL    C3319425   6.779   1.283   1.626  0.2733 -0.2441  0.4275
   97MOL    C3419426   6.874   1.166   1.581  0.1292 -0.6587 -0.0145
   97MOL    O3519427   6.991   1.195   1.559  0.1971 -0.2954 -0.0538
   97MOL    N3619428   6.836   1.040   1.559  0.2626  0.6367 -0.4454
   97MOL    H3719429   6.597   1.176   1.576  0.3895 -0.0518 -1.0842
   97MOL    H3819430   6.566   1.336   1.614  0.4391  1.3061  0.3913
   97MOL    H3919431   6.816   1.377   1.584 -0.0729 -0.1262  0.3837
   97MOL    H4019432   6.898   0.963   1.535  1.4873  1.3402  0.3996
   97MOL    H4119433   6.738   1.019   1.565  0.4753 -0.8525 -1.7348
   97MOL    C4219434   6.770   1.281   1.785 -0.4229 -0.4135  0.5182
   97MOL    C4319435   6.819   1.407   1.860  0.1115 -0.1603  0.1217
   97MOL    C4419436   6.704   1.518   1.870 -0.5132  0.1632 -0.8147
   97MOL    O4519437   6.649   1.557   1.765 -0.4416 -0.5409 -0.4910
   97MOL    N4619438   6.658   1.556   1.989  0.0115 -0.4598 -0.0999
   97MOL    H4719439   6.849   1.215   1.823 -0.2092 -0.1705  0.4939
   97MOL    H4819440   6.667   1.253   1.808 -0.5778 -0.4407 -0.1949
   97MOL    H4919441   6.829   1.392   1.967 -1.3690  0.6159  0.3822
   97MOL    H5019442   6.680   1.510   2.076  2.0497 -1.1224 -0.9316
   97MOL    H5119443   6.571   1.607   1.979  0.2589 -0.3600 -1.9507
   97MOL    C5219444   6.952   1.460   1.794  0.1139 -0.3046 -0.8113
   97MOL    C5319445   7.051   1.532   1.890 -0.1808 -0.1977 -0.4027
   97MOL    C5419446   7.155   1.614   1.813 -0.3747 -0.0023  0.5332
   97MOL    O5519447   7.243   1.560   1.747  0.2318  1.0734  0.3121
   97MOL    N5619448   7.146   1.747   1.828 -0.2292  0.4788  0.3046
   97MOL    H5719449   6.936   1.540   1.721 -0.3783 -0.0176 -0.3936
   97MOL    H5819450   7.002   1.382   1.738 -0.3882  0.8524 -2.9460
   97MOL    H5919451   6.988   1.597   1.951 -0.5534 -1.7240  0.8773
   97MOL    H6019452   7.066   1.781   1.880 -0.4686 -0.5318  0.5983
   97MOL    H6119453   7.211   1.821   1.806  1.8975 -0.9447  1.6402
   97MOL    C6219454   7.124   1.424   1.979  0.3104  0.2375  0.2006
   97MOL    C6319455   7.210   1.477   2.096  0.1169  0.1240 -0.2057
   97MOL    C6419456   7.336   1.397   2.102 -0.0685 -0.1638  0.0671
   97MOL    O6519457   7.326   1.273   2.104 -0.4902 -0.4654  0.6991
   97MOL    N6619458   7.453   1.462   2.116 -0.1697 -0.3585 -0.5561
   97MOL    H6719459   7.189   1.359   1.920 -1.2798 -1.3117  0.1536
   97MOL    H6819460   7.052   1.356   2.024 -0.1401  0.4208 -0.2395
   97MOL    H6919461   7.253   1.577   2.086 -0.7811  0.5146 -0.1867
   97MOL    H7019462   7.451   1.559   2.145 -2.0659 -0.1805 -1.2611
   97MOL    H7119463   7.542   1.414   2.120  0.6688  1.1409 -0.5910
   97MOL    C7219464   7.144   1.446   2.240  0.9513 -0.0928  0.9069
   97MOL    C7319465   7.050   1.551   2.288 -0.0271 -0.3784  0.6492
   97MOL    C7419466   7.120   1.689   2.290 -0.2497  0.2394  0.0936
   97MOL    O7519467   7.218   1.705   2.361  0.3369 -0.3742  0.4334
   97MOL    N7619468   7.067   1.789   2.225  0.0543 -0.5388 -0.0903
   97MOL    H7719469   7.221   1.440   2.318  1.0313 -0.7390  0.7736
   97MOL    H7819470   7.103   1.346   2.248  0.9420 -0.1314  0.3897
   97MOL    H7919471   6.960   1.562   2.227 -0.1023 -2.6439  0.3057
   97MOL    H8019472   7.123   1.872   2.210  0.5412 -1.1507 -1.7054
   97MOL    H8119473   6.992   1.771   2.159  1.4565 -1.0165 -1.5867
   97MOL    C8219474   6.994   1.522   2.435 -0.1977 -0.3127  0.0861
   97MOL    C8319475   6.929   1.388   2.459 -0.3599 -0.3538 -0.1871
   97MOL    C8419476   6.806   1.369   2.367  0.3837 -0.0516 -0.7764
   97MOL    O8519477   6.718   1.451   2.373  0.2126  0.3159  0.3811
   97MOL    N8619478   6.790   1.252   2.304 -0.0522  0.0120  0.2444
   97MOL    H8719479   6.925   1.599   2.469 -1.4028 -0.8275 -1.1268
   97MOL    H8819480   7.086   1.520   2.494  0.6204  1.3356 -1.1004
   97MOL    H8919481   6.998   1.305   2.449  0.8149  0.5314  0.3780
   97MOL    H9019482   6.709   1.252   2.244  1.0420  0.3872 -1.2376
   97MOL    H9119483   6.848   1.170   2.302 -0.6347 -0.3916  0.0008
   97MOL    C9219484   6.889   1.386   2.602 -0.4465  0.4916  0.2296
   97MOL    C9319485   6.919   1.252   2.696 -0.6050 -0.0371  0.0745
   97MOL    C9419486   7.075   1.225   2.687  0.8806 -0.6421  0.4069
   97MOL    O9519487   7.125   1.156   2.596 -0.1580 -0.3382  0.6389
   97MOL    N9619488   7.151   1.279   2.778 -0.2106  0.2285 -0.6654
   97MOL    H9719489   6.784   1.415   2.608  0.1787  3.1491 -0.9621
   97MOL    H9819490   6.937   1.462   2.663  1.8752  0.7127 -1.8086
   97MOL    H9919491   6.897   1.281   2.799 -0.9459 -1.5401  0.4421
   97MOL   H10019492   7.249   1.270   2.757  0.4013  0.0848  1.9759
   97MOL   H10119493   7.115   1.340   2.850  3.3737  1.1692  0.4572
   97MOL   C10219494   6.832   1.128   2.655 -0.3425  0.0508 -0.1432
   97MOL   C10319495   6.795   1.035   2.780 -0.3302 -0.2338 -0.1312
   97MOL   C10419496   6.927   0.964   2.828  0.0540 -0.3455 -0.2244
   97MOL   O10519497   6.957   0.849   2.796  0.9201  0.1150  0.8516
   97MOL   N10619498   7.008   1.024   2.911 -0.5090  0.0090  0.0578
   97MOL   H10719499   6.896   1.070   2.589 -1.1868  0.2080 -1.1129
   97MOL   H10819500   6.744   1.178   2.613 -1.4548 -0.4424  1.5458
   97MOL   H10919501   6.759   1.096   2.863 -3.4051 -1.6220 -0.3802
   97MOL   H11019502   7.079   0.969   2.957 -1.3663 -0.0561  1.3328
   97MOL   H11119503   6.981   1.111   2.955 -2.6903 -1.2458  1.2751
   97MOL   C11219504   6.699   0.924   2.715 -0.2386 -0.2720  0.2649
   97MOL   C11319505   6.589   0.859   2.800  0.2815 -0.6383 -0.7773
   97MOL   C11419506   6.483   0.962   2.841 -0.1328 -0.8536  0.1517
   97MOL   O11519507   6.500   1.021   2.948 -0.5072 -0.1630  0.4476
   97MOL   N11619508   6.379   0.984   2.767  0.2902  0.6902  0.1831
   97MOL   H11719509   6.757   0.845   2.667 -2.0054 -1.6078  0.2320
   97MOL   H11819510   6.655   0.964   2.624 -1.3587 -0.2576  0.7952
   97MOL   H11919511   6.542   0.782   2.739 -1.2387  0.0765 -0.5116
   97MOL   H12019512   6.316   1.058   2.795  0.5716  0.7036  0.7916
   97MOL   H12119513   6.376   0.948   2.673  1.7991  0.0212  0.3822
   97MOL   C12219514   6.654   0.791   2.924 -0.8100  0.9630  0.1921
   97MOL   C12319515   6.592   0.663   2.987 -0.0844  0.3002  0.5686
   97MOL   C12419516   6.627   0.534   2.912  0.5268 -0.4898 -0.5482
   97MOL   O12519517   6.604   0.430   2.965  0.3848 -0.4628  0.2298
   97MOL   N12619518   6.680   0.551   2.792  0.5884  0.1491  0.1497
   97MOL   H12719519   6.672   0.872   2.995  2.8455 -0.0968  0.6081
   97MOL   H12819520   6.757   0.764   2.902 -1.4466 -0.2773 -1.2903
   97MOL   H12919521   6.638   0.637   3.082 -0.3635 -2.6851 -0.0539
   97MOL   H13019522   6.720   0.472   2.742 -0.2800 -2.0030  2.7077
   97MOL   H13119523   6.686   0.643   2.750 -1.1745 -0.4293 -1.4502
   97MOL   C13219524   6.434   0.667   3.019  0.2231 -0.0500 -0.2812
   97MOL   C13319525   6.392   0.754   3.137 -0.2816  0.7808  0.5982
   97MOL   C13419526   6.444   0.689   3.273  0.2017  0.1774  0.1577
   97MOL   O13519527   6.439   0.570   3.280 -0.2048 -0.0239  0.2824
   97MOL   N13619528   6.506   0.759   3.368  0.1295  0.4280  0.3204
   97MOL   H13719529   6.390   0.568   3.029 -1.0093  0.3711 -1.4380
   97MOL   H13819530   6.377   0.710   2.937 -0.7986 -0.5253  0.1685
   97MOL   H13919531   6.453   0.843   3.120  0.5275  0.3375  1.2094
   97MOL   H14019532   6.507   0.860   3.372 -0.2185  0.4417  0.0513
   97MOL   H14119533   6.537   0.719   3.455  1.0287  1.0593  0.2922
   97MOL   C14219534   6.253   0.811   3.135 -0.6147 -0.1288 -1.5550
   97MOL   C14319535   6.145   0.735   3.216  0.0774  0.1583 -0.1697
   97MOL   C14419536   6.104   0.601   3.154 -1.0583 -0.2821 -0.5601
   97MOL   O14519537   6.030   0.590   3.055 -0.2822  0.6669 -0.2517
   97MOL   N14619538   6.149   0.494   3.212  0.0527  0.1365 -0.1439
   97MOL   H14719539   6.213   0.826   3.035 -0.1227  1.0113 -1.5933
   97MOL   H14819540   6.262   0.911   3.179  2.6309 -1.7153  1.6295
   97MOL   H14919541   6.175   0.724   3.320 -0.8505  1.8353  0.2881
   97MOL   H15019542   6.214   0.499   3.290  2.8443 -0.0152 -2.3772
   97MOL   H15119543   6.101   0.407   3.199  3.6860 -2.0952  0.5610
   97MOL   C15219544   6.027   0.826   3.233  0.1376  0.4795  0.1551
   97MOL   C15319545   5.888   0.772   3.277  0.5982  0.2182 -0.0567
   97MOL   C15419546   5.771   0.867   3.234  0.1091 -0.5438 -0.2221
   97MOL   O15519547   5.772   0.986   3.269 -0.7170 -0.3954  0.0139
   97MOL   N15619548   5.672   0.818   3.163  0.3626 -0.0977  0.4449
   97MOL   H15719549   6.020   0.878   3.137  1.0764 -2.0984 -1.3332
   97MOL   H15819550   6.049   0.908   3.302  1.1510 -0.3295  0.8033
   97MOL   H15919551   5.860   0.677   3.231 -2.0454  2.3224 -2.9724
   97MOL   H16019552   5.671   0.719   3.140  2.3564 -0.1611  0.4935
   97MOL   H16119553   5.601   0.885   3.141 -1.5273 -2.5228 -1.1361
   97MOL   C16219554   5.890   0.755   3.429 -0.3882  0.3453 -0.5552
   97MOL   C16319555   5.780   0.671   3.494  0.0628  0.0965 -0.2973
   97MOL   C16419556   5.792   0.691   3.642 -0.3086  0.7703 -0.7254
   97MOL   O16519557   5.878   0.625   3.707 -0.1699 -0.2715  0.2305
   97MOL   N16619558   5.701   0.767   3.693  0.3537  0.4170 -0.6247
   97MOL   H16719559   5.874   0.850   3.481 -2.0026  0.3003 -0.9422
   97MOL   H16819560   5.989   0.716   3.452 -0.6209  0.4891  0.7478
   97MOL   H16919561   5.687   0.716   3.460 -0.7627 -2.5626 -1.7171
   97MOL   H17019562   5.707   0.784   3.793 -2.4802 -1.6759 -0.0464
   97MOL   H17119563   5.629   0.804   3.634 -2.3040 -0.8957  1.6565
   97MOL   C17219564   5.771   0.523   3.453  0.1392 -0.4365  0.7262
   97MOL   C17319565   5.635   0.447   3.501  0.1787 -0.1557 -0.1303
   97MOL   C17419566   5.681   0.312   3.563  0.1758  0.6237 -0.3908
   97MOL   O17519567   5.691   0.218   3.487 -0.0754  0.1915  0.0879
   97MOL   N17619568   5.710   0.301   3.693  0.4837 -0.7106 -0.6487
   97MOL   H17719569   5.860   0.473   3.490  0.5344 -1.2331 -1.2357
   97MOL   H17819570   5.777   0.508   3.345  2.4675  1.9014  0.4696
   97MOL   H17919571   5.594   0.511   3.579 -0.3808  0.3950 -0.8707
   97MOL   H18019572   5.746   0.212   3.723 -0.2872 -1.1397 -0.9901
   97MOL   H18119573   5.703   0.385   3.748  1.6181 -0.4982 -0.8023
   97MOL   C18219574   5.522   0.438   3.401  0.0787  0.3096  0.1723
   97MOL   C18319575   5.379   0.444   3.446  0.2299 -0.6768 -0.2886
   97MOL   C18419576   5.296   0.361   3.341 -0.0776 -0.4754  0.3600
   97MOL   O18519577   5.296   0.399   3.221  0.1390  0.0919 -1.1325
   97MOL   N18619578   5.240   0.243   3.384  0.3396 -1.0824  0.0954
   97MOL   H18719579   5.545   0.344   3.350 -0.1423  0.6149 -0.4956
   97MOL   H18819580   5.529   0.521   3.330  0.0374  0.8732  0.8288
   97MOL   H18919581   5.378   0.393   3.542  3.1923  0.1949  0.2265
   97MOL   H19019582   5.275   0.206   3.471 -1.2697 -2.0157  0.3597
   97MOL   H19119583   5.174   0.190   3.328 -2.1995  1.2419  0.7596
   97MOL   C19219584   5.333   0.591   3.466 -0.0000  0.4051  0.0875
   97MOL   C19319585   5.178   0.611   3.485  0.2090  0.1660 -0.6457
   97MOL   C19419586   5.143   0.754   3.471  0.0647  0.0086  0.3946
   97MOL   O19519587   5.165   0.838   3.563  0.3611  0.5975  0.5040
   97MOL   N19619588   5.078   0.778   3.359  0.0158 -0.4744  0.4956
   97MOL   H19719589   5.365   0.650   3.380 -0.2824 -2.2069 -1.8924
   97MOL   H19819590   5.383   0.623   3.557  1.3530 -3.0665  0.6341
   97MOL   H19919591   5.121   0.559   3.408  0.7662 -0.4037 -0.6769
   97MOL   H20019592   5.045   0.870   3.333 -2.7435 -1.6979 -0.5797
   97MOL   H20119593   5.033   0.703   3.308 -0.4067 -1.1952  1.8874
   97MOL   H20219594   5.146   0.569   3.580 -1.9018  2.9817 -0.0615
   98MOL     C119595   2.770   0.796   7.014 -0.3754 -0.6163 -0.9908
   98MOL     C219596   2.632   0.779   7.072  0.7419 -0.2021 -0.0480
   98MOL     C319597   2.615   0.680   7.184 -0.2894 -0.1046 -0.0371
   98MOL     O419598   2.708   0.611   7.225 -0.6257 -0.4954 -0.2332
   98MOL     N519599   2.503   0.669   7.256  0.8030 -0.5381  1.0683
   98MOL     H619600   2.793   0.729   6.931 -1.5671 -1.1462 -0.8926
   98MOL     H719601   2.794   0.900   6.990  1.4338 -1.2418 -2.0355
   98MOL     H819602   2.612   0.869   7.129  1.6983 -0.8549  1.3347
   98MOL     H919603   2.503   0.618   7.343 -1.0525 -2.1181  0.1667
   98MOL    H1019604   2.418   0.714   7.225  1.9381  0.2884 -0.9678
   98MOL    H1119605   2.848   0.779   7.090 -1.1986  2.5252  0.6634
   98MOL    C1219606   2.518   0.749   6.963 -0.6227 -0.4093  0.1390
   98MOL    C1319607   2.480   0.869   6.879 -0.6008  0.9268 -0.6753
   98MOL    C1419608   2.396   0.962   6.969 -0.3810 -0.1597 -0.4926
   98MOL    O1519609   2.280   0.941   7.000  0.3454 -0.6429 -0.5261
   98MOL    N1619610   2.464   1.065   7.020 -0.0234 -0.0215  0.5807
   98MOL    H1719611   2.432   0.710   7.017 -2.3439  0.8182 -1.6842
   98MOL    H1819612   2.539   0.657   6.908 -2.3468 -0.5834 -0.2340
   98MOL    H1919613   2.565   0.926   6.839  0.8639 -1.3794 -0.9582
   98MOL    H2019614   2.559   1.082   6.989  0.2011  0.9974  1.8121
   98MOL    H2119615   2.424   1.135   7.080 -0.1546  0.4977 -0.1046
   98MOL    C2219616   2.389   0.822   6.762  0.1146  0.4372  0.5245
   98MOL    C2319617   2.431   0.736   6.649 -0.0350 -0.6211  0.8457
   98MOL    C2419618   2.577   0.704   6.642  0.3727 -0.4587 -0.0883
   98MOL    O2519619   2.662   0.792   6.667  0.2946 -0.0681  0.0688
   98MOL    N2619620   2.616   0.580   6.623  0.7179  0.2050 -0.0269
   98MOL    H2719621   2.330   0.904   6.721 -1.6811 -0.8074  0.5543
   98MOL    H2819622   2.307   0.772   6.813  1.3088 -1.3729  0.7068
   98MOL    H2919623   2.385   0.640   6.673  1.5276 -1.4847  0.4579
   98MOL    H3019624   2.712   0.561   6.648  0.6682 -0.7987 -0.5500
   98MOL    H3119625   2.549   0.506   6.612 -0.5703  1.2197  0.9702
   98MOL    C3219626   2.378   0.793   6.512 -0.1152 -0.3223 -0.0654
   98MOL    C3319627   2.228   0.788   6.488 -0.1090 -0.2467  0.1936
   98MOL    C3419628   2.181   0.648   6.504  0.4434 -0.2017  0.1361
   98MOL    O3519629   2.225   0.568   6.427 -0.8506 -0.2579  0.2126
   98MOL    N3619630   2.090   0.615   6.601 -0.0463 -0.0045  0.2670
   98MOL    H3719631   2.434   0.764   6.423  0.0424  0.6218 -0.2733
   98MOL    H3819632   2.382   0.901   6.506  0.3646 -0.3361 -0.0213
   98MOL    H3919633   2.184   0.854   6.563  0.1774 -1.3248  1.3169
   98MOL    H4019634   2.062   0.519   6.606  0.9432 -0.1908  3.5606
   98MOL    H4119635   2.054   0.671   6.677  1.0739  1.7851 -0.4904
   98MOL    C4219636   2.199   0.832   6.345  0.3086  0.6609  0.4416
   98MOL    C4319637   2.044   0.846   6.312 -0.6084 -0.4532  0.4760
   98MOL    C4419638   1.993   0.757   6.201  0.5800 -0.7442  0.6887
   98MOL    O4519639   2.021   0.777   6.084 -0.5023  0.4140 -0.0626
   98MOL    N4619640   1.907   0.663   6.235  0.0823 -0.3538 -0.1258
   98MOL    H4719641   2.246   0.764   6.275 -0.9091  1.5936 -1.3169
   98MOL    H4819642   2.246   0.927   6.317  1.1485  0.6699  1.8173
   98MOL    H4919643   1.990   0.805   6.398 -3.5983  3.3387  0.5145
   98MOL    H5019644   1.895   0.637   6.332 -0.8091 -0.8366 -0.3606
   98MOL    H5119645   1.841   0.624   6.170 -0.5581  1.0699 -0.3462
   98MOL    C5219646   2.005   0.994   6.305  0.1000  0.2044 -0.1932
   98MOL    C5319647   1.874   1.031   6.380 -0.2336 -0.2412 -0.0481
   98MOL    C5419648   1.747   0.960   6.323  0.2528  1.2109 -0.3089
   98MOL    O5519649   1.726   0.947   6.204  0.2294 -0.3442 -0.6170
   98MOL    N5619650   1.649   0.923   6.409 -0.0531 -0.2510 -0.5039
   98MOL    H5719651   2.012   1.032   6.203  0.5537  1.1961  0.2074
   98MOL    H5819652   2.081   1.053   6.355  1.0081  0.3756 -1.7274
   98MOL    H5919653   1.902   0.987   6.476 -1.3671 -1.7153 -0.3760
   98MOL    H6019654   1.660   0.947   6.507 -0.8044  1.0085 -0.7186
   98MOL    H6119655   1.560   0.881   6.383 -0.1599 -0.0440 -0.4723
   98MOL    C6219656   1.861   1.190   6.404 -0.3240  0.5639  0.4378
   98MOL    C6319657   1.813   1.281   6.299 -0.7213 -0.1200  0.0181
   98MOL    C6419658   1.899   1.282   6.178 -0.6906 -0.5127  0.0801
   98MOL    O6519659   2.011   1.338   6.176  0.2494  0.1889  0.2146
   98MOL    N6619660   1.849   1.223   6.073 -1.0944  0.1895 -0.0221
   98MOL    H6719661   1.961   1.216   6.438 -0.4783  0.2712  1.1306
   98MOL    H6819662   1.804   1.204   6.496  1.2138 -0.6489  1.6052
   98MOL    H6919663   1.711   1.250   6.276 -1.2162  1.7796 -0.3968
   98MOL    H7019664   1.770   1.161   6.084 -0.1013 -1.2975 -1.1080
   98MOL    H7119665   1.911   1.234   5.994  0.2962 -0.0007  1.0024
   98MOL    C7219666   1.787   1.432   6.355 -0.7496  0.6205  0.4960
   98MOL    C7319667   1.653   1.455   6.427  0.4390 -0.2708  0.1013
   98MOL    C7419668   1.551   1.531   6.334  0.5444  0.7197  0.2597
   98MOL    O7519669   1.576   1.643   6.289  0.5188  0.4023 -0.1152
   98MOL    N7619670   1.438   1.467   6.308 -0.8323  0.0043  0.7678
   98MOL    H7719671   1.784   1.504   6.274  1.9716  1.3959  1.0442
   98MOL    H7819672   1.866   1.455   6.428 -2.2233  0.5624  2.1423
   98MOL    H7919673   1.615   1.355   6.446 -0.3853 -0.4240 -2.2589
   98MOL    H8019674   1.371   1.529   6.266 -0.7661 -0.3294  0.1747
   98MOL    H8119675   1.414   1.372   6.333 -0.7359 -0.2433 -0.0639
   98MOL    C8219676   1.666   1.528   6.565 -0.2858  0.0958 -0.3525
   98MOL    C8319677   1.707   1.431   6.687  0.0574 -0.1730 -0.1070
   98MOL    C8419678   1.593   1.332   6.709  0.4202 -0.3266  0.0467
   98MOL    O8519679   1.476   1.366   6.713  1.1493 -0.1598 -0.0360
   98MOL    N8619680   1.625   1.204   6.718 -0.0931 -0.3143  0.6788
   98MOL    H8719681   1.567   1.563   6.593 -1.4321 -2.9369 -0.4397
   98MOL    H8819682   1.724   1.619   6.552  1.8105 -0.9424  1.3162
   98MOL    H8919683   1.800   1.377   6.665 -1.7746 -2.2055 -3.2930
   98MOL    H9019684   1.722   1.183   6.702 -0.3626 -0.4353 -0.9040
   98MOL    H9119685   1.555   1.133   6.735 -0.9084  0.3016 -0.0567
   98MOL    C9219686   1.725   1.512   6.824  0.1367  0.1570  0.2105
   98MOL    C9319687   1.848   1.597   6.859  0.1117 -0.2263 -0.2710
   98MOL    C9419688   1.865   1.717   6.759 -0.1581 -0.5982 -0.5118
   98MOL    O9519689   1.801   1.817   6.764 -0.4886  0.4928 -0.7091
   98MOL    N9619690   1.942   1.700   6.653  0.1730 -0.2165  0.2564
   98MOL    H9719691   1.698   1.444   6.906 -1.8026  1.1990  0.4584
   98MOL    H9819692   1.648   1.589   6.821  2.4922  2.6120  1.4356
   98MOL    H9919693   1.818   1.647   6.951  1.1232 -1.5994  0.8138
   98MOL   H10019694   1.948   1.773   6.583  1.7202 -0.8411 -0.2698
   98MOL   H10119695   1.969   1.605   6.633 -0.2778 -0.1130 -0.9054
   98MOL   C10219696   1.979   1.520   6.897 -0.6321 -0.2153  0.0912
   98MOL   C10319697   2.049   1.547   7.033 -0.6478 -0.3932 -0.5721
   98MOL   C10419698   1.988   1.463   7.146 -0.7207 -0.2646  0.3227
   98MOL   O10519699   1.870   1.433   7.155 -0.0223  0.6765 -0.8556
   98MOL   N10619700   2.075   1.407   7.232  0.7017  0.0747  0.2416
   98MOL   H10719701   2.060   1.546   6.828 -1.0674 -0.1013 -0.3763
   98MOL   H10819702   1.964   1.412   6.891  0.9306 -0.3828 -1.0681
   98MOL   H10919703   2.145   1.498   7.018  0.3936  1.6273 -0.6092
   98MOL   H11019704   2.173   1.430   7.238  1.1495 -1.5220 -0.7901
   98MOL   H11119705   2.037   1.338   7.295 -0.8704  0.9552  0.2746
   98MOL   C11219706   2.061   1.695   7.079 -0.1336 -0.3461 -0.3661
   98MOL   C11319707   2.198   1.755   7.088  0.2103  0.3707  0.4024
   98MOL   C11419708   2.301   1.672   7.166 -0.2856  0.0277 -0.5133
   98MOL   O11519709   2.270   1.625   7.276  0.0628  0.0589 -0.2035
   98MOL   N11619710   2.416   1.651   7.103  0.5775  0.1991  0.3308
   98MOL   H11719711   2.016   1.704   7.178  1.9686 -1.2095  0.6948
   98MOL   H11819712   2.009   1.764   7.013 -1.3413 -0.3068  0.5967
   98MOL   H11919713   2.230   1.754   6.984  0.8261  1.6525  0.5690
   98MOL   H12019714   2.488   1.617   7.165  0.9688 -0.4608 -0.4807
   98MOL   H12119715   2.434   1.699   7.016 -2.0686  0.9236  0.1244
   98MOL   C12219716   2.188   1.902   7.140 -0.5019  0.2104  0.4312
   98MOL   C12319717   2.261   2.004   7.044  0.4546  0.3681 -0.4133
   98MOL   C12419718   2.410   1.999   7.077 -0.4277  0.2120  0.0889
   98MOL   O12519719   2.446   2.004   7.195  0.3602 -0.4157  0.0166
   98MOL   N12619720   2.491   1.974   6.976 -0.9327 -0.1100 -0.5065
   98MOL   H12719721   2.226   1.906   7.243  1.3218 -1.0043 -0.1740
   98MOL   H12819722   2.085   1.936   7.147 -0.7977 -0.7904  1.2839
   98MOL   H12919723   2.245   1.966   6.943 -0.6858  1.2541 -0.5814
   98MOL   H13019724   2.457   1.945   6.885 -1.9978 -0.6237  0.0491
   98MOL   H13119725   2.591   1.979   6.990 -1.2215  0.7118  1.4143
   98MOL   C13219726   2.213   2.153   7.048  0.3416 -0.3567  0.1731
   98MOL   C13319727   2.062   2.184   7.017  0.1211 -0.3660  0.0706
   98MOL   C13419728   1.996   2.087   6.925  0.7761 -1.1257  0.3616
   98MOL   O13519729   2.039   2.078   6.806  0.6011  0.3153 -0.4682
   98MOL   N13619730   1.891   2.015   6.964 -0.0165  0.7155  0.2146
   98MOL   H13719731   2.279   2.212   6.984 -0.8788  1.2111  0.3259
   98MOL   H13819732   2.226   2.200   7.146 -1.0576  1.8814 -0.6726
   98MOL   H13919733   2.017   2.179   7.116  1.3618 -1.4111  0.5910
   98MOL   H14019734   1.855   2.017   7.059 -0.0153  1.4556  0.1986
   98MOL   H14119735   1.850   1.945   6.904 -2.0080  1.0988  1.0643
   98MOL   C14219736   2.048   2.333   6.972 -0.3546 -0.2597  0.0801
   98MOL   C14319737   1.924   2.395   7.054  0.5712 -0.1748  0.3607
   98MOL   C14419738   1.788   2.339   7.017  0.6797 -0.2450 -0.1432
   98MOL   O14519739   1.753   2.335   6.899  0.3231  0.6001  0.0088
   98MOL   N14619740   1.712   2.272   7.102 -0.3522 -0.0285  0.0551
   98MOL   H14719741   2.036   2.339   6.864  0.2144 -0.0467  0.0273
   98MOL   H14819742   2.141   2.388   6.983 -0.0413 -0.5225 -1.1465
   98MOL   H14919743   1.954   2.392   7.159  0.0025 -3.0124  0.4654
   98MOL   H15019744   1.732   2.245   7.198  0.6136  0.1476 -0.0916
   98MOL   H15119745   1.627   2.236   7.061 -1.7575  0.9391  2.0623
   98MOL   C15219746   1.925   2.543   7.021 -0.6957  1.1298  0.3958
   98MOL   C15319747   1.793   2.618   7.062  0.4875 -0.2114 -0.5314
   98MOL   C15419748   1.804   2.754   7.004  0.7011  0.2365  0.4452
   98MOL   O15519749   1.876   2.837   7.060 -0.1713 -0.1324  0.0293
   98MOL   N15619750   1.737   2.790   6.893  0.3996 -0.2828 -0.1911
   98MOL   H15719751   1.941   2.549   6.914  1.6568 -1.9585  0.4999
   98MOL   H15819752   2.013   2.575   7.077 -0.5993 -0.4879  1.1846
   98MOL   H15919753   1.708   2.573   7.011 -0.1472  0.1194  0.2280
   98MOL   H16019754   1.681   2.725   6.839 -1.2799 -0.0515  1.2027
   98MOL   H16119755   1.766   2.883   6.865  1.5986 -0.6471 -0.1897
   98MOL   C16219756   1.770   2.615   7.216 -0.1260 -0.1846 -0.4066
   98MOL   C16319757   1.636   2.668   7.279  0.1782 -0.5009 -0.4246
   98MOL   C16419758   1.510   2.595   7.221 -0.1570 -0.0719  0.4790
   98MOL   O16519759   1.450   2.629   7.118  0.4045 -0.1285 -0.0176
   98MOL   N16619760   1.461   2.489   7.284 -0.4826  0.8951 -0.3527
   98MOL   H16719761   1.861   2.652   7.262 -1.2572  0.0181  1.7498
   98MOL   H16819762   1.775   2.512   7.251  0.3693  0.2100  0.7066
   98MOL   H16919763   1.638   2.642   7.385  0.8897 -1.6019 -0.6949
   98MOL   H17019764   1.390   2.432   7.241  0.8415  0.7599 -2.4160
   98MOL   H17119765   1.494   2.457   7.374  0.2154  1.7560 -0.2954
   98MOL   C17219766   1.616   2.821   7.262  0.4824  0.8479  0.3390
   98MOL   C17319767   1.524   2.881   7.369 -0.0697 -0.7805  0.4968
   98MOL   C17419768   1.513   3.036   7.340 -0.3293  0.0452 -0.0824
   98MOL   O17519769   1.615   3.098   7.312  0.1219 -0.2673  0.2508
   98MOL   N17619770   1.396   3.095   7.366 -0.3063 -0.6183 -0.2280
   98MOL   H17719771   1.580   2.848   7.162  0.1352  2.1868  0.8112
   98MOL   H17819772   1.720   2.851   7.260  1.2866 -1.8737 -0.1983
   98MOL   H17919773   1.420   2.847   7.368 -0.9993  1.8848 -2.0956
   98MOL   H18019774   1.377   3.193   7.379 -0.4929 -0.8759  1.5729
   98MOL   H18119775   1.318   3.033   7.384 -2.0242  2.4167  3.1346
   98MOL   C18219776   1.590   2.860   7.506  0.2211  0.9294 -0.8085
   98MOL   C18319777   1.500   2.786   7.620  0.8654  0.1323 -0.1396
   98MOL   C18419778   1.429   2.895   0.046 -0.2487 -0.0688  0.0186
   98MOL   O18519779   1.487   2.949   0.145  0.3169  0.0679 -0.1107
   98MOL   N18619780   1.310   2.926   0.004 -0.1820  0.1729 -0.1863
   98MOL   H18719781   1.611   2.959   7.545 -1.7117  0.7079  0.8530
   98MOL   H18819782   1.689   2.814   7.499 -0.6685 -1.0631 -0.6699
   98MOL   H18919783   1.420   2.727   7.575  0.1251  0.2229  1.0278
   98MOL   H19019784   1.262   2.988   0.067 -0.4601 -0.4971  0.2606
   98MOL   H19119785   1.265   2.895   7.576 -0.3089  1.2191 -0.5071
   98MOL   C19219786   1.575   2.687   0.050  0.6383  0.2832  0.2673
   98MOL   C19319787   1.494   2.566   0.097  0.1671  0.1218 -0.5597
   98MOL   C19419788   1.470   2.454   7.656  0.6024  0.4706  0.0305
   98MOL   O19519789   1.537   2.443   7.555  0.4907  0.4051  0.0397
   98MOL   N19619790   1.371   2.370   0.037 -0.0963 -0.6175  0.0517
   98MOL   H19719791   1.605   2.736   0.142  0.2394  2.4072 -0.7116
   98MOL   H19819792   1.663   2.649   7.653  0.6342  0.2751  0.2663
   98MOL   H19919793   1.548   2.524   0.181 -0.3454  1.0985  0.2766
   98MOL   H20019794   1.333   2.294   7.639  0.3777 -0.0337 -1.1062
   98MOL   H20119795   1.307   2.385   0.114  0.5519 -1.6723  0.7983
   98MOL   H20219796   1.398   2.602   0.134  0.2143  0.3583 -0.6621
   99MOL     C119797   5.559   6.432   4.676  0.0895 -0.0680 -0.5182
   99MOL     C219798   5.608   6.427   4.527  0.7344  0.2537 -0.2115
   99MOL     C319799   5.671   6.563   4.487  0.0792  0.1956 -0.0635
   99MOL     O419800   5.735   6.630   4.563 -0.3577 -0.1066 -0.4670
   99MOL     N519801   5.644   6.597   4.360  1.0063  0.4748 -0.4134
   99MOL     H619802   5.640   6.459   4.743  0.7032  0.7941 -1.5753
   99MOL     H719803   5.477   6.505   4.679  1.8365  1.9178  0.6167
   99MOL     H819804   5.696   6.364   4.526  0.0847 -0.6826  0.3622
   99MOL     H919805   5.671   6.685   4.318 -0.9814  1.5251  0.4197
   99MOL    H1019806   5.579   6.536   4.313  2.3369 -0.1980 -1.4081
   99MOL    H1119807   5.521   6.334   4.703 -2.0432  1.4738  2.3568
   99MOL    C1219808   5.493   6.369   4.439 -0.5149 -0.1016  0.1832
   99MOL    C1319809   5.361   6.449   4.428  0.1246  0.1462 -0.7296
   99MOL    C1419810   5.257   6.383   4.520  0.0097 -0.6697 -0.4782
   99MOL    O1519811   5.218   6.269   4.495 -0.3028 -0.2383  0.1479
   99MOL    N1619812   5.228   6.449   4.628  0.7627  0.4543  0.1996
   99MOL    H1719813   5.474   6.268   4.475  0.2918 -1.4989 -3.1116
   99MOL    H1819814   5.521   6.333   4.339  2.4517 -1.3749  1.4188
   99MOL    H1919815   5.381   6.544   4.478  2.3247 -0.7383  0.1472
   99MOL    H2019816   5.184   6.409   4.710 -2.0823  0.7693 -1.1200
   99MOL    H2119817   5.271   6.540   4.637 -0.5712  1.1509 -0.3096
   99MOL    C2219818   5.309   6.452   4.281 -0.3389  0.3055  0.1356
   99MOL    C2319819   5.204   6.570   4.262  0.3501  0.1156 -0.2425
   99MOL    C2419820   5.130   6.552   4.124 -0.7305  0.7278  0.4654
   99MOL    O2519821   5.195   6.562   4.022  0.3394  0.4255  0.1040
   99MOL    N2619822   5.001   6.515   4.123  0.0594 -0.0324  0.2873
   99MOL    H2719823   5.264   6.356   4.256 -2.4443  0.9122  1.4801
   99MOL    H2819824   5.390   6.476   4.213 -2.7846  1.2656 -2.5327
   99MOL    H2919825   5.130   6.557   4.340  0.8777  1.0303  0.4252
   99MOL    H3019826   4.947   6.499   4.039  0.2488  0.8272 -0.0036
   99MOL    H3119827   4.938   6.523   4.201 -0.6425 -0.9582 -0.1644
   99MOL    C3219828   5.277   6.704   4.281  0.1739 -0.1421  0.0278
   99MOL    C3319829   5.192   6.826   4.244  0.0985  0.0139 -0.3111
   99MOL    C3419830   5.285   6.949   4.231 -0.3204 -0.0342 -0.0825
   99MOL    O3519831   5.384   6.961   4.310  0.4094 -0.5500  0.3838
   99MOL    N3619832   5.261   7.031   4.130 -0.5050 -0.4448  0.1266
   99MOL    H3719833   5.365   6.701   4.216 -1.2062  1.0301 -1.9555
   99MOL    H3819834   5.307   6.715   4.385  2.7923 -1.6159 -0.5072
   99MOL    H3919835   5.142   6.805   4.149  1.5834  0.4384 -1.1999
   99MOL    H4019836   5.178   7.015   4.076 -1.0261 -0.0379  0.8059
   99MOL    H4119837   5.301   7.124   4.133 -0.1494 -0.5766 -0.3222
   99MOL    C4219838   5.091   6.839   4.365 -0.5385  0.5769 -0.1519
   99MOL    C4319839   4.971   6.938   4.359  0.6200  0.1028 -0.3576
   99MOL    C4419840   4.911   6.937   4.502  0.1757 -0.3605  0.1217
   99MOL    O4519841   4.854   6.840   4.557  0.5005  0.9038  0.2461
   99MOL    N4619842   4.930   7.052   4.575 -0.0643 -0.2396  0.2271
   99MOL    H4719843   5.149   6.870   4.452  2.0693  2.2317 -2.4076
   99MOL    H4819844   5.041   6.744   4.384 -0.7216  0.6318 -0.3613
   99MOL    H4919845   5.007   7.039   4.340  1.7253 -0.4380 -1.1946
   99MOL    H5019846   4.906   7.057   4.673 -0.0958 -0.4307  0.2303
   99MOL    H5119847   4.993   7.120   4.534  0.8623 -1.3039 -0.1725
   99MOL    C5219848   4.869   6.898   4.241  0.4162  0.1159  0.2353
   99MOL    C5319849   4.739   6.986   4.247 -0.1018  0.3467  0.0223
   99MOL    C5419850   4.754   7.135   4.283  0.2973 -0.1539  1.2005
   99MOL    O5519851   4.801   7.218   4.204 -0.5835 -0.4197 -0.1727
   99MOL    N5619852   4.709   7.180   4.405  0.1474  0.0319 -0.2959
   99MOL    H5719853   4.847   6.792   4.258  0.6438  0.0817  0.3200
   99MOL    H5819854   4.916   6.899   4.142 -0.1326  3.0599 -0.0287
   99MOL    H5919855   4.715   6.990   4.141 -2.5817 -2.2137  0.4343
   99MOL    H6019856   4.673   7.113   4.472 -1.3671 -0.4493 -1.5697
   99MOL    H6119857   4.687   7.277   4.422 -1.3220  0.3033 -3.3883
   99MOL    C6219858   4.617   6.920   4.327  0.3375 -0.1533 -0.0990
   99MOL    C6319859   4.520   6.850   4.226 -0.2174 -0.7782 -0.3354
   99MOL    C6419860   4.374   6.896   4.245  0.0189 -0.0190  0.2838
   99MOL    O6519861   4.328   6.992   4.186  0.3098 -0.7180  0.5180
   99MOL    N6619862   4.306   6.833   4.338  0.1480  0.2915 -0.0579
   99MOL    H6719863   4.553   6.995   4.373  0.2414 -0.7302  0.7088
   99MOL    H6819864   4.658   6.860   4.408  1.3689  0.1458 -0.3951
   99MOL    H6919865   4.544   6.899   4.132  1.3200 -1.5261 -0.3575
   99MOL    H7019866   4.368   6.784   4.402 -0.3416 -1.5533 -0.9622
   99MOL    H7119867   4.209   6.847   4.363  0.5861  1.7798  0.8836
   99MOL    C7219868   4.548   6.693   4.225  0.5896 -0.1551  0.5759
   99MOL    C7319869   4.506   6.616   4.098 -0.4073  0.0718  0.8659
   99MOL    C7419870   4.356   6.578   4.100 -0.3275 -0.6390 -0.2884
   99MOL    O7519871   4.273   6.660   4.066 -0.0914 -0.3299  0.0796
   99MOL    N7619872   4.321   6.452   4.133  0.1964 -0.2910 -0.3813
   99MOL    H7719873   4.492   6.659   4.312  2.2632 -1.3017  1.2198
   99MOL    H7819874   4.649   6.671   4.259  0.2309  0.1558  1.8531
   99MOL    H7919875   4.523   6.673   4.007 -1.2249 -1.6091 -0.3587
   99MOL    H8019876   4.227   6.433   4.101  0.0621 -1.7645  0.8474
   99MOL    H8119877   4.384   6.378   4.161  0.2310 -0.8745 -1.9358
   99MOL    C8219878   4.604   6.494   4.084  0.0518  0.0981 -0.7779
   99MOL    C8319879   4.580   6.395   3.966  0.6280 -0.2553 -0.1038
   99MOL    C8419880   4.688   6.286   3.958 -0.0983 -0.4674 -0.4241
   99MOL    O8519881   4.807   6.321   3.954 -0.6579  0.1909 -0.1398
   99MOL    N8619882   4.642   6.164   3.959 -0.2993 -0.2650 -0.2147
   99MOL    H8719883   4.615   6.436   4.175 -0.0833  1.1485 -0.0893
   99MOL    H8819884   4.702   6.540   4.071 -0.2973  1.0724 -0.0434
   99MOL    H8919885   4.489   6.336   3.972  0.0223  0.7078  0.2630
   99MOL    H9019886   4.547   6.153   3.991 -0.2930 -0.0481 -0.1194
   99MOL    H9119887   4.706   6.086   3.953 -1.8143 -1.7936  2.6656
   99MOL    C9219888   4.562   6.467   3.827  0.3062  0.8491 -0.0857
   99MOL    C9319889   4.419   6.447   3.756 -0.0868 -0.1344  0.5948
   99MOL    C9419890   4.412   6.311   3.688 -0.6123 -0.3423  0.3489
   99MOL    O9519891   4.462   6.285   3.579 -0.2778  1.1997 -0.4718
   99MOL    N9619892   4.347   6.216   3.753  0.1416  0.9015 -1.0044
   99MOL    H9719893   4.645   6.436   3.764  0.3351  0.1691  0.2815
   99MOL    H9819894   4.587   6.573   3.832  2.1295  0.4228  0.2788
   99MOL    H9919895   4.340   6.446   3.832  1.2606  1.8078  2.0430
   99MOL   H10019896   4.305   6.233   3.843  1.2794 -1.0968 -0.0766
   99MOL   H10119897   4.376   6.122   3.731 -0.0265  0.8044 -0.8091
   99MOL   C10219898   4.396   6.574   3.661 -0.4800  0.1459  0.3834
   99MOL   C10319899   4.324   6.684   3.731 -0.2460  0.3969 -0.7960
   99MOL   C10419900   4.174   6.669   3.732 -0.0265  0.6975  0.4628
   99MOL   O10519901   4.118   6.625   3.631  0.1346 -0.4172 -0.1151
   99MOL   N10619902   4.102   6.694   3.838  0.2053  0.4174 -0.1132
   99MOL   H10719903   4.356   6.557   3.560 -2.0152  1.5099  0.7364
   99MOL   H10819904   4.492   6.617   3.635 -0.2516 -0.4351  0.2530
   99MOL   H10919905   4.351   6.664   3.835 -1.3156 -0.0495 -0.5882
   99MOL   H11019906   4.004   6.670   3.841 -0.2167  1.9778 -0.9073
   99MOL   H11119907   4.155   6.720   3.920 -1.7897 -0.7756  1.6068
   99MOL   C11219908   4.367   6.828   3.698 -0.4231 -0.5951 -0.0815
   99MOL   C11319909   4.344   6.940   3.806  0.1010 -0.2576 -0.1511
   99MOL   C11419910   4.201   7.004   3.798 -0.0857  0.0324 -0.3448
   99MOL   O11519911   4.143   7.045   3.698  0.2401  0.7106  0.2621
   99MOL   N11619912   4.149   7.029   3.915 -0.0606  0.3735 -0.2356
   99MOL   H11719913   4.319   6.859   3.605  1.4440  1.4855 -0.4073
   99MOL   H11819914   4.476   6.834   3.687 -0.5156  2.3817  0.0254
   99MOL   H11919915   4.359   6.893   3.903 -1.9813  1.1741  0.9146
   99MOL   H12019916   4.053   7.059   3.919 -0.0693  0.1799  1.2605
   99MOL   H12119917   4.194   7.014   4.004 -0.6168  0.2541  0.0251
   99MOL   C12219918   4.448   7.050   3.808 -0.6993  0.1962 -0.5831
   99MOL   C12319919   4.473   7.134   3.677  0.5514 -0.2845  0.2332
   99MOL   C12419920   4.593   7.080   3.598 -0.3307 -0.3187 -0.0035
   99MOL   O12519921   4.708   7.107   3.616  0.8056 -0.1397 -0.3255
   99MOL   N12619922   4.558   7.004   3.498  0.3864 -0.3402 -0.5026
   99MOL   H12719923   4.545   7.016   3.846 -0.7035  2.7432  1.9042
   99MOL   H12819924   4.414   7.118   3.886  0.9575  0.7506 -0.3245
   99MOL   H12919925   4.382   7.135   3.617  1.6064  2.6395 -1.4190
   99MOL   H13019926   4.466   6.971   3.474  0.7951 -1.7711 -0.1450
   99MOL   H13119927   4.633   6.996   3.431  1.1459  3.3983 -0.2040
   99MOL   C13219928   4.494   7.285   3.705  0.3130  0.4244 -0.0002
   99MOL   C13319929   4.366   7.360   3.755  0.6209 -0.1167  0.2255
   99MOL   C13419930   4.275   7.404   3.634 -0.5246  1.0340 -0.2772
   99MOL   O13519931   4.308   7.503   3.573 -0.2090 -0.5699 -0.3215
   99MOL   N13619932   4.168   7.334   3.603  0.1509  1.0381 -0.6046
   99MOL   H13719933   4.534   7.328   3.612 -1.3500  0.4846 -0.6989
   99MOL   H13819934   4.570   7.287   3.783  1.4296 -0.7119 -1.0436
   99MOL   H13919935   4.295   7.290   3.799  0.4433 -1.1604 -1.6370
   99MOL   H14019936   4.149   7.258   3.667  0.8478  0.8811 -0.5792
   99MOL   H14119937   4.093   7.369   3.545 -0.2739 -0.1186 -0.7593
   99MOL   C14219938   4.395   7.488   3.851 -0.2997  0.2099  0.0830
   99MOL   C14319939   4.468   7.450   3.978 -1.2491 -0.1705  0.6175
   99MOL   C14419940   4.382   7.348   4.050  0.5711 -0.1297  0.4057
   99MOL   O14519941   4.258   7.351   4.035 -0.4215  0.0443  0.1692
   99MOL   N14619942   4.446   7.266   4.132 -0.6251  0.4320 -0.7566
   99MOL   H14719943   4.301   7.539   3.871  0.1805  1.6501 -1.2578
   99MOL   H14819944   4.450   7.569   3.803  0.5841 -0.2635  0.2771
   99MOL   H14919945   4.564   7.412   3.945 -0.5328  1.2418  1.0144
   99MOL   H15019946   4.544   7.275   4.153 -0.3596 -0.6373 -1.4786
   99MOL   H15119947   4.399   7.186   4.172  0.1380  0.4472  0.1803
   99MOL   C15219948   4.487   7.567   4.076 -0.4827 -0.3131 -0.3282
   99MOL   C15319949   4.584   0.027   4.025  0.0087  0.5447 -0.1448
   99MOL   C15419950   4.729   7.629   4.015 -0.0107  0.3250  0.3881
   99MOL   O15519951   4.800   7.605   4.108 -0.5995 -0.0133 -0.0525
   99MOL   N15619952   4.768   7.594   3.888  0.0696  0.0603 -0.8163
   99MOL   H15719953   4.514   7.521   4.171 -1.1500 -0.7994 -0.3720
   99MOL   H15819954   4.388   7.610   4.090 -1.6912 -2.5544 -1.9113
   99MOL   H15919955   4.557   0.064   3.926  0.7200  1.1424 -0.1176
   99MOL   H16019956   4.702   7.613   3.813  0.8651  2.2693 -0.9871
   99MOL   H16119957   4.846   7.533   3.866  1.2271  1.9609 -2.1741
   99MOL   C16219958   4.575   0.148   4.121  0.0094 -0.4697  0.4358
   99MOL   C16319959   4.480   0.264   4.090 -0.3369  0.1718 -0.4714
   99MOL   C16419960   4.513   0.382   4.187  0.3525  0.2618  0.0252
   99MOL   O16519961   4.561   0.362   4.298  0.4627  0.1872  0.9928
   99MOL   N16619962   4.507   0.508   4.140 -1.1031 -0.2231  0.0989
   99MOL   H16719963   4.673   0.196   4.117  0.4694 -1.5265 -1.3705
   99MOL   H16819964   4.550   0.109   4.220 -0.5717 -1.8240 -0.2361
   99MOL   H16919965   4.511   0.301   3.992  1.7715  1.2586  0.5776
   99MOL   H17019966   4.453   0.521   4.055  1.0549 -2.2795 -1.6874
   99MOL   H17119967   4.536   0.589   4.192  0.1896 -0.8236  0.3414
   99MOL   C17219968   4.329   0.233   4.068  0.7696 -0.9891  0.2434
   99MOL   C17319969   4.239   0.226   4.196  0.0849  0.4948  0.0784
   99MOL   C17419970   4.157   0.097   4.194 -0.0140  0.2410 -0.1963
   99MOL   O17519971   4.091   0.073   4.094  0.2668  0.5314 -0.5280
   99MOL   N17619972   4.164   0.020   4.303  0.8412 -0.5554  0.5213
   99MOL   H17719973   4.320   0.144   4.005 -0.2555 -0.0362 -0.9916
   99MOL   H17819974   4.284   0.312   4.008  0.4499 -1.1838  0.2233
   99MOL   H17919975   4.298   0.213   4.287  0.1075 -0.2619 -0.0398
   99MOL   H18019976   4.127   7.584   4.298 -0.0652 -0.1170 -1.3619
   99MOL   H18119977   4.205   0.051   4.390  1.8005  2.0022 -0.7476
   99MOL   C18219978   4.144   0.352   4.199  0.1484 -0.0722 -0.5554
   99MOL   C18319979   4.066   0.373   4.339 -0.3190  0.8042  0.5194
   99MOL   C18419980   3.927   0.437   4.305  0.1539 -0.2198 -0.0554
   99MOL   O18519981   3.909   0.530   4.226 -0.0966 -0.0914  0.7624
   99MOL   N18619982   3.825   0.387   4.376  0.0952  0.0899  0.0219
   99MOL   H18719983   4.085   0.360   4.108  0.5237 -1.9516 -0.9886
   99MOL   H18819984   4.201   0.443   4.185  1.0586 -0.3320  1.2431
   99MOL   H18919985   4.055   0.275   4.385 -0.2051 -0.2418 -1.6298
   99MOL   H19019986   3.733   0.421   4.351  0.1901  0.6648  0.4501
   99MOL   H19119987   3.827   0.293   4.412  1.0311 -0.8299 -2.3273
   99MOL   C19219988   4.141   0.470   4.440  0.2658 -0.0836 -0.3269
   99MOL   C19319989   4.058   0.530   4.553  0.1586 -0.4886 -0.9896
   99MOL   C19419990   4.151   0.597   4.654 -0.7002  0.0932  0.9938
   99MOL   O19519991   4.263   0.645   4.634  0.6201  0.2850  0.6206
   99MOL   N19619992   4.107   0.589   4.775 -0.5946  0.3659 -0.5425
   99MOL   H19719993   4.184   0.560   4.395  0.7663 -1.7239 -3.2334
   99MOL   H19819994   4.234   0.420   4.468 -0.6271 -1.6992 -0.2097
   99MOL   H19919995   3.990   0.599   4.503 -0.2635 -1.0289 -1.1694
   99MOL   H20019996   4.043   0.513   4.795  0.7394 -0.5825  0.2273
   99MOL   H20119997   4.167   0.622   4.849  0.7403 -0.7278 -1.0932
   99MOL   H20219998   3.997   0.454   4.602  1.4886 -0.4621  0.7251
  100MOL     C119999   7.150   4.153   2.942 -0.0740  0.0767 -0.6563
  100MOL     C220000   7.033   4.119   3.029  0.0940  0.2754  0.9056
  100MOL     C320001   6.894   4.148   2.960  0.2681  0.7777 -0.2527
  100MOL     O420002   6.873   4.256   2.906 -0.4944  0.3582 -0.2841
  100MOL     N520003   6.801   4.057   2.956 -0.6157  0.7069  0.1459
  100MOL     H620004   7.174   4.258   2.963 -2.2797  0.0858  2.1254
  100MOL     H720005   7.238   4.103   2.983  0.7021  0.4985 -1.7785
  100MOL     H820006   7.053   4.012   3.040  0.9951  0.4438  0.9514
  100MOL     H920007   6.707   4.085   2.934 -1.1495  0.2763  1.7514
  100MOL    H1020008   6.831   3.962   2.974  1.9108  1.4456  0.0367
  100MOL    H1120009   7.131   4.136   2.836  0.6297 -0.6417 -0.6726
  100MOL    C1220010   7.040   4.196   3.159 -0.1273 -0.2653  0.0927
  100MOL    C1320011   6.984   4.136   3.288  0.1409  0.0732 -1.2561
  100MOL    C1420012   6.991   3.983   3.296  0.1295 -0.3893 -0.1635
  100MOL    O1520013   6.894   3.918   3.248  0.1315 -0.1787  0.5086
  100MOL    N1620014   7.094   3.920   3.350  0.0570  0.5845  0.7560
  100MOL    H1720015   7.019   4.301   3.137 -0.4213 -0.6553 -1.6098
  100MOL    H1820016   7.145   4.212   3.183  0.1696 -2.9536  0.8190
  100MOL    H1920017   7.045   4.164   3.375 -1.0354 -3.2019  0.7317
  100MOL    H2020018   7.097   3.819   3.344 -0.6804  0.6539 -1.1906
  100MOL    H2120019   7.174   3.974   3.378 -1.2709  3.2744 -0.4535
  100MOL    C2220020   6.836   4.170   3.313 -0.3384  0.5815 -0.5723
  100MOL    C2320021   6.783   4.319   3.337  0.2191  0.4864  0.8724
  100MOL    C2420022   6.874   4.399   3.434  0.1131  0.3803 -0.9680
  100MOL    O2520023   6.904   4.344   3.540  0.2730 -0.2147  0.0041
  100MOL    N2620024   6.920   4.517   3.400 -0.2850  0.4633 -0.5006
  100MOL    H2720025   6.806   4.104   3.394  1.8838  1.2455  0.8323
  100MOL    H2820026   6.771   4.131   3.233 -0.6281  2.5324 -1.3117
  100MOL    H2920027   6.772   4.364   3.238  0.6798 -0.9819  0.1386
  100MOL    H3020028   6.963   4.575   3.471  0.5915 -0.8911  0.0889
  100MOL    H3120029   6.884   4.563   3.318 -1.3142 -0.1768 -0.4092
  100MOL    C3220030   6.645   4.306   3.393  0.1060 -0.1921 -0.0539
  100MOL    C3320031   6.543   4.424   3.413 -0.1849  0.1721  0.1454
  100MOL    C3420032   6.492   4.485   3.284 -0.9883 -0.3447 -0.8240
  100MOL    O3520033   6.571   4.540   3.210  1.1334  0.4156 -0.0932
  100MOL    N3620034   6.366   4.460   3.260 -0.3451  0.1949 -0.2941
  100MOL    H3720035   6.642   4.249   3.486 -0.4094 -1.8219 -1.0409
  100MOL    H3820036   6.601   4.229   3.329  2.4858 -0.7598 -1.0439
  100MOL    H3920037   6.452   4.374   3.449 -1.2525  0.4282 -2.1519
  100MOL    H4020038   6.304   4.413   3.325  0.7388  0.2966  0.8385
  100MOL    H4120039   6.326   4.497   3.175 -2.1171  0.1434  0.4980
  100MOL    C4220040   6.577   4.531   3.517 -0.3358 -0.2011  0.3023
  100MOL    C4320041   6.493   4.522   3.651  1.1486 -0.0194 -0.2296
  100MOL    C4420042   6.469   4.377   3.704 -0.3269  0.1948  0.1076
  100MOL    O4520043   6.372   4.304   3.676  0.3205  0.3901 -0.3772
  100MOL    N4620044   6.566   4.317   3.763 -0.1869 -0.7514  0.0514
  100MOL    H4720045   6.559   4.627   3.469 -0.9387 -0.5870 -0.2563
  100MOL    H4820046   6.686   4.530   3.527 -0.0906 -2.3254 -1.9347
  100MOL    H4920047   6.557   4.573   3.723  2.2661 -0.3288 -0.9987
  100MOL    H5020048   6.640   4.376   3.798  1.2286 -2.4816  0.0475
  100MOL    H5120049   6.572   4.217   3.773 -0.7762 -0.8744 -0.7852
  100MOL    C5220050   6.357   4.603   3.651  0.2122 -0.2270  0.3003
  100MOL    C5320051   6.359   4.736   3.737  0.0799 -0.2427 -0.0611
  100MOL    C5420052   6.362   4.697   3.885 -0.0634 -0.1761 -0.3417
  100MOL    O5520053   6.289   4.612   3.927 -0.0800  0.0081 -0.2533
  100MOL    N5620054   6.452   4.754   3.964 -0.0819  0.3871  0.0568
  100MOL    H5720055   6.276   4.543   3.693  0.2594 -1.6352 -1.5730
  100MOL    H5820056   6.330   4.612   3.545  0.7661  1.4991  0.2891
  100MOL    H5920057   6.445   4.798   3.711  0.2904  1.1207  3.6905
  100MOL    H6020058   6.456   4.735   4.064 -0.0238 -0.0277 -0.0250
  100MOL    H6120059   6.512   4.821   3.917  0.5064 -0.5766 -0.5637
  100MOL    C6220060   6.235   4.816   3.700 -0.7772 -0.1804  0.4080
  100MOL    C6320061   6.223   4.962   3.760 -0.5860 -0.3232 -0.2646
  100MOL    C6420062   6.189   4.981   3.909 -0.0547 -0.3556  0.2152
  100MOL    O6520063   6.243   5.075   3.973  0.1003  0.6217  0.5637
  100MOL    N6620064   6.083   4.911   3.956  1.4941 -0.4455  0.1982
  100MOL    H6720065   6.157   4.752   3.742 -2.1235  2.1585  1.6120
  100MOL    H6820066   6.205   4.809   3.596 -4.6631 -0.0088  1.4189
  100MOL    H6920067   6.311   5.024   3.743  0.0620 -1.5832 -1.5764
  100MOL    H7020068   6.041   4.943   4.043 -0.9370  2.1625 -1.8120
  100MOL    H7120069   6.026   4.859   3.891 -0.6403  1.5371  0.4100
  100MOL    C7220070   6.115   5.025   3.674  0.0235  0.3010 -0.3878
  100MOL    C7320071   6.070   5.170   3.691  0.6327  0.8967 -0.1182
  100MOL    C7420072   5.966   5.195   3.578 -0.1020 -0.7036  0.6822
  100MOL    O7520073   6.004   5.210   3.459 -0.0041  0.3716  0.6679
  100MOL    N7620074   5.839   5.201   3.617  0.4900  0.5476  0.3190
  100MOL    H7720075   6.026   4.964   3.689  1.4342 -1.8815 -0.5413
  100MOL    H7820076   6.140   5.016   3.569  3.3438  0.3168  0.3312
  100MOL    H7920077   6.017   5.170   3.786 -1.0646  0.9009 -1.0363
  100MOL    H8020078   5.764   5.215   3.550 -0.5848 -1.2613  1.0938
  100MOL    H8120079   5.810   5.201   3.714 -4.4952  0.3012 -1.0019
  100MOL    C8220080   6.186   5.266   3.692 -0.5611 -0.3928  0.6603
  100MOL    C8320081   6.144   5.415   3.730  0.7657  0.5062  0.6171
  100MOL    C8420082   6.233   5.521   3.685  0.1131 -0.5059  0.0630
  100MOL    O8520083   6.217   5.583   3.577 -0.0678 -0.8406 -0.1679
  100MOL    N8620084   6.338   5.545   3.762 -0.0021 -0.4331  0.2832
  100MOL    H8720085   6.240   5.259   3.598  1.8518 -1.9601  2.1087
  100MOL    H8820086   6.264   5.238   3.763  1.2199  1.8683 -0.3429
  100MOL    H8920087   6.054   5.438   3.673  0.0262 -1.1836  1.0750
  100MOL    H9020088   6.409   5.609   3.729 -1.4624  0.8914 -0.3889
  100MOL    H9120089   6.349   5.512   3.856  2.1548 -0.3625  0.0827
  100MOL    C9220090   6.114   5.433   3.884  0.0258 -0.6880  0.5111
  100MOL    C9320091   6.012   5.542   3.919  0.0586  0.0171 -0.5211
  100MOL    C9420092   6.000   5.572   4.063 -0.0370 -0.6743  0.2214
  100MOL    O9520093   5.974   5.489   4.155 -0.1198  0.2218  0.3733
  100MOL    N9620094   6.008   5.695   4.102  0.2272  0.0603 -0.0165
  100MOL    H9720095   6.205   5.439   3.945 -0.5134 -0.5621  1.3177
  100MOL    H9820096   6.061   5.344   3.919 -0.6453 -0.6727 -0.4567
  100MOL    H9920097   6.051   5.624   3.860  2.6998  0.7933  2.2059
  100MOL   H10020098   6.004   5.702   4.203 -1.9496  1.4716 -0.1675
  100MOL   H10120099   6.023   5.771   4.038  2.1978 -1.4117 -1.3612
  100MOL   C10220100   5.868   5.512   3.865  0.0100 -0.1725 -0.1862
  100MOL   C10320101   5.804   5.600   3.749  0.1959 -0.0441 -0.3094
  100MOL   C10420102   5.791   5.753   3.787 -0.3446  0.2914 -0.3398
  100MOL   O10520103   5.766   5.796   3.899 -0.1493  0.1054 -0.1489
  100MOL   N10620104   5.794   5.841   3.691  0.0395 -1.0958 -0.1195
  100MOL   H10720105   5.799   5.516   3.949  0.3562 -1.6969  0.1867
  100MOL   H10820106   5.877   5.412   3.822  2.1075  0.2974 -0.8948
  100MOL   H10920107   5.876   5.583   3.668 -2.1847 -0.1588 -2.4768
  100MOL   H11020108   5.795   5.821   3.592 -1.4976  1.7472 -0.7756
  100MOL   H11120109   5.767   5.937   3.707 -2.3506 -1.6820 -0.3983
  100MOL   C11220110   5.670   5.537   3.698 -0.1316  0.6170 -0.6019
  100MOL   C11320111   5.643   5.584   3.554 -0.4708 -0.5114  0.1882
  100MOL   C11420112   5.498   5.546   3.526 -0.5952 -0.4160  0.3525
  100MOL   O11520113   5.470   5.434   3.486 -0.0305  0.4225  0.1070
  100MOL   N11620114   5.407   5.635   3.559  0.0401 -0.0430  0.0623
  100MOL   H11720115   5.589   5.557   3.768  2.0004  2.4362  1.4193
  100MOL   H11820116   5.670   5.428   3.702  1.6409  0.6001 -0.6333
  100MOL   H11920117   5.653   5.691   3.533 -1.9768  0.0281  2.0372
  100MOL   H12020118   5.432   5.725   3.600 -0.1107  0.9049 -1.8667
  100MOL   H12120119   5.310   5.609   3.549 -0.7499  2.0106  1.8325
  100MOL   C12220120   5.740   5.516   3.442  0.0842 -0.3625 -0.4888
  100MOL   C12320121   5.890   5.544   3.420  0.9310  0.2056  0.3878
  100MOL   C12420122   5.924   5.696   3.409 -0.4136 -0.5526  0.0091
  100MOL   O12520123   5.845   5.779   3.375 -0.5471 -0.0682  0.2732
  100MOL   N12620124   6.037   5.746   3.453  0.2760  0.1725  0.1845
  100MOL   H12720125   5.695   5.557   3.351 -1.9200 -0.3967  0.4665
  100MOL   H12820126   5.714   5.410   3.442 -0.9503 -0.1133  0.1100
  100MOL   H12920127   5.956   5.503   3.496 -1.0791 -0.6775  1.6925
  100MOL   H13020128   6.106   5.685   3.493  0.8399  1.6587  1.5509
  100MOL   H13120129   6.069   5.841   3.441  1.0954  0.0869  1.5297
  100MOL   C13220130   5.932   5.472   3.290 -1.4302 -0.6186  0.0455
  100MOL   C13320131   6.087   5.441   3.263  0.5235  0.5154 -0.3513
  100MOL   C13420132   6.175   5.562   3.211  0.6667 -0.2942  0.6658
  100MOL   O13520133   6.284   5.560   3.261  0.3754 -0.9044 -0.1527
  100MOL   N13620134   6.134   5.649   3.119  0.2638  0.0522  0.0620
  100MOL   H13720135   5.897   5.515   3.196 -1.5714  3.0683  1.7012
  100MOL   H13820136   5.873   5.381   3.283 -0.5738 -1.5688  3.9052
  100MOL   H13920137   6.133   5.404   3.355 -0.8216 -0.5758 -0.1073
  100MOL   H14020138   6.192   5.724   3.083  0.4672  0.3361  0.9745
  100MOL   H14120139   6.046   5.624   3.077  0.8024 -1.3124 -0.2712
  100MOL   C14220140   6.103   5.317   3.170 -0.6919  0.3232 -0.0725
  100MOL   C14320141   6.254   5.269   3.172 -0.4932  0.4521 -0.9887
  100MOL   C14420142   6.312   5.281   3.030  0.4011  0.2368 -0.8311
  100MOL   O14520143   6.310   5.185   2.959 -0.4025  0.0912 -0.3408
  100MOL   N14620144   6.372   5.400   2.999 -0.6987  0.4087 -0.4085
  100MOL   H14720145   6.076   5.347   3.069  0.4450 -2.4311 -1.2320
  100MOL   H14820146   6.032   5.237   3.194  3.2644 -2.6939  2.2519
  100MOL   H14920147   6.319   5.327   3.237  1.1015 -2.4944  0.1479
  100MOL   H15020148   6.355   5.477   3.063  1.0094  0.2109  0.2900
  100MOL   H15120149   6.398   5.410   2.902 -2.0672 -2.5218 -1.1257
  100MOL   C15220150   6.258   5.127   3.238  0.6361 -0.5999  0.1629
  100MOL   C15320151   6.397   5.061   3.258  0.4275  0.0098  0.0870
  100MOL   C15420152   6.378   4.907   3.249  0.2256  0.3938  0.6375
  100MOL   O15520153   6.282   4.852   3.297 -0.7555  0.0357  0.2513
  100MOL   N15620154   6.472   4.839   3.184 -0.2130  0.1247 -0.0981
  100MOL   H15720155   6.194   5.063   3.177  0.0058 -1.3580  1.6069
  100MOL   H15820156   6.205   5.128   3.333  3.2265 -0.3777  1.6713
  100MOL   H15920157   6.463   5.086   3.175  1.4634 -1.3845  0.4809
  100MOL   H16020158   6.552   4.875   3.134 -0.2462  0.5132  0.1221
  100MOL   H16120159   6.455   4.741   3.171 -0.1851  0.4568 -2.9596
  100MOL   C16220160   6.461   5.096   3.397  0.0686 -0.0396  0.0031
  100MOL   C16320161   6.621   5.120   3.387 -0.3148 -0.1695  0.4090
  100MOL   C16420162   6.696   4.994   3.360  0.7066  0.0189 -1.1731
  100MOL   O16520163   6.676   4.896   3.433 -0.4104 -0.7209  0.7675
  100MOL   N16620164   6.790   4.986   3.271 -0.1797  0.0654  0.1890
  100MOL   H16720165   6.436   5.020   3.471 -0.9739  0.7760  0.5052
  100MOL   H16820166   6.410   5.187   3.429 -1.7841 -0.1257 -2.5155
  100MOL   H16920167   6.631   5.180   3.296  2.6644 -0.8083  0.2629
  100MOL   H17020168   6.842   4.899   3.267  0.0699  0.1584  1.2209
  100MOL   H17120169   6.822   5.062   3.213  1.0299 -1.2764 -0.9528
  100MOL   C17220170   6.680   5.194   3.512 -0.7945 -0.1761 -0.0253
  100MOL   C17320171   6.616   5.326   3.549 -0.8070  0.9422  0.2100
  100MOL   C17420172   6.580   5.424   3.435 -0.1697  0.2012 -0.4312
  100MOL   O17520173   6.656   5.444   3.338  0.2061  0.2941  0.0338
  100MOL   N17620174   6.460   5.476   3.442  0.0007 -0.1522 -0.3102
  100MOL   H17720175   6.788   5.197   3.499 -0.8304  1.2052 -0.1062
  100MOL   H17820176   6.670   5.131   3.600 -0.0203  0.9856  0.9048
  100MOL   H17920177   6.525   5.308   3.607  1.1229 -2.0065  2.4934
  100MOL   H18020178   6.407   5.457   3.526 -1.1768 -4.3777 -1.9019
  100MOL   H18120179   6.415   5.522   3.365  2.2447 -2.0314 -2.8473
  100MOL   C18220180   6.722   5.395   3.642  0.2719  0.3065 -0.4648
  100MOL   C18320181   6.676   5.406   3.787  0.0314 -0.0712  0.6412
  100MOL   C18420182   6.786   5.478   3.874  0.2399 -0.2359  0.3226
  100MOL   O18520183   6.905   5.460   3.849  0.2245  0.4538  0.6395
  100MOL   N18620184   6.749   5.556   3.972 -0.5103 -0.1159 -0.0905
  100MOL   H18720185   6.742   5.496   3.606 -1.0827  0.4338 -0.8941
  100MOL   H18820186   6.821   5.350   3.639  0.3018  0.4641 -1.9019
  100MOL   H18920187   6.584   5.465   3.793  0.1494  0.1944 -0.1255
  100MOL   H19020188   6.814   5.625   4.006  1.5014 -1.5220 -0.9559
  100MOL   H19120189   6.652   5.576   3.991 -0.1412  0.3860  1.3458
  100MOL   C19220190   6.652   5.269   3.848  0.4131 -0.2221 -0.5467
  100MOL   C19320191   6.551   5.279   3.962  0.5139 -0.5597  0.6782
  100MOL   C19420192   6.585   5.196   4.086 -0.5227  0.2208 -0.3588
  100MOL   O19520193   6.692   5.208   4.150  0.0008  0.3760 -0.0631
  100MOL   N19620194   6.483   5.127   4.137  0.4829  0.2587  0.0738
  100MOL   H19720195   6.755   5.241   3.869  0.5679 -0.5336 -1.6626
  100MOL   H19820196   6.617   5.199   3.772  1.9428 -0.3968 -1.1185
  100MOL   H19920197   6.546   5.385   3.990  1.3673  0.0276 -1.3020
  100MOL   H20020198   6.395   5.101   4.095 -0.1047  1.2810  0.6363
  100MOL   H20120199   6.497   5.082   4.227  0.7236 -2.7950 -1.4425
  100MOL   H20220200   6.454   5.252   3.921  0.4797 -2.5409  2.0203
  101MOL     C120201   0.448   3.716   3.724 -0.1078  0.0401 -0.4512
  101MOL     C220202   0.341   3.615   3.783  0.0297  0.2198 -0.6141
  101MOL     C320203   0.374   3.469   3.753 -0.1000 -0.2820 -0.0969
  101MOL     O420204   0.387   3.380   3.841 -0.6195  0.2736 -0.2484
  101MOL     N520205   0.402   3.418   3.634  0.3690  0.2183  0.6360
  101MOL     H620206   0.419   3.812   3.765 -0.2197  0.3685 -1.2925
  101MOL     H720207   0.543   3.686   3.767 -0.6104  1.5925  1.7828
  101MOL     H820208   0.356   3.620   3.891 -0.6995  0.0888 -0.5002
  101MOL     H920209   0.412   3.318   3.625  1.5151  0.3728  0.1191
  101MOL    H1020210   0.390   3.470   3.548 -0.6764 -1.5554 -0.3230
  101MOL    H1120211   0.453   3.715   3.615  0.0111  0.4518 -0.4476
  101MOL    C1220212   0.183   3.636   3.758 -0.8831  0.1979  0.1660
  101MOL    C1320213   0.138   3.654   3.608  0.9530 -0.6491  0.3749
  101MOL    C1420214   0.151   3.803   3.566 -0.0040 -0.5319  1.0546
  101MOL    O1520215   0.078   3.887   3.613 -0.2383 -0.4340 -0.1763
  101MOL    N1620216   0.233   3.838   3.465  0.2711  0.1133 -0.8024
  101MOL    H1720217   0.164   3.724   3.819  2.4183 -0.6603  2.5816
  101MOL    H1820218   0.134   3.553   3.810 -0.5182  0.4984  0.9930
  101MOL    H1920219   0.205   3.598   3.543  0.4842 -1.0958  0.2756
  101MOL    H2020220   0.252   3.931   3.432 -2.2415  0.7785 -0.5122
  101MOL    H2120221   0.288   3.759   3.435  0.7613 -0.3756  1.2638
  101MOL    C2220222   7.646   3.600   3.592 -0.2552 -0.3173  0.5204
  101MOL    C2320223   7.581   3.614   3.448  0.2688  1.0704  0.0099
  101MOL    C2420224   7.427   3.584   3.445  0.8192  0.0713  0.6733
  101MOL    O2520225   7.374   3.474   3.470  0.0636 -0.9460  0.4760
  101MOL    N2620226   7.345   3.688   3.404 -0.0053 -0.2558 -0.2187
  101MOL    H2720227   7.572   3.657   3.648 -1.5247 -2.3602  1.0010
  101MOL    H2820228   7.631   3.499   3.631 -1.5520 -0.3273  0.0494
  101MOL    H2920229   7.581   3.721   3.426  1.4028  0.9083 -0.8170
  101MOL    H3020230   7.253   3.648   3.394 -0.1992  0.1682 -0.1316
  101MOL    H3120231   7.373   3.784   3.387  0.8618 -0.4286  0.1678
  101MOL    C3220232   0.002   3.556   3.325 -0.6779  0.1513 -0.6062
  101MOL    C3320233   7.652   3.399   3.316 -0.1323  0.3697 -0.2784
  101MOL    C3420234   0.090   3.332   3.421 -0.7266 -0.1280  0.0897
  101MOL    O3520235   0.214   3.336   3.411 -0.1225  0.1743 -0.1374
  101MOL    N3620236   0.032   3.274   3.523  0.3970 -0.5705  0.0984
  101MOL    H3720237   0.104   3.596   3.331 -0.3849 -0.7431  0.4962
  101MOL    H3820238   7.616   3.603   3.236 -0.2329  0.7002 -0.5350
  101MOL    H3920239   7.551   3.364   3.336  0.4326 -0.0398  2.0285
  101MOL    H4020240   0.098   3.228   3.584  2.8060  0.5853 -1.5872
  101MOL    H4120241   7.590   3.252   3.521  0.4094 -0.5412 -2.6153
  101MOL    C4220242   0.033   3.361   3.169  0.3771 -0.2392 -0.5380
  101MOL    C4320243   0.051   3.218   3.128 -0.1192 -0.5016  0.3519
  101MOL    C4420244   7.611   3.108   3.178 -0.3225 -0.3786  0.1601
  101MOL    O4520245   7.648   2.999   3.208  0.1212 -0.3332  0.0630
  101MOL    N4620246   7.480   3.136   3.171  0.2865  0.4455 -0.1899
  101MOL    H4720247   0.121   3.422   3.152 -0.5806  1.2403 -0.2437
  101MOL    H4820248   7.614   3.398   3.100  0.1707 -2.3047 -1.4556
  101MOL    H4920249   0.030   3.222   3.021 -0.8385  1.8741  0.5668
  101MOL    H5020250   7.454   3.218   3.120  0.2847  1.7020  1.7681
  101MOL    H5120251   7.422   3.058   3.198  0.6180  0.1532 -0.3131
  101MOL    C5220252   0.199   3.175   3.144 -0.4152  0.0608 -0.6170
  101MOL    C5320253   0.259   3.109   3.026  0.1835  0.6909 -0.2581
  101MOL    C5420254   0.357   3.002   3.083 -0.1315  0.2160 -0.0295
  101MOL    O5520255   0.469   3.039   3.100 -0.3674 -0.4025 -0.1522
  101MOL    N5620256   0.312   2.880   3.105  0.4455  0.0495  0.7149
  101MOL    H5720257   0.201   3.112   3.233  2.2360 -0.2517 -0.8537
  101MOL    H5820258   0.259   3.257   3.184  0.9625 -1.5241  0.6270
  101MOL    H5920259   0.186   3.059   2.964  2.8477 -1.8704 -1.4283
  101MOL    H6020260   0.375   2.812   3.146 -0.1226 -0.0440  1.4478
  101MOL    H6120261   0.212   2.868   3.110  0.4852 -0.0943  1.1901
  101MOL    C6220262   0.321   3.215   2.927 -0.7542 -0.4868 -0.2107
  101MOL    C6320263   0.415   3.167   2.813 -0.0470 -0.0501 -0.4603
  101MOL    C6420264   0.558   3.224   2.810 -0.1486  0.4393 -0.4304
  101MOL    O6520265   0.598   3.293   2.717 -0.0067 -0.5751  0.0802
  101MOL    N6620266   0.629   3.198   2.918  0.6392 -0.5981 -0.6833
  101MOL    H6720267   0.385   3.266   2.999 -1.5134 -1.7175  1.3758
  101MOL    H6820268   0.247   3.281   2.882  0.4293  1.0772  0.1002
  101MOL    H6920269   0.445   3.065   2.834  0.0422 -0.0049 -0.3654
  101MOL    H7020270   0.585   3.135   2.984 -1.4991  0.8718 -0.6565
  101MOL    H7120271   0.729   3.200   2.908  0.4001  0.5877 -3.1563
  101MOL    C7220272   0.358   3.185   2.672  0.4457  0.5753 -0.6590
  101MOL    C7320273   0.243   3.083   2.645 -0.3075 -0.4534 -0.1913
  101MOL    C7420274   0.274   2.939   2.596 -0.8928 -0.2938 -0.1069
  101MOL    O7520275   0.390   2.902   2.565 -0.1278  0.2664  0.0430
  101MOL    N7620276   0.173   2.852   2.586 -0.0452 -0.4789  0.2026
  101MOL    H7720277   0.432   3.165   2.595 -0.2055  0.8391 -1.3558
  101MOL    H7820278   0.320   3.284   2.645 -0.5800  0.0943 -0.9844
  101MOL    H7920279   0.199   3.064   2.742 -1.8492 -0.4343 -0.8685
  101MOL    H8020280   0.080   2.868   2.621 -0.3985  0.0017 -0.9282
  101MOL    H8120281   0.195   2.763   2.545 -0.5790 -0.7817  0.5780
  101MOL    C8220282   0.135   3.143   2.552 -0.1542 -0.5853 -0.3527
  101MOL    C8320283   0.009   3.205   2.641 -0.7816 -0.2104  0.6408
  101MOL    C8420284   7.580   3.094   2.700  0.3205 -0.2733 -0.6502
  101MOL    O8520285   7.598   2.976   2.669 -0.5289 -0.2012 -0.1143
  101MOL    N8620286   7.492   3.122   2.793  0.0979 -0.3608 -0.3544
  101MOL    H8720287   0.094   3.069   2.484  0.2859 -1.1874  0.0380
  101MOL    H8820288   0.183   3.216   2.487 -1.3260 -0.6609 -1.3315
  101MOL    H8920289   0.037   3.276   2.719 -1.8352 -0.7837  1.5557
  101MOL    H9020290   7.489   3.219   2.821  0.0071 -0.4368 -0.0986
  101MOL    H9120291   7.453   3.045   2.846  3.2116 -1.8763 -0.1689
  101MOL    C9220292   7.576   3.284   2.545 -0.2743  0.2424 -0.2937
  101MOL    C9320293   7.638   3.417   2.501 -0.4448  0.1689 -0.6507
  101MOL    C9420294   7.609   3.530   2.605 -1.2325  0.5218 -0.5485
  101MOL    O9520295   7.556   3.509   2.713  0.0474  0.4932 -0.0130
  101MOL    N9620296   7.637   3.655   2.579  0.3771 -0.2222 -0.2018
  101MOL    H9720297   7.474   3.305   2.577 -0.8633  0.6716 -2.3817
  101MOL    H9820298   7.568   3.219   2.458  0.5628 -0.7880  0.3857
  101MOL    H9920299   0.088   3.418   2.521 -0.4857  1.3189 -0.4448
  101MOL   H10020300   7.635   3.735   2.641  1.1664 -0.5893  0.3048
  101MOL   H10120301   0.043   3.676   2.503  0.6056  2.0251  0.5459
  101MOL   C10220302   7.583   3.457   2.365  0.6122  0.3621  0.3639
  101MOL   C10320303   7.430   3.491   2.339 -0.6642 -0.1544  0.0903
  101MOL   C10420304   7.344   3.363   2.336  0.1736  0.0855 -0.4296
  101MOL   O10520305   7.365   3.279   2.248 -0.5731  0.0509  0.2004
  101MOL   N10620306   7.267   3.339   2.439 -0.1848 -0.1934 -0.8503
  101MOL   H10720307   7.611   3.385   2.287  1.6087  0.4345  0.6506
  101MOL   H10820308   7.627   3.553   2.337  2.2714 -0.6721 -0.6485
  101MOL   H10920309   7.390   3.549   2.422  0.3611  0.8237 -0.0881
  101MOL   H11020310   7.263   3.413   2.507  1.9106 -1.1969  0.4266
  101MOL   H11120311   7.191   3.273   2.432  0.3266 -0.8777 -0.0449
  101MOL   C11220312   7.420   3.561   2.195  0.5148 -0.3636 -0.5766
  101MOL   C11320313   7.472   3.710   2.188 -0.4851  0.2407 -0.4679
  101MOL   C11420314   7.411   3.793   2.303  0.6521 -0.8483  0.2549
  101MOL   O11520315   7.485   3.840   2.394  0.1695 -0.3277  0.3100
  101MOL   N11620316   7.277   3.807   2.292  0.6301  0.5685 -0.8784
  101MOL   H11720317   7.317   3.555   2.160 -0.1456 -0.8754  1.3634
  101MOL   H11820318   7.458   3.499   2.114 -0.2224 -2.1148  0.3830
  101MOL   H11920319   7.580   3.713   2.196 -0.6235  2.1372  0.8953
  101MOL   H12020320   7.228   3.861   2.362 -0.1948 -0.7112 -0.4571
  101MOL   H12120321   7.225   3.756   2.222  0.3876  1.6021 -1.4650
  101MOL   C12220322   7.444   3.771   2.051 -0.0825 -0.0342 -0.8985
  101MOL   C12320323   7.532   3.720   1.934  0.6375  0.0203 -0.6028
  101MOL   C12420324   0.025   3.728   1.959  0.0753  0.3259  0.4740
  101MOL   O12520325   0.079   3.831   2.005  0.3644  0.2227 -0.1026
  101MOL   N12620326   0.104   3.627   1.928 -0.0882  0.3752 -0.7000
  101MOL   H12720327   7.465   3.878   2.065  2.1864 -0.5131 -0.3295
  101MOL   H12820328   7.340   3.753   2.027 -0.4352 -2.1069  1.8780
  101MOL   H12920329   7.519   3.611   1.930 -1.7374  0.2899 -1.1414
  101MOL   H13020330   0.205   3.624   1.938 -0.2071 -1.1606  0.2613
  101MOL   H13120331   0.066   3.545   1.883  0.5748  0.7453 -1.9607
  101MOL   C13220332   7.481   3.774   1.799  0.2949 -0.3146 -0.3061
  101MOL   C13320333   7.429   3.664   1.701  0.3989 -0.4647  0.0594
  101MOL   C13420334   7.291   3.612   1.738  0.2243 -0.0365 -0.4695
  101MOL   O13520335   7.279   3.554   1.849 -0.2091 -0.0062 -0.0510
  101MOL   N13620336   7.190   3.641   1.657  0.2703 -0.5026 -0.0264
  101MOL   H13720337   7.563   3.821   1.744  0.7268 -0.6514  0.0523
  101MOL   H13820338   7.409   3.854   1.812  0.4976 -0.1477 -0.2022
  101MOL   H13920339   7.411   3.727   1.613  1.9688 -1.9447 -1.3489
  101MOL   H14020340   7.210   3.688   1.570  2.7931  0.9791  1.3140
  101MOL   H14120341   7.100   3.599   1.675 -0.1341  0.7734  0.9504
  101MOL   C14220342   7.532   3.555   1.667 -0.0164  0.6094  0.0831
  101MOL   C14320343   7.554   3.523   1.518  0.7704 -0.7842  0.4782
  101MOL   C14420344   7.431   3.461   1.457 -0.5963  0.0255 -0.2113
  101MOL   O14520345   7.394   3.490   1.343 -0.0755 -0.1218 -0.1431
  101MOL   N14620346   7.365   3.366   1.522 -0.2665  0.2069 -0.1695
  101MOL   H14720347   7.511   3.468   1.730  0.0346 -0.2126 -1.0238
  101MOL   H14820348   7.632   3.582   1.700 -0.1472 -0.3058  1.2331
  101MOL   H14920349   7.579   3.609   1.456  0.8426 -0.0818  1.4757
  101MOL   H15020350   7.399   3.335   1.613 -0.6442 -1.0802 -0.4532
  101MOL   H15120351   7.285   3.320   1.481 -0.8091 -0.2691  1.3829
  101MOL   C15220352   0.013   3.427   1.492  0.4465  0.3103 -0.1448
  101MOL   C15320353   0.049   3.400   1.340 -0.0686  0.3157 -0.1115
  101MOL   C15420354   0.014   3.254   1.306  0.4328 -0.0363 -0.9274
  101MOL   O15520355   0.098   3.167   1.301  0.2843 -0.5299 -0.3819
  101MOL   N15620356   7.541   3.234   1.279 -0.5332 -0.2674 -0.3693
  101MOL   H15720357   0.001   3.335   1.549  0.4423 -0.9620 -2.1803
  101MOL   H15820358   0.104   3.459   1.544  1.2081 -2.5682  0.3485
  101MOL   H15920359   7.637   3.461   1.281  0.2230  0.5710 -0.1886
  101MOL   H16020360   7.479   3.313   1.284  2.7567  2.4549 -0.6710
  101MOL   H16120361   7.506   3.146   1.245 -1.7183 -0.9892  2.5521
  101MOL   C16220362   0.188   3.438   1.301 -0.2618 -0.6319  0.1636
  101MOL   C16320363   0.221   3.591   1.286 -0.4272 -0.2438  0.2775
  101MOL   C16420364   0.175   3.653   1.153  0.1722  0.6263 -0.3549
  101MOL   O16520365   0.095   3.600   1.076 -0.0969  0.3718  0.4636
  101MOL   N16620366   0.234   3.765   1.117  0.2216  0.0482 -0.2414
  101MOL   H16720367   0.194   3.393   1.202  0.6617 -2.6921  1.1364
  101MOL   H16820368   0.254   3.372   1.357  0.1227  0.3857  0.9099
  101MOL   H16920369   0.165   3.636   1.368  0.1939  2.6026 -0.8038
  101MOL   H17020370   0.205   3.805   1.029  1.6615 -0.6760 -1.0609
  101MOL   H17120371   0.310   3.807   1.170 -0.4447  0.4202  0.4313
  101MOL   C17220372   0.370   3.617   1.322 -0.4431  0.1807 -0.2189
  101MOL   C17320373   0.393   3.728   1.425  0.0949 -0.5174  0.6797
  101MOL   C17420374   0.544   3.752   1.439 -0.2517  0.4862  0.3096
  101MOL   O17520375   0.609   3.692   1.518 -0.1823  0.2478  0.1202
  101MOL   N17620376   0.599   3.843   1.358  0.4076  0.2949 -0.1578
  101MOL   H17720377   0.423   3.647   1.232  1.2086  1.5521  1.1713
  101MOL   H17820378   0.423   3.526   1.351  0.4445  1.1888  1.4140
  101MOL   H17920379   0.351   3.822   1.391  2.7458 -0.0910 -1.6463
  101MOL   H18020380   0.550   3.897   1.289 -1.7091  1.4953  2.1979
  101MOL   H18120381   0.699   3.842   1.344  0.4886 -1.0797  0.3334
  101MOL   C18220382   0.345   3.679   1.569  0.6393  0.6614  0.5100
  101MOL   C18320383   0.283   3.774   1.668  0.4133 -0.2523 -0.2355
  101MOL   C18420384   0.164   3.843   1.597  0.7893 -0.6797 -0.0684
  101MOL   O18520385   0.073   3.780   1.546  0.3877 -0.0591  0.0637
  101MOL   N18620386   0.183   3.974   1.574  0.2587  0.3134  0.4389
  101MOL   H18720387   0.415   3.624   1.632 -0.2644  0.0128  0.9627
  101MOL   H18820388   0.271   3.599   1.562  1.7839 -0.2699 -1.3542
  101MOL   H18920389   0.234   3.708   1.740 -2.0436  0.7181 -0.9737
  101MOL   H19020390   0.253   4.031   1.620  0.5055 -0.3169  0.8469
  101MOL   H19120391   0.104   4.010   1.524  0.3238 -1.8589 -1.2790
  101MOL   C19220392   0.392   3.863   1.730  0.0580  0.7288  0.4860
  101MOL   C19320393   0.361   3.908   1.873 -0.3110  0.5618 -0.4915
  101MOL   C19420394   0.455   4.000   1.946  0.2902 -0.5428 -0.7004
  101MOL   O19520395   0.566   3.966   1.984 -0.1518 -0.1351 -1.0335
  101MOL   N19620396   0.411   4.124   1.949 -0.2690  0.0184 -0.1903
  101MOL   H19720397   0.414   3.954   1.674 -0.2440  2.3293  2.8472
  101MOL   H19820398   0.487   3.811   1.727  0.3245  1.2162  0.3719
  101MOL   H19920399   0.258   3.937   1.894  0.0064  0.9563  0.5239
  101MOL   H20020400   0.444   4.195   2.012  0.2910 -0.1417 -0.2992
  101MOL   H20120401   0.318   4.143   1.916  0.0472  1.1150 -0.4627
  101MOL   H20220402   0.376   3.823   1.940 -0.4281  0.9657  0.0437
  102MOL     C120403   7.386   6.127   1.550 -0.3195 -0.7786  0.1090
  102MOL     C220404   7.496   6.196   1.635 -0.4446  0.9542  0.3310
  102MOL     C320405   7.582   6.083   1.686  0.4260 -0.6647  0.0520
  102MOL     O420406   7.529   5.992   1.742 -0.0313 -0.3815 -0.6298
  102MOL     N520407   0.055   6.089   1.671 -0.2935  0.2829 -0.0972
  102MOL     H620408   7.424   6.057   1.476 -0.7694  0.6121 -1.4580
  102MOL     H720409   7.312   6.078   1.614 -0.8888 -0.6491 -0.4469
  102MOL     H820410   7.550   6.252   1.559  0.2708  1.3009  1.0870
  102MOL     H920411   0.108   6.007   1.695 -0.1839  0.8056  1.4957
  102MOL    H1020412   0.102   6.167   1.625 -0.5779  1.2239  1.1812
  102MOL    H1120413   7.324   6.199   1.497 -1.8003 -1.9949  0.1635
  102MOL    C1220414   7.435   6.276   1.755 -0.1969 -0.5792 -0.0162
  102MOL    C1320415   7.490   6.416   1.785  0.7637  0.0644  0.1891
  102MOL    C1420416   7.632   6.402   1.826 -0.7604  0.4404 -0.0479
  102MOL    O1520417   0.002   6.351   1.931  0.3523  0.3754  0.5165
  102MOL    N1620418   0.072   6.447   1.748  0.5979  0.8550  0.7927
  102MOL    H1720419   7.442   6.216   1.846  0.2384  0.6664  0.7955
  102MOL    H1820420   7.330   6.292   1.731 -0.3865 -2.6217 -0.5846
  102MOL    H1920421   7.489   6.449   1.682  2.5179 -2.6103 -0.7395
  102MOL    H2020422   0.061   6.503   1.665  0.2739  1.0234  0.9493
  102MOL    H2120423   0.165   6.421   1.777  0.6011 -0.4067 -0.3167
  102MOL    C2220424   7.409   6.503   1.884 -0.0968 -0.1116 -0.5249
  102MOL    C2320425   7.433   6.657   1.882  0.1889 -0.0671  0.2428
  102MOL    C2420426   7.559   6.694   1.961 -0.1133  0.5628  0.3812
  102MOL    O2520427   7.577   6.660   2.078  0.2941 -0.0008  0.3192
  102MOL    N2620428   7.655   6.755   1.892 -0.0809  0.0654  0.1038
  102MOL    H2720429   7.415   6.461   1.984 -1.0174  3.8436  1.2633
  102MOL    H2820430   7.303   6.485   1.868 -0.2087  0.4455 -0.3852
  102MOL    H2920431   7.445   6.682   1.777  0.3927 -2.9102 -0.4523
  102MOL    H3020432   7.638   6.773   1.794 -0.9851  0.4603  0.3267
  102MOL    H3120433   0.083   6.785   1.938 -1.0200  2.1064  0.5544
  102MOL    C3220434   7.317   6.735   1.939 -0.1959 -0.7417 -0.1277
  102MOL    C3320435   7.205   6.778   1.841 -0.1866  0.4070  1.2020
  102MOL    C3420436   7.246   6.882   1.730  0.3127 -0.7040 -0.4421
  102MOL    O3520437   7.301   6.986   1.763 -0.4818 -0.8994  0.0900
  102MOL    N3620438   7.208   6.861   1.607  0.2707  0.4641 -0.1716
  102MOL    H3720439   7.353   6.825   1.988 -1.8853  0.1446 -0.4799
  102MOL    H3820440   7.285   6.679   2.026  1.1548  0.1430  0.9634
  102MOL    H3920441   7.167   6.691   1.788 -0.7866  0.3804  1.6724
  102MOL    H4020442   7.239   6.923   1.534  0.1345  2.5516  1.4702
  102MOL    H4120443   7.151   6.780   1.588 -1.7860  1.6760  0.6939
  102MOL    C4220444   7.083   6.830   1.917  0.3083  0.1360  0.4926
  102MOL    C4320445   6.940   6.835   1.853 -0.5521  0.2115  0.1843
  102MOL    C4420446   6.915   6.961   1.775  0.2561 -1.0090 -0.2381
  102MOL    O4520447   6.913   7.071   1.834  0.1672  0.1115  0.2576
  102MOL    N4620448   6.879   6.962   1.643  0.2336  0.5989 -0.0486
  102MOL    H4720449   7.109   6.928   1.957 -2.2336  0.7429  0.7422
  102MOL    H4820450   7.067   6.758   1.998  0.5568  0.8662  1.1891
  102MOL    H4920451   6.930   6.757   1.777  1.2023 -0.3965  0.5415
  102MOL    H5020452   6.877   6.880   1.585  1.4737  0.5985 -0.1084
  102MOL    H5120453   6.866   7.057   1.611 -1.0888  0.0962 -1.0357
  102MOL    C5220454   6.832   6.812   1.971  0.1389 -0.1395 -0.0437
  102MOL    C5320455   6.693   6.878   1.964 -0.3447  0.3841  0.2865
  102MOL    C5420456   6.628   6.878   2.099 -0.1286 -0.3058 -0.2460
  102MOL    O5520457   6.595   6.773   2.158  0.3165  0.2822  0.0737
  102MOL    N5620458   6.594   6.999   2.143  0.3683 -0.4239 -1.1588
  102MOL    H5720459   6.883   6.830   2.066  1.5170 -3.0836 -0.1950
  102MOL    H5820460   6.810   6.706   1.976  0.0140 -0.1026  0.1996
  102MOL    H5920461   6.700   6.981   1.929 -0.2754 -0.5733 -2.6474
  102MOL    H6020462   6.621   7.079   2.089 -3.1509  2.4480  1.0791
  102MOL    H6120463   6.526   7.017   2.215 -0.3566 -1.3736 -1.5982
  102MOL    C6220464   6.602   6.804   1.859  0.2384 -0.2980  0.0637
  102MOL    C6320465   6.479   6.877   1.811  0.8720 -0.4783  0.8714
  102MOL    C6420466   6.372   6.775   1.752 -0.2624 -0.5152  0.2326
  102MOL    O6520467   6.401   6.676   1.680 -0.0729 -0.2880  0.4992
  102MOL    N6620468   6.245   6.799   1.778  0.2056  0.0024  0.3706
  102MOL    H6720469   6.569   6.707   1.896 -0.0788 -0.4619 -0.6544
  102MOL    H6820470   6.658   6.774   1.770  1.5116  1.5193  0.2137
  102MOL    H6920471   6.424   6.913   1.898  0.7326  2.7702 -0.4730
  102MOL    H7020472   6.227   6.879   1.838 -1.9119 -0.4168  0.3492
  102MOL    H7120473   6.168   6.750   1.734  1.6993 -0.9387 -1.2609
  102MOL    C7220474   6.512   6.985   1.707 -0.9509  0.5010 -0.4680
  102MOL    C7320475   6.410   7.102   1.707 -0.1003  0.1762 -0.6995
  102MOL    C7420476   6.401   7.170   1.571  0.6703  0.1553  1.1477
  102MOL    O7520477   6.496   7.224   1.523  0.5994  0.6102  0.0527
  102MOL    N7620478   6.285   7.173   1.503  0.5061  0.0148  0.0109
  102MOL    H7720479   6.529   6.940   1.610 -0.0355  0.4621 -0.2920
  102MOL    H7820480   6.613   7.021   1.728 -0.3512 -0.1623 -2.1423
  102MOL    H7920481   6.310   7.059   1.714 -0.0923 -0.0369 -1.7493
  102MOL    H8020482   6.285   7.200   1.405  1.1507 -2.3341 -0.6843
  102MOL    H8120483   6.198   7.147   1.547  0.2518 -0.9675 -1.0194
  102MOL    C8220484   6.420   7.198   1.824 -0.0361  0.3095  0.1143
  102MOL    C8320485   6.299   7.227   1.915  0.3065  0.7903  0.1539
  102MOL    C8420486   6.265   7.110   2.008  0.4222 -0.2221  0.4819
  102MOL    O8520487   6.227   6.998   1.977 -0.3401 -0.5627 -0.2629
  102MOL    N8620488   6.286   7.133   2.136  0.1002 -0.2680  0.1534
  102MOL    H8720489   6.458   7.295   1.792 -0.7829  0.0798 -1.5104
  102MOL    H8820490   6.507   7.170   1.883  0.4651 -0.1436 -0.8333
  102MOL    H8920491   6.326   7.310   1.981  2.6635  0.7088 -0.6507
  102MOL    H9020492   6.334   7.219   2.160  1.2830  0.5470 -4.5664
  102MOL    H9120493   6.272   7.062   2.207  0.1062 -0.1662  0.2578
  102MOL    C9220494   6.177   7.297   1.842  0.1795  0.1687 -0.0634
  102MOL    C9320495   6.031   7.246   1.830 -0.0209 -0.1392 -0.1777
  102MOL    C9420496   6.026   7.126   1.737  0.6877  0.4077  0.0579
  102MOL    O9520497   6.049   7.131   1.621 -0.1261  0.3022  0.1166
  102MOL    N9620498   6.007   7.007   1.792 -0.2851  0.4268  0.0640
  102MOL    H9720499   6.204   7.316   1.738 -2.3219 -0.8590 -0.9331
  102MOL    H9820500   6.164   7.393   1.891 -3.2527 -0.8134  1.1165
  102MOL    H9920501   6.005   7.223   1.933 -0.7449  1.6006  0.0399
  102MOL   H10020502   6.009   6.920   1.741  0.4508 -0.8086  2.1257
  102MOL   H10120503   6.006   7.004   1.893  0.1475 -1.0716  0.0378
  102MOL   C10220504   5.931   7.353   1.773  0.6490 -0.5450 -1.1334
  102MOL   C10320505   5.855   7.421   1.892  0.2914 -0.5619  0.4100
  102MOL   C10420506   5.727   7.344   1.920 -0.0102 -0.1706 -0.0875
  102MOL   O10520507   5.626   7.351   1.852  0.2128  1.0073 -0.4288
  102MOL   N10620508   5.730   7.273   2.035 -0.1182  0.3847  0.6221
  102MOL   H10720509   5.865   7.305   1.701 -1.2239  0.1943  0.0581
  102MOL   H10820510   5.993   7.426   1.722  1.3386  1.3760  2.2806
  102MOL   H10920511   5.925   7.419   1.976  1.7775  0.6757 -0.7579
  102MOL   H11020512   5.815   7.260   2.089 -0.5433 -0.8117  1.0200
  102MOL   H11120513   5.656   7.213   2.069 -0.2760  1.8566  3.0561
  102MOL   C11220514   5.829   7.569   1.871  0.2501  0.1852  0.4740
  102MOL   C11320515   5.752   7.644   1.985 -0.4640 -0.4045  0.4710
  102MOL   C11420516   5.713   0.125   1.931 -0.3399 -0.3175  0.3320
  102MOL   O11520517   5.799   0.211   1.901  0.1977 -0.6271 -0.0575
  102MOL   N11620518   5.580   0.149   1.925  0.1026  0.1285 -0.3434
  102MOL   H11720519   5.768   7.570   1.781 -1.2905 -2.6163  1.4132
  102MOL   H11820520   5.918   7.627   1.849 -0.2779  1.1461  0.8599
  102MOL   H11920521   5.658   7.591   2.002 -0.6339 -0.5535 -0.8895
  102MOL   H12020522   5.542   0.243   1.917  0.6026  0.2725 -1.1079
  102MOL   H12120523   5.526   0.068   1.949 -0.8460 -0.3647 -3.8153
  102MOL   C12220524   5.840   7.646   2.113 -0.2028  0.8036  0.1565
  102MOL   C12320525   5.777   0.047   2.242 -0.0336  0.1718  0.7411
  102MOL   C12420526   5.648   7.634   2.293 -0.9231  0.1864 -0.2715
  102MOL   O12520527   5.548   7.644   2.228  0.2536 -0.8353  0.0894
  102MOL   N12620528   5.651   7.573   2.409 -0.3026 -0.3061 -0.4425
  102MOL   H12720529   5.932   0.042   2.085 -0.7310  1.9706  0.5945
  102MOL   H12820530   5.865   7.546   2.147 -0.0651  0.8996  0.3348
  102MOL   H12920531   5.859   0.017   2.306  0.7940  0.0099 -0.3740
  102MOL   H13020532   5.575   7.519   2.446 -0.6003 -0.5618 -1.4296
  102MOL   H13120533   5.739   7.573   2.459 -0.0149  0.1423 -0.9414
  102MOL   C13220534   5.772   0.201   2.242 -0.3016 -1.5116 -0.2975
  102MOL   C13320535   5.896   0.289   2.226 -0.1852  0.4948 -0.4152
  102MOL   C13420536   6.036   0.237   2.260  0.1325  0.2175  0.2338
  102MOL   O13520537   6.100   0.180   2.173  0.0042 -0.2418 -0.6708
  102MOL   N13620538   6.079   0.251   2.384  0.0291  0.1450  0.6179
  102MOL   H13720539   5.727   0.238   2.334  1.4978  0.8288 -0.3167
  102MOL   H13820540   5.701   0.234   2.167  0.5956 -2.7520 -1.7267
  102MOL   H13920541   5.906   0.304   2.118 -0.6951 -0.0319 -0.5411
  102MOL   H14020542   6.179   0.247   2.398  0.2727 -1.7043 -1.4265
  102MOL   H14120543   6.035   0.286   2.468 -1.2700  0.1987 -0.0718
  102MOL   C14220544   5.885   0.432   2.296  0.0245  0.4264 -0.0847
  102MOL   C14320545   5.769   0.521   2.249  0.0253 -0.1667 -0.5896
  102MOL   C14420546   5.778   0.569   2.111 -0.1119 -0.4510 -0.5666
  102MOL   O14520547   5.832   0.677   2.089 -0.1757  0.2532  0.0588
  102MOL   N14620548   5.724   0.494   2.013  0.0314 -0.6206  0.6859
  102MOL   H14720549   5.977   0.489   2.285 -0.8880  2.0353  0.5495
  102MOL   H14820550   5.863   0.415   2.401 -2.8285  3.7635 -0.0816
  102MOL   H14920551   5.677   0.463   2.253  0.5922 -1.3681 -3.7489
  102MOL   H15020552   5.695   0.399   2.033 -2.7654 -0.8290 -3.7603
  102MOL   H15120553   5.737   0.526   1.918  1.3439 -1.4752  0.5596
  102MOL   C15220554   5.734   0.633   2.352 -0.0141  0.5819  0.4167
  102MOL   C15320555   5.588   0.672   2.386 -0.4183 -0.5958 -0.2723
  102MOL   C15420556   5.521   0.565   2.475 -0.0932 -0.0704 -0.1480
  102MOL   O15520557   5.454   0.473   2.424  0.8453  0.0506 -0.2321
  102MOL   N15620558   5.531   0.577   2.609  0.1290 -0.0994  0.0486
  102MOL   H15720559   5.796   0.720   2.328  0.7089 -0.4105 -1.4057
  102MOL   H15820560   5.788   0.609   2.444 -1.4506 -3.1272  0.3797
  102MOL   H15920561   5.600   0.767   2.439  0.5859  0.0347 -1.5928
  102MOL   H16020562   5.597   0.638   2.653  1.9416 -2.6184  0.9414
  102MOL   H16120563   5.461   0.528   2.664 -0.7381  1.4579  0.3565
  102MOL   C16220564   5.503   0.714   2.264 -0.1760 -0.5941  0.2378
  102MOL   C16320565   5.370   0.791   2.281  0.2233 -0.6851  0.0057
  102MOL   C16420566   5.260   0.707   2.346 -0.1104  0.4614 -0.2438
  102MOL   O16520567   5.190   0.637   2.272 -0.1839 -0.1039 -0.0464
  102MOL   N16620568   5.240   0.712   2.471  0.2199 -0.1877 -0.4261
  102MOL   H16720569   5.492   0.625   2.201 -2.4377 -0.4172  0.3695
  102MOL   H16820570   5.568   0.781   2.208 -2.0721  1.8135  0.8761
  102MOL   H16920571   5.388   0.886   2.331 -1.1339 -1.0808  1.2930
  102MOL   H17020572   5.306   0.760   2.530  0.2443  1.1280 -1.5016
  102MOL   H17120573   5.181   0.644   2.517  0.4992 -0.5276 -0.5658
  102MOL   C17220574   5.316   0.846   2.145  0.3853  0.1879 -0.0985
  102MOL   C17320575   5.396   0.952   2.069 -0.1392  0.2669  0.3557
  102MOL   C17420576   5.353   1.093   2.102 -0.3332  0.3789 -0.2491
  102MOL   O17520577   5.240   1.135   2.073  0.1010 -0.3244  0.7877
  102MOL   N17620578   5.447   1.169   2.170 -0.0395 -0.2018  0.4919
  102MOL   H17720579   5.218   0.893   2.140 -0.8359 -2.3262 -0.1914
  102MOL   H17820580   5.318   0.761   2.078  0.4985  0.1079  0.0077
  102MOL   H17920581   5.497   0.942   2.108 -0.3021 -0.5336  0.5908
  102MOL   H18020582   5.423   1.261   2.203  1.1975 -0.4595  2.1399
  102MOL   H18120583   5.529   1.125   2.208 -0.0742 -0.7018 -0.0034
  102MOL   C18220584   5.405   0.932   1.913  0.3682 -0.0218  0.0113
  102MOL   C18320585   5.516   0.832   1.868 -0.6671 -0.7785  0.0740
  102MOL   C18420586   5.635   0.900   1.814  0.0824 -0.1605 -0.5663
  102MOL   O18520587   5.630   0.991   1.732  0.2055  0.2172  0.0917
  102MOL   N18620588   5.754   0.865   1.857  0.1515  0.1029 -0.0042
  102MOL   H18720589   5.409   1.027   1.859  2.1232  0.1659  0.4359
  102MOL   H18820590   5.309   0.891   1.884  1.0053 -0.5571 -1.3800
  102MOL   H18920591   5.534   0.769   1.956 -1.4325  0.2067  0.9601
  102MOL   H19020592   5.838   0.886   1.805 -0.0932 -3.1267 -1.8738
  102MOL   H19120593   5.765   0.797   1.931 -0.5966 -1.8796 -1.6430
  102MOL   C19220594   5.452   0.740   1.751 -0.4839 -0.2396  0.3384
  102MOL   C19320595   5.359   0.629   1.813  0.1719 -0.4534  0.1740
  102MOL   C19420596   5.409   0.517   1.899 -0.0186  0.3265  0.0157
  102MOL   O19520597   5.495   0.443   1.852  0.2604 -0.6156  0.1469
  102MOL   N19620598   5.343   0.479   2.015 -0.4780 -0.2085  0.4136
  102MOL   H19720599   5.539   0.691   1.708  0.6874  1.4261  0.7400
  102MOL   H19820600   5.397   0.792   1.673 -0.2497 -0.8886 -0.2608
  102MOL   H19920601   5.272   0.677   1.857  0.2837  0.6336 -0.7470
  102MOL   H20020602   5.291   0.546   2.069 -0.4041 -2.0412  2.8321
  102MOL   H20120603   5.361   0.390   2.060 -0.7392  0.1830  1.2833
  102MOL   H20220604   5.305   0.583   1.730 -1.0263  0.1117  0.6320
  103MOL     C120605   0.336   0.627   6.729  0.5126  0.1745 -0.1835
  103MOL     C220606   0.240   0.657   6.604 -0.1135  0.8515 -0.1644
  103MOL     C320607   0.196   0.805   6.601 -0.8098 -0.4629  0.2839
  103MOL     O420608   0.136   0.851   6.698  0.0003 -0.2315  0.3701
  103MOL     N520609   0.213   0.870   6.482  0.1941  0.4287 -0.4774
  103MOL     H620610   0.421   0.695   6.735  1.7357 -1.4109  0.8391
  103MOL     H720611   0.281   0.636   6.823  0.1958 -0.3486 -0.3176
  103MOL     H820612   0.288   0.633   6.509 -0.2248 -0.2667  0.0602
  103MOL     H920613   0.171   0.961   6.468  1.0530  0.7873 -0.7588
  103MOL    H1020614   0.262   0.819   6.410  1.4504  0.4078  0.3682
  103MOL    H1120615   0.392   0.533   6.731 -0.4085 -0.3639  0.6497
  103MOL    C1220616   0.119   0.561   6.611  0.2508  0.6877 -0.1411
  103MOL    C1320617   0.055   0.536   6.469  0.3563 -0.4661  0.0135
  103MOL    C1420618   7.626   0.648   6.422  0.3366  0.3737  0.8714
  103MOL    O1520619   7.526   0.679   6.479  0.0353 -0.0184  0.8716
  103MOL    N1620620   0.011   0.712   6.315 -0.2842  0.3762  0.1104
  103MOL    H1720621   0.038   0.588   6.678 -2.0657 -2.4497 -1.5281
  103MOL    H1820622   0.169   0.469   6.641 -0.9803  0.8562  2.5600
  103MOL    H1920623   0.137   0.520   6.398 -1.0397 -1.1788 -1.4654
  103MOL    H2020624   7.629   0.795   6.272  0.9695  1.2307  0.5964
  103MOL    H2120625   0.094   0.668   6.279  1.8986  0.2907  4.7939
  103MOL    C2220626   7.644   0.403   6.475  0.2720  0.8004  1.4237
  103MOL    C2320627   7.624   0.337   6.333  0.2635 -0.6847  0.6194
  103MOL    C2420628   7.493   0.378   6.261  0.7410 -0.2723  1.1490
  103MOL    O2520629   7.497   0.405   6.140 -0.3075  0.1722  0.4705
  103MOL    N2620630   7.375   0.372   6.338  0.5855  0.1829  0.5856
  103MOL    H2720631   7.548   0.405   6.527 -0.7541 -0.2124 -0.3667
  103MOL    H2820632   0.041   0.326   6.530  0.4253 -0.1664 -0.0362
  103MOL    H2920633   0.050   0.363   6.266 -2.4390 -0.9621 -2.9620
  103MOL    H3020634   7.297   0.392   6.278  0.1895 -0.0265  1.0290
  103MOL    H3120635   7.363   0.332   6.430  2.0360 -0.9410  0.3079
  103MOL    C3220636   7.638   0.178   6.334 -0.7644  0.0129 -0.3087
  103MOL    C3320637   0.007   0.108   6.200  0.3324  0.2763 -0.0839
  103MOL    C3420638   7.612   7.618   6.198 -0.2191 -0.2146  0.3620
  103MOL    O3520639   7.636   7.539   6.289  0.1681 -0.0079  0.1327
  103MOL    N3620640   7.539   7.583   6.087  0.2345 -0.0246 -0.1876
  103MOL    H3720641   7.541   0.143   6.369 -0.2090 -0.9644  0.2900
  103MOL    H3820642   0.054   0.148   6.410 -0.7615  0.8484  0.0258
  103MOL    H3920643   7.608   0.156   6.119  0.0619  0.2356  0.0784
  103MOL    H4020644   7.521   7.484   6.077  0.5766 -0.5979  3.8117
  103MOL    H4120645   7.527   7.644   6.008  0.5919 -0.7666 -0.8248
  103MOL    C4220646   0.154   0.126   6.157  0.6302  0.3727 -0.2501
  103MOL    C4320647   0.201   0.101   6.006 -0.4649 -0.8168 -0.9710
  103MOL    C4420648   0.139   0.199   5.909  0.3135 -0.0059  0.2253
  103MOL    O4520649   0.014   0.216   5.902  0.4386 -0.2191  0.0050
  103MOL    N4620650   0.216   0.263   5.823 -0.0420  0.4848 -0.2285
  103MOL    H4720651   0.221   0.070   6.222  0.5069 -0.8545 -1.1603
  103MOL    H4820652   0.182   0.226   6.190  1.6059 -0.0813  0.3140
  103MOL    H4920653   0.307   0.123   6.015 -0.4362 -1.8268  1.7005
  103MOL    H5020654   0.175   0.309   5.743  0.3335 -0.3667 -0.9121
  103MOL    H5120655   0.315   0.248   5.832 -0.1481  0.8201  1.7480
  103MOL    C5220656   0.197   7.621   5.950  0.1596  0.0769  0.0124
  103MOL    C5320657   0.299   7.523   6.021 -0.2204 -0.1648  0.2231
  103MOL    C5420658   0.442   7.567   6.002 -0.5737  0.0449 -0.0516
  103MOL    O5520659   0.499   7.564   5.897 -0.5901  0.5795 -0.2040
  103MOL    N5620660   0.506   7.608   6.113 -0.2767 -0.5968 -0.2420
  103MOL    H5720661   0.226   7.630   5.846 -2.2292 -0.9858 -0.7718
  103MOL    H5820662   0.096   7.580   5.948 -0.6660  1.8607  2.1910
  103MOL    H5920663   0.275   7.538   6.127 -1.3016  1.0696 -0.1683
  103MOL    H6020664   0.470   7.588   6.205 -0.3746 -2.5220 -0.6885
  103MOL    H6120665   0.597   7.652   6.110 -0.8817  0.6441 -0.8591
  103MOL    C6220666   0.271   7.377   5.974 -0.2910  0.3812  0.5429
  103MOL    C6320667   0.368   7.268   6.023  0.2892 -0.0544 -0.6164
  103MOL    C6420668   0.353   7.135   5.948  0.3683  0.4777  0.2471
  103MOL    O6520669   0.441   7.049   5.953 -0.5135  0.1758 -0.7028
  103MOL    N6620670   0.234   7.119   5.887  0.5354 -0.6430 -0.2281
  103MOL    H6720671   0.270   7.378   5.865 -1.8385  1.2539  0.5434
  103MOL    H6820672   0.164   7.355   5.981 -0.2091 -0.0146  0.5733
  103MOL    H6920673   0.471   7.300   6.004 -0.2103  1.3985 -0.9001
  103MOL    H7020674   0.177   7.201   5.877  0.5683 -0.5646  0.2368
  103MOL    H7120675   0.213   7.049   5.817  3.8871 -3.1366  1.1075
  103MOL    C7220676   0.347   7.242   6.177 -0.2493 -0.2826 -0.0197
  103MOL    C7320677   0.470   7.258   6.263 -0.5130  0.5035 -0.4252
  103MOL    C7420678   0.581   7.156   6.224  0.6381 -0.3789  0.0075
  103MOL    O7520679   0.573   7.039   6.263  0.3948  0.4040 -0.0266
  103MOL    N7620680   0.687   7.206   6.156 -0.0925 -0.8141 -0.1209
  103MOL    H7720681   0.315   7.138   6.187 -2.9956  0.2707 -2.2703
  103MOL    H7820682   0.264   7.303   6.213 -0.7744  0.1682 -1.9150
  103MOL    H7920683   0.511   7.359   6.254  1.5941 -0.3785 -1.0498
  103MOL    H8020684   0.703   7.303   6.135  2.1668 -0.6271  2.1686
  103MOL    H8120685   0.771   7.150   6.147 -0.0095 -0.5217 -1.2011
  103MOL    C8220686   0.438   7.253   6.414 -0.0507  0.4321  0.2512
  103MOL    C8320687   0.553   7.296   6.509  0.0812  0.4000 -0.2749
  103MOL    C8420688   0.502   7.259   6.654  0.9103  0.1327 -0.6854
  103MOL    O8520689   0.408   7.317   6.710  0.0743 -0.7319 -0.4295
  103MOL    N8620690   0.566   7.162   6.712  0.1994  0.3114 -0.9817
  103MOL    H8720691   0.416   7.149   6.438 -1.0170  1.2011  2.9098
  103MOL    H8820692   0.349   7.311   6.439 -0.1539  0.3676  0.0329
  103MOL    H8920693   0.635   7.229   6.483  1.4236  0.5370  3.3622
  103MOL    H9020694   0.646   7.118   6.669  0.0023 -1.8924  0.8141
  103MOL    H9120695   0.529   7.132   6.801  0.2916  1.2281 -0.6327
  103MOL    C9220696   0.611   7.441   6.486 -0.5534 -0.4129  0.1589
  103MOL    C9320697   0.537   7.570   6.535 -0.3836 -0.1019  0.5480
  103MOL    C9420698   0.400   7.596   6.465  0.1019  0.0354  0.3053
  103MOL    O9520699   0.405   7.613   6.343  0.6664  0.0486  0.5156
  103MOL    N9620700   0.277   7.588   6.522 -0.0248  0.2480  0.4096
  103MOL    H9720701   0.612   7.450   6.378 -2.6320  0.6768  0.1856
  103MOL    H9820702   0.715   7.445   6.519 -0.7085  0.6081  0.5629
  103MOL    H9920703   0.516   7.560   6.642 -2.7715 -1.0171  0.0362
  103MOL   H10020704   0.259   7.554   6.615  0.2393  0.6339  0.6020
  103MOL   H10120705   0.194   7.626   6.479  0.8193  3.5390  1.5459
  103MOL   C10220706   0.632   0.037   6.508  0.2371 -0.4740  0.3255
  103MOL   C10320707   0.608   0.160   6.603  0.0403 -0.8225  0.0139
  103MOL   C10420708   0.541   0.273   6.538  0.8738  0.8318  0.6667
  103MOL   O10520709   0.596   0.333   6.441  0.0485  0.3435  0.5462
  103MOL   N10620710   0.416   0.295   6.568 -0.0386  0.5569 -0.2091
  103MOL   H10720711   0.621   0.074   6.407 -1.1509  1.8810  1.2861
  103MOL   H10820712   0.732   7.652   6.504  0.1103 -0.7061 -0.4756
  103MOL   H10920713   0.546   0.134   6.689 -0.3011 -1.4674 -0.4208
  103MOL   H11020714   0.357   0.355   6.512  1.8783  1.8469 -0.8992
  103MOL   H11120715   0.391   0.280   6.664  0.0953 -1.3428 -0.4501
  103MOL   C11220716   0.746   0.197   6.655  0.4579  0.0989 -0.1123
  103MOL   C11320717   0.763   0.296   6.770  0.5014 -0.3926 -0.1387
  103MOL   C11420718   0.677   0.261   6.882 -0.3507  0.4055  0.1113
  103MOL   O11520719   0.587   0.343   6.914 -0.1398  0.5331  0.3046
  103MOL   N11620720   0.678   0.138   6.930 -0.0029 -0.2338  0.5482
  103MOL   H11720721   0.815   0.218   6.574 -0.2760 -2.9038 -1.6251
  103MOL   H11820722   0.785   0.101   6.688  0.9770  0.4085  0.1712
  103MOL   H11920723   0.862   0.273   6.809 -0.4554  0.2402  2.8128
  103MOL   H12020724   0.743   0.074   6.888  1.6983  0.6777  1.7415
  103MOL   H12120725   0.609   0.106   6.997 -1.5200 -2.7653 -2.1179
  103MOL   C12220726   0.759   0.450   6.728 -0.5860  0.2910 -0.1979
  103MOL   C12320727   0.849   0.499   6.615 -0.1691 -0.1685 -0.8700
  103MOL   C12420728   1.001   0.494   6.640  0.3167  0.1682  0.2096
  103MOL   O12520729   1.077   0.473   6.545  0.2095  0.7596  0.1998
  103MOL   N12620730   1.054   0.502   6.763 -0.3949 -0.0674  0.0708
  103MOL   H12720731   0.780   0.514   6.814 -4.0166  0.0266  0.9226
  103MOL   H12820732   0.658   0.467   6.691  1.0918  2.0867 -4.2552
  103MOL   H12920733   0.835   0.419   6.542 -1.2620  0.7716 -1.7096
  103MOL   H13020734   1.001   0.505   6.849 -1.2629 -1.2964 -0.4136
  103MOL   H13120735   1.155   0.498   6.766 -0.4366 -0.3819  1.2510
  103MOL   C13220736   0.807   0.617   6.531  0.0890  0.2141 -0.4356
  103MOL   C13320737   0.747   0.743   6.603  0.4544  0.6781  0.4536
  103MOL   C13420738   0.661   0.821   6.503 -0.4948  0.8617  0.0199
  103MOL   O13520739   0.543   0.843   6.528  1.1243 -0.0021  0.6401
  103MOL   N13620740   0.714   0.867   6.390 -0.1658 -0.0978 -0.0863
  103MOL   H13720741   0.737   0.582   6.455 -0.6954  0.6681  0.0774
  103MOL   H13820742   0.881   0.656   6.461 -0.0337  0.3041 -0.5150
  103MOL   H13920743   0.676   0.703   6.675  1.9618 -0.1997  1.4786
  103MOL   H14020744   0.804   0.836   6.357 -1.2830 -1.6897 -1.7432
  103MOL   H14120745   0.660   0.919   6.322 -2.0203 -1.8867 -0.0144
  103MOL   C14220746   0.853   0.827   6.681  0.4025 -0.4610 -0.6571
  103MOL   C14320747   0.794   0.912   6.803  0.5432 -1.0815  0.1685
  103MOL   C14420748   0.772   0.831   6.936 -0.5543 -0.6602 -0.0865
  103MOL   O14520749   0.677   0.761   6.959  0.2297  0.6091 -0.2405
  103MOL   N14620750   0.854   0.859   7.032  0.0560  0.1764  0.4273
  103MOL   H14720751   0.902   0.891   6.609 -1.1612  1.6729  0.1308
  103MOL   H14820752   0.928   0.754   6.713  2.1308  0.7211 -1.9689
  103MOL   H14920753   0.875   0.984   6.820 -0.1102  0.6149 -3.5572
  103MOL   H15020754   0.931   0.921   7.013 -1.0335  0.6785 -2.6470
  103MOL   H15120755   0.836   0.828   7.126 -0.3627  1.7286  0.8708
  103MOL   C15220756   0.668   1.002   6.768 -0.0926 -0.6613 -0.2847
  103MOL   C15320757   0.656   1.127   6.855 -0.9627 -1.3209  0.1180
  103MOL   C15420758   0.566   1.114   6.982  0.0391  0.5900 -0.0960
  103MOL   O15520759   0.452   1.059   6.987  0.2809  0.7036  0.1997
  103MOL   N15620760   0.623   1.169   7.092  0.1734 -0.7512  0.1782
  103MOL   H15720761   0.576   0.945   6.765  0.7128 -1.9897 -0.3474
  103MOL   H15820762   0.684   1.038   6.666  1.3152 -0.8408 -0.1452
  103MOL   H15920763   0.757   1.147   6.892 -0.1477  3.1206 -4.0178
  103MOL   H16020764   0.705   1.225   7.079 -0.4503 -0.1865 -1.4110
  103MOL   H16120765   0.574   1.169   7.181 -0.7500 -1.9010 -0.3095
  103MOL   C16220766   0.620   1.261   6.781 -0.4879 -0.5145  0.2264
  103MOL   C16320767   0.743   1.329   6.705  0.8722  0.3701  0.2311
  103MOL   C16420768   0.844   1.402   6.793  0.1684 -0.1097  0.0047
  103MOL   O16520769   0.965   1.393   6.782 -0.0034  0.6404  0.2558
  103MOL   N16620770   0.797   1.492   6.875 -0.3500  0.0676 -0.3035
  103MOL   H16720771   0.563   1.322   6.852  1.1622  1.0506  0.2280
  103MOL   H16820772   0.556   1.223   6.701  0.4109  1.7291 -1.5958
  103MOL   H16920773   0.801   1.247   6.663 -0.1677  0.0292 -0.5400
  103MOL   H17020774   0.858   1.551   6.930 -1.6550  0.7855  0.4046
  103MOL   H17120775   0.699   1.494   6.899 -0.2178 -4.8457  1.3020
  103MOL   C17220776   0.688   1.419   6.592 -0.1671  0.1403 -0.7650
  103MOL   C17320777   0.780   1.470   6.482  0.4086 -0.1609  0.3206
  103MOL   C17420778   0.685   1.560   6.402  1.0201  0.6854  0.5221
  103MOL   O17520779   0.589   1.511   6.341  0.0242 -0.4347 -0.2560
  103MOL   N17620780   0.703   1.685   6.395 -0.7110 -0.1733  0.5616
  103MOL   H17720781   0.632   1.496   6.644 -1.2813 -0.2280 -1.4133
  103MOL   H17820782   0.603   1.369   6.546  0.4087 -0.2497 -1.4143
  103MOL   H17920783   0.854   1.542   6.516  1.4785 -0.4667 -1.3358
  103MOL   H18020784   0.644   1.729   6.325  0.2819 -0.9409 -0.7858
  103MOL   H18120785   0.790   1.731   6.419  0.4366 -1.8628 -0.2946
  103MOL   C18220786   0.851   1.361   6.398  0.0380  0.5341  0.9592
  103MOL   C18320787   0.986   1.307   6.454  0.1047 -0.5458  0.5970
  103MOL   C18420788   1.100   1.415   6.458  0.6197  0.3643 -0.3429
  103MOL   O18520789   1.148   1.458   6.354  0.0595 -0.2594  0.5531
  103MOL   N18620790   1.127   1.462   6.575 -0.7586 -0.1789 -0.4639
  103MOL   H18720791   0.877   1.408   6.303 -0.4451  0.1985  0.6591
  103MOL   H18820792   0.781   1.279   6.381  0.1907  0.5986 -0.0155
  103MOL   H18920793   0.969   1.274   6.557  2.1676 -0.8262  0.8741
  103MOL   H19020794   1.071   1.439   6.656  1.4029 -0.2602  1.0403
  103MOL   H19120795   1.205   1.525   6.581 -0.2431 -0.5601 -2.6245
  103MOL   C19220796   1.036   1.175   6.387 -0.3726  0.2468  0.6653
  103MOL   C19320797   1.165   1.108   6.452 -0.1019  0.5573  0.0132
  103MOL   C19420798   1.150   1.045   6.594 -0.0831 -0.0721  0.1804
  103MOL   O19520799   1.149   0.919   6.600  0.4130 -0.0928 -0.1952
  103MOL   N19620800   1.126   1.130   6.693 -0.2575 -0.4236 -0.0401
  103MOL   H19720801   1.044   1.183   6.279 -2.6807 -1.8059  0.3034
  103MOL   H19820802   0.950   1.113   6.413  0.1958 -1.4330 -1.3311
  103MOL   H19920803   1.205   1.027   6.391 -2.1841  0.4132 -1.2082
  103MOL   H20020804   1.122   1.102   6.790 -1.5520  0.6443  0.2277
  103MOL   H20120805   1.127   1.230   6.678 -2.1187 -0.2375  0.8946
  103MOL   H20220806   1.239   1.188   6.448  1.1855 -0.6066  0.0217
  104MOL     C120807   0.491   0.473   0.602  0.1611  0.2652 -0.5401
  104MOL     C220808   0.495   0.600   0.523 -0.2474  0.3474 -0.3204
  104MOL     C320809   0.359   0.671   0.515 -0.5633  0.1642  0.1516
  104MOL     O420810   0.352   0.776   0.454  0.8832 -0.0383  0.3170
  104MOL     N520811   0.252   0.615   0.561 -0.2258 -0.7004 -0.0803
  104MOL     H620812   0.455   0.496   0.702 -0.9871 -1.9729 -0.4149
  104MOL     H720813   0.433   0.388   0.565 -0.6476  0.2031  0.8302
  104MOL     H820814   0.560   0.663   0.584  2.7534 -1.6010 -1.4388
  104MOL     H920815   0.158   0.650   0.548 -0.2862  0.1284  2.3318
  104MOL    H1020816   0.266   0.527   0.607 -0.8082 -0.5459  0.3990
  104MOL    H1120817   0.590   0.430   0.618  1.5825  3.4322 -0.3576
  104MOL    C1220818   0.547   0.585   0.381  0.5365  0.7526 -0.8718
  104MOL    C1320819   0.490   0.464   0.301  0.5857  0.2908 -0.4258
  104MOL    C1420820   0.592   0.346   0.290 -0.0949  0.8638 -0.5751
  104MOL    O1520821   0.708   0.359   0.303  0.0098 -0.5378 -0.8427
  104MOL    N1620822   0.539   0.227   0.262 -0.0291 -0.1233 -0.2321
  104MOL    H1720823   0.656   0.580   0.379  0.5735  1.6925 -2.4543
  104MOL    H1820824   0.520   0.671   0.318 -0.0064  1.6712  0.5938
  104MOL    H1920825   0.414   0.421   0.366  0.6119 -0.8835 -1.1705
  104MOL    H2020826   0.439   0.214   0.255  0.0406 -0.4659 -0.6118
  104MOL    H2120827   0.600   0.148   0.246  0.2165 -0.2403  1.2423
  104MOL    C2220828   0.417   0.496   0.162  0.5921  0.0699  0.4464
  104MOL    C2320829   0.264   0.468   0.153  0.6870 -0.1766  0.5636
  104MOL    C2420830   0.224   0.324   0.194 -0.3698  0.6122 -0.0998
  104MOL    O2520831   0.291   0.231   0.160 -0.1582 -0.1592  0.3510
  104MOL    N2620832   0.125   0.300   0.279 -0.2681  0.3048 -0.8725
  104MOL    H2720833   0.465   0.444   0.080  0.5424  0.8452 -0.0799
  104MOL    H2820834   0.428   0.603   0.142 -0.4954 -0.1890 -1.6809
  104MOL    H2920835   0.229   0.538   0.229  3.0567  0.5938  0.9879
  104MOL    H3020836   0.064   0.369   0.320 -1.4122 -1.0634 -0.2284
  104MOL    H3120837   0.104   0.206   0.307 -1.5890  0.3558 -1.6272
  104MOL    C3220838   0.210   0.528   0.019 -0.5842  0.2695 -0.0707
  104MOL    C3320839   0.062   0.576   0.031  0.3014  0.4802  0.2762
  104MOL    C3420840   7.636   0.579   7.555 -0.1227 -0.1036 -0.4965
  104MOL    O3520841   7.559   0.673   7.526  0.5157  0.4267 -0.1565
  104MOL    N3620842   0.001   0.482   7.466 -0.1822 -0.2500  0.4016
  104MOL    H3720843   0.215   0.452   7.598  1.0962  0.8397 -0.5427
  104MOL    H3820844   0.277   0.611   7.650  0.3163 -0.4452 -0.0795
  104MOL    H3920845   0.012   0.500   0.093  0.3462  0.9594  0.9079
  104MOL    H4020846   0.061   0.402   7.482 -0.7675 -0.7528  0.0876
  104MOL    H4120847   7.618   0.493   7.374 -2.6371 -0.7215  1.3608
  104MOL    C4220848   0.059   0.717   0.097  0.4069 -0.3829  0.3891
  104MOL    C4320849   7.648   0.735   0.235  0.5692  0.0750 -0.1866
  104MOL    C4420850   7.495   0.725   0.240  0.2879  0.3753  0.1966
  104MOL    O4520851   7.425   0.727   0.335 -0.3113 -0.1408 -0.2439
  104MOL    N4620852   7.428   0.694   0.128 -0.0272 -0.6394 -0.4987
  104MOL    H4720853   0.008   0.790   0.034  0.5172 -0.9081 -0.3077
  104MOL    H4820854   0.163   0.748   0.102 -0.5058  2.8642  0.4338
  104MOL    H4920855   0.024   0.647   0.290 -0.7292 -0.9829 -1.0862
  104MOL    H5020856   7.328   0.695   0.137  0.0841 -0.9135  0.8399
  104MOL    H5120857   7.475   0.683   0.039  4.1114 -0.2822  1.5166
  104MOL    C5220858   0.045   0.861   0.310 -0.8306  0.1548 -0.4234
  104MOL    C5320859   7.624   0.931   0.432 -0.4064  0.2151 -0.3118
  104MOL    C5420860   0.046   1.059   0.453  0.5526  0.6931 -0.4893
  104MOL    O5520861   0.148   1.073   0.528 -0.4276  0.8130  0.2641
  104MOL    N5620862   0.005   1.157   0.381  0.2635 -0.1536  0.1101
  104MOL    H5720863   0.059   0.937   0.233  0.2421  0.9240  0.5085
  104MOL    H5820864   0.145   0.825   0.335 -0.6094  1.8849  1.3226
  104MOL    H5920865   7.525   0.956   0.394  0.2543 -1.3841 -3.2050
  104MOL    H6020866   7.574   1.145   0.332  0.4042 -1.5029  0.1879
  104MOL    H6120867   0.056   1.242   0.364  0.3999 -0.6019 -1.7540
  104MOL    C6220868   7.624   0.840   0.559 -0.5335 -0.8074 -0.8407
  104MOL    C6320869   7.533   0.884   0.674 -0.2405  0.2904 -0.1418
  104MOL    C6420870   7.547   0.781   0.795  0.2249  0.0124  0.1055
  104MOL    O6520871   7.486   0.676   0.796 -0.2539  0.2454 -0.1406
  104MOL    N6620872   7.631   0.800   0.891 -0.1269  0.1083 -0.2729
  104MOL    H6720873   0.067   0.828   0.601 -1.3010  0.7545  1.5689
  104MOL    H6820874   7.595   0.743   0.519  1.1559 -1.9096  0.5530
  104MOL    H6920875   7.576   0.979   0.704  1.5933 -0.6223  0.2235
  104MOL    H7020876   7.627   0.745   0.976 -1.7578 -0.1511 -0.4883
  104MOL    H7120877   0.019   0.890   0.898 -0.3614  0.2786 -0.8790
  104MOL    C7220878   7.385   0.890   0.630 -0.1566 -0.3380 -0.4569
  104MOL    C7320879   7.288   0.941   0.734  1.0133  0.4108  0.4425
  104MOL    C7420880   7.153   0.913   0.675 -0.1114  0.4486 -0.1666
  104MOL    O7520881   7.130   0.936   0.556  0.1569 -0.4292 -0.4192
  104MOL    N7620882   7.068   0.840   0.746  0.0032  0.1906  0.1173
  104MOL    H7720883   7.342   0.793   0.606  1.8767 -1.8229  1.6600
  104MOL    H7820884   7.373   0.955   0.544  1.1108  0.0151 -0.3839
  104MOL    H7920885   7.295   0.882   0.826  2.0381  0.7165  0.5695
  104MOL    H8020886   6.984   0.802   0.704 -0.8083 -0.6447  2.3814
  104MOL    H8120887   7.093   0.819   0.842 -1.1283 -0.9684  0.1874
  104MOL    C8220888   7.318   1.089   0.768  0.3305 -0.3542  0.1975
  104MOL    C8320889   7.238   1.181   0.860  0.4892  0.4504  0.0001
  104MOL    C8420890   7.237   1.144   1.011 -0.4802 -0.0427  0.4174
  104MOL    O8520891   7.227   1.029   1.060  0.2871  0.2568 -0.7535
  104MOL    N8620892   7.236   1.246   1.097 -0.1779  0.1499 -0.2924
  104MOL    H8720893   7.355   1.141   0.680 -0.6033  0.3093  0.1962
  104MOL    H8820894   7.411   1.077   0.824 -1.2914 -0.6346  2.9267
  104MOL    H8920895   7.296   1.273   0.855 -0.6541  1.1589 -0.6299
  104MOL    H9020896   7.235   1.338   1.056  0.7226  0.2346 -0.1274
  104MOL    H9120897   7.244   1.234   1.197 -0.3460 -0.2997 -0.3298
  104MOL    C9220898   7.098   1.213   0.800  0.6013  0.0150  0.0495
  104MOL    C9320899   7.093   1.339   0.714  0.3323 -0.7488 -0.3893
  104MOL    C9420900   7.096   1.466   0.803 -0.5415  0.4328 -0.0908
  104MOL    O9520901   6.999   1.496   0.876  0.6090  0.4046  0.3391
  104MOL    N9620902   7.209   1.536   0.799 -0.0616 -0.5456  0.7033
  104MOL    H9720903   7.024   1.214   0.880 -0.0424 -1.5754 -0.4985
  104MOL    H9820904   7.055   1.123   0.755 -0.2258  0.3682  0.1224
  104MOL    H9920905   7.185   1.343   0.656  0.7385 -0.7487  0.2498
  104MOL   H10020906   7.217   1.617   0.858  1.6944 -0.3892  0.2737
  104MOL   H10120907   7.281   1.510   0.733 -1.2982 -0.2089 -0.8095
  104MOL   C10220908   6.977   1.336   0.611  0.2074 -0.0024 -0.9685
  104MOL   C10320909   6.989   1.230   0.496 -0.6453 -0.0247 -0.4921
  104MOL   C10420910   7.100   1.275   0.399  0.4949 -0.0222  0.5640
  104MOL   O10520911   7.066   1.366   0.323  0.5778  0.5626  0.2628
  104MOL   N10620912   7.205   1.193   0.392  1.2737  0.2162 -0.0542
  104MOL   H10720913   6.955   1.434   0.569 -4.0820 -1.9215 -3.6158
  104MOL   H10820914   6.886   1.323   0.670 -0.1996 -0.8527 -1.7635
  104MOL   H10920915   7.010   1.135   0.545  0.1969 -0.8813 -2.4479
  104MOL   H11020916   7.264   1.197   0.310  1.0261  1.5422 -0.1712
  104MOL   H11120917   7.199   1.103   0.439 -0.8535 -0.0077 -0.7097
  104MOL   C11220918   6.850   1.218   0.434  0.0490  0.2797  0.2485
  104MOL   C11320919   6.739   1.135   0.505  0.1721  0.3957 -0.0657
  104MOL   C11420920   6.777   0.983   0.506 -0.5722  0.6625 -0.6033
  104MOL   O11520921   6.874   0.942   0.437  0.0861  0.3244 -0.6195
  104MOL   N11620922   6.705   0.905   0.583 -0.7126  0.8893 -0.0984
  104MOL   H11720923   6.864   1.179   0.333 -0.3059  0.4103  0.1452
  104MOL   H11820924   6.810   1.319   0.423 -0.7272  0.1776  1.9757
  104MOL   H11920925   6.733   1.160   0.611  0.9139 -1.4136  0.4289
  104MOL   H12020926   6.628   0.944   0.635 -1.0743 -0.1616  0.1662
  104MOL   H12120927   6.743   0.813   0.600  0.5809  1.3865 -0.1681
  104MOL   C12220928   6.600   1.166   0.437  0.2065  0.2187  0.6283
  104MOL   C12320929   6.492   1.233   0.526  0.3956 -0.0852  0.5196
  104MOL   C12420930   6.450   1.137   0.639  0.3014 -0.1452 -0.4505
  104MOL   O12520931   6.422   1.021   0.618  0.0277 -0.7681 -0.3117
  104MOL   N12620932   6.432   1.185   0.759 -0.0431  0.9880  0.0401
  104MOL   H12720933   6.563   1.068   0.410  0.8115 -0.8127  3.3751
  104MOL   H12820934   6.602   1.218   0.341  0.5435 -1.4678 -0.2997
  104MOL   H12920935   6.543   1.319   0.569  2.1325  1.1564 -3.8476
  104MOL   H13020936   6.405   1.133   0.841 -1.5121  2.2635  0.3701
  104MOL   H13120937   6.433   1.286   0.755 -0.2123  0.9976  0.2524
  104MOL   C13220938   6.372   1.283   0.442  0.1867  0.1952  0.2067
  104MOL   C13320939   6.284   1.170   0.380 -0.5964 -0.2400  0.0823
  104MOL   C13420940   6.349   1.071   0.275 -0.1171  0.2890 -0.2524
  104MOL   O13520941   6.405   1.121   0.179 -0.0160  0.2535 -0.1243
  104MOL   N13620942   6.340   0.940   0.290  0.0764 -0.0711 -0.5104
  104MOL   H13720943   6.396   1.357   0.365  0.4963 -0.4023 -0.2702
  104MOL   H13820944   6.306   1.335   0.511 -0.7679 -2.0026  0.9646
  104MOL   H13920945   6.260   1.104   0.463 -1.8154  0.8933  0.6526
  104MOL   H14020946   6.386   0.876   0.226 -1.4424  0.5523 -2.3016
  104MOL   H14120947   6.261   0.901   0.340  0.1420 -0.4375 -0.6868
  104MOL   C14220948   6.149   1.228   0.328  0.7928  0.6072  0.3511
  104MOL   C14320949   6.057   1.143   0.242  0.5641  0.1671 -0.1011
  104MOL   C14420950   6.090   1.153   0.089  0.7217  0.2115  0.2012
  104MOL   O14520951   6.121   1.260   0.031  0.0217  0.8139  0.1222
  104MOL   N14620952   6.105   1.036   0.030 -0.3113  0.2062  0.3100
  104MOL   H14720953   6.175   1.318   0.272 -0.8849  1.5368  1.0028
  104MOL   H14820954   6.101   1.272   0.416 -1.0751 -2.2459  0.8187
  104MOL   H14920955   6.060   1.042   0.284 -0.3326  0.1712 -0.0238
  104MOL   H15020956   6.143   1.018   7.596  2.3229  1.2242  1.1629
  104MOL   H15120957   6.094   0.949   0.079  1.9627  0.8802  2.0986
  104MOL   C15220958   5.904   1.182   0.283 -0.2725 -0.2832  0.7842
  104MOL   C15320959   5.799   1.078   0.243 -0.2805 -0.1947 -0.4744
  104MOL   C15420960   5.773   1.076   0.090 -0.4494 -0.7684 -0.1664
  104MOL   O15520961   5.725   1.170   0.026  0.4187  0.0782  0.1257
  104MOL   N15620962   5.806   0.970   0.025  0.4106  0.5062 -0.2394
  104MOL   H15720963   5.875   1.261   0.214 -0.7374 -1.1662 -0.0412
  104MOL   H15820964   5.890   1.216   0.386  2.2790  2.7525  0.2056
  104MOL   H15920965   5.856   0.986   0.256  1.5395  0.6040 -2.5113
  104MOL   H16020966   5.781   0.951   7.586  2.4427 -4.0604 -0.0127
  104MOL   H16120967   5.852   0.892   0.071 -0.8340  0.5227  1.0542
  104MOL   C16220968   5.660   1.080   0.317  0.6659 -0.3160 -0.2648
  104MOL   C16320969   5.558   1.188   0.295  0.0356 -0.1421  0.6533
  104MOL   C16420970   5.614   1.327   0.304  0.5210 -0.2045  0.3214
  104MOL   O16520971   5.623   1.386   0.410 -0.4671 -0.1272 -0.0872
  104MOL   N16620972   5.658   1.390   0.194 -0.2398  0.1940  0.0431
  104MOL   H16720973   5.683   1.072   0.423 -0.8192 -5.3633 -0.1917
  104MOL   H16820974   5.617   0.980   0.307  1.8540 -0.8727  0.1074
  104MOL   H16920975   5.520   1.179   0.193 -0.5055  1.5966  0.6740
  104MOL   H17020976   5.706   1.478   0.199  0.1200  0.1882 -2.5617
  104MOL   H17120977   5.674   1.338   0.109  2.5084  0.9229  0.0557
  104MOL   C17220978   5.429   1.167   0.388  0.2646  0.0897  0.0588
  104MOL   C17320979   5.289   1.207   0.327 -0.7997  0.1866 -0.4811
  104MOL   C17420980   5.269   1.356   0.337  0.1215  0.2897 -0.2353
  104MOL   O17520981   5.237   1.413   0.443 -0.3849 -0.1945  0.5094
  104MOL   N17620982   5.292   1.432   0.229 -0.1674 -0.2886 -0.4374
  104MOL   H17720983   5.443   1.206   0.489  0.3379 -0.0189  0.0914
  104MOL   H17820984   5.436   1.062   0.419 -1.9850  0.1808  0.9218
  104MOL   H17920985   5.286   1.173   0.223  0.0331 -1.2689 -0.0501
  104MOL   H18020986   5.302   1.533   0.235 -1.3860 -0.1186 -1.1718
  104MOL   H18120987   5.336   1.388   0.149  0.1578  1.3828 -1.2066
  104MOL   C18220988   5.172   1.135   0.397 -0.4713 -0.0660 -0.3766
  104MOL   C18320989   5.168   0.981   0.374  0.2372 -0.1387  0.2492
  104MOL   C18420990   5.183   0.949   0.226 -0.1372  0.1918 -0.6632
  104MOL   O18520991   5.089   0.968   0.147  0.4343 -0.3997  0.4461
  104MOL   N18620992   5.301   0.906   0.182 -0.0023  0.7241  0.2114
  104MOL   H18720993   5.087   1.180   0.346  0.3464  0.3136 -1.4169
  104MOL   H18820994   5.166   1.172   0.500 -0.0013  0.5249 -0.5625
  104MOL   H18920995   5.245   0.922   0.423  1.6210  3.1331  2.1613
  104MOL   H19020996   5.316   0.880   0.086 -0.9781  1.0939 -0.0500
  104MOL   H19120997   5.378   0.922   0.244 -0.2105  1.2837  0.3287
  104MOL   C19220998   5.031   0.931   0.431  0.4856 -0.3334 -0.4064
  104MOL   C19320999   4.990   0.783   0.416 -0.3934  0.6242  0.5634
  104MOL   C19421000   4.855   0.754   0.470  0.4998 -0.3183 -0.3621
  104MOL   O19521001   4.840   0.712   0.585  0.5096  0.1487 -0.2861
  104MOL   N19621002   4.762   0.775   0.382 -0.1847  0.0870  0.0776
  104MOL   H19721003   4.954   0.996   0.389  0.6665 -1.5620 -2.6548
  104MOL   H19821004   5.028   0.945   0.540 -0.2548 -1.2518 -0.2995
  104MOL   H19921005   4.985   0.768   0.309 -1.6589  2.9493  0.2507
  104MOL   H20021006   4.790   0.801   0.288 -0.4612  0.2600  0.0428
  104MOL   H20121007   4.668   0.761   0.416  0.5296 -1.8686  1.2855
  104MOL   H20221008   5.063   0.712   0.455 -0.6778  0.8673  1.5667
  105MOL     C121009   6.645   2.453   6.873 -0.4369 -0.7884  0.3548
  105MOL     C221010   6.522   2.521   6.812 -1.4035 -0.7376 -0.1179
  105MOL     C321011   6.562   2.655   6.747 -0.2670  0.0248  0.9005
  105MOL     O421012   6.597   2.749   6.819  0.3996  0.3886 -0.2435
  105MOL     N521013   6.568   2.661   6.615  0.2656  0.8903 -0.4979
  105MOL     H621014   6.640   2.346   6.894 -0.2272 -0.7950  0.3773
  105MOL     H721015   6.734   2.469   6.813  0.7275  0.2451  2.2945
  105MOL     H821016   6.489   2.449   6.738 -0.6094 -1.9185  0.6658
  105MOL     H921017   6.604   2.749   6.583  2.2048  0.7747  1.2593
  105MOL    H1021018   6.549   2.581   6.556  3.3235 -0.5700  0.3662
  105MOL    H1121019   6.680   2.493   6.969 -1.4555  1.0100 -0.0018
  105MOL    C1221020   6.398   2.535   6.908 -0.3158 -0.1058 -0.2507
  105MOL    C1321021   6.359   2.414   7.005 -0.9143  0.1659 -0.1563
  105MOL    C1421022   6.339   2.275   6.930 -0.2123  0.2290  0.2319
  105MOL    O1521023   6.411   2.178   6.954 -0.1465 -0.1117 -0.0218
  105MOL    N1621024   6.235   2.268   6.846 -0.0815  0.0298 -0.2761
  105MOL    H1721025   6.310   2.573   6.856 -0.5250  0.4583  0.5060
  105MOL    H1821026   6.425   2.617   6.975  2.9556 -0.8107 -0.6257
  105MOL    H1921027   6.446   2.391   7.067  0.5236 -1.7934 -2.7890
  105MOL    H2021028   6.171   2.347   6.843 -0.9488 -0.6395  0.2717
  105MOL    H2121029   6.221   2.184   6.792  0.1971  0.4847 -1.0622
  105MOL    C2221030   6.241   2.450   7.106 -0.2042 -0.0809 -0.0248
  105MOL    C2321031   6.241   2.380   7.247 -0.5402 -0.7744 -0.3518
  105MOL    C2421032   6.118   2.292   7.256  0.5064  0.3758 -0.1673
  105MOL    O2521033   6.005   2.341   7.251  0.7791 -0.1720  0.4838
  105MOL    N2621034   6.136   2.161   7.274 -0.0278  0.0611  0.2108
  105MOL    H2721035   6.156   2.422   7.045  0.2312 -1.0348 -0.1998
  105MOL    H2821036   6.237   2.558   7.121 -0.8498 -0.2852  1.2941
  105MOL    H2921037   6.330   2.316   7.252 -1.6944 -2.6185 -2.3775
  105MOL    H3021038   6.233   2.135   7.279 -0.4327 -2.2251 -2.6817
  105MOL    H3121039   6.064   2.091   7.263  0.2514 -0.2748  0.5047
  105MOL    C3221040   6.240   2.480   7.363  0.6918 -0.9045  0.0135
  105MOL    C3321041   6.301   2.438   7.499  0.5500  0.9640 -0.4590
  105MOL    C3421042   6.450   2.426   7.470  0.8445  0.6246 -0.1573
  105MOL    O3521043   6.493   2.326   7.416 -0.2520 -0.2483  0.9662
  105MOL    N3621044   6.534   2.521   7.505  0.3625 -0.4612 -0.1234
  105MOL    H3721045   6.139   2.518   7.372  1.3350  1.1897 -1.3271
  105MOL    H3821046   6.303   2.563   7.331  1.4241 -1.2336  0.5826
  105MOL    H3921047   6.298   2.525   7.565  1.5902  1.2989 -0.8498
  105MOL    H4021048   6.499   2.610   7.535  0.1132 -0.6024  0.0100
  105MOL    H4121049   6.631   2.493   7.497  1.1262  1.7919  1.1218
  105MOL    C4221050   6.238   2.310   7.572  0.2194 -0.2948 -0.0335
  105MOL    C4321051   6.296   2.284   0.057  0.2449 -0.1741 -0.6461
  105MOL    C4421052   6.231   2.166   0.116  0.2654  0.0352 -0.0906
  105MOL    O4521053   6.130   2.171   0.187 -0.0602 -0.2879  0.0513
  105MOL    N4621054   6.289   2.048   0.105  0.0739  0.4246  0.0345
  105MOL    H4721055   6.231   2.230   7.499 -1.3275  0.7123 -1.0283
  105MOL    H4821056   6.133   2.334   7.586  0.5497  0.7367  0.8147
  105MOL    H4921057   6.397   2.249   0.034  0.3861 -1.0067  1.1157
  105MOL    H5021058   6.354   2.029   0.030 -0.2270 -0.0149 -0.1219
  105MOL    H5121059   6.265   1.970   0.165  2.5626 -0.6806 -0.3384
  105MOL    C5221060   6.313   2.399   0.167 -0.2212 -0.2857 -0.6748
  105MOL    C5321061   6.441   2.387   0.254  0.9962  0.4306 -0.5555
  105MOL    C5421062   6.425   2.264   0.354  0.0529 -1.0246 -0.0172
  105MOL    O5521063   6.326   2.258   0.425 -0.2094  0.5124  0.3664
  105MOL    N5621064   6.503   2.163   0.355 -0.3017  0.0476 -0.1746
  105MOL    H5721065   6.225   2.403   0.231 -1.1324  1.8222 -2.0287
  105MOL    H5821066   6.319   2.495   0.117 -2.1255  1.2455  1.8817
  105MOL    H5921067   6.518   2.365   0.181  1.3944 -0.3394  0.0922
  105MOL    H6021068   6.477   2.084   0.412 -3.2728  1.1725  0.1117
  105MOL    H6121069   6.590   2.172   0.304 -0.1346  2.9406  0.5161
  105MOL    C6221070   6.485   2.517   0.321 -0.1527  0.1671 -0.1167
  105MOL    C6321071   6.642   2.527   0.346 -0.4675 -0.1514 -0.1399
  105MOL    C6421072   6.672   2.449   0.474 -0.1875  0.2757 -0.8804
  105MOL    O6521073   6.628   2.469   0.585  0.3872  0.3735 -0.1407
  105MOL    N6621074   6.759   2.347   0.465 -0.1178  0.6179 -0.2348
  105MOL    H6721075   6.431   2.545   0.411  1.6608 -0.6967  1.2702
  105MOL    H6821076   6.471   2.593   0.243 -0.1619  0.5430  0.2482
  105MOL    H6921077   6.697   2.474   0.269 -1.6206 -0.7796 -0.5474
  105MOL    H7021078   6.817   2.347   0.383  2.2156  0.0838  1.3678
  105MOL    H7121079   6.806   2.307   0.545  0.7794  0.4603 -0.8307
  105MOL    C7221080   6.678   2.679   0.352 -0.5409 -0.1033 -0.4826
  105MOL    C7321081   6.831   2.700   0.352 -0.6092 -0.8232 -0.3218
  105MOL    C7421082   6.890   2.693   0.496  0.1796  1.4006 -0.3753
  105MOL    O7521083   6.864   2.772   0.581 -0.3042  0.0185  0.4312
  105MOL    N7621084   6.972   2.596   0.533  0.3131  0.2722 -0.7533
  105MOL    H7721085   6.644   2.736   0.438  1.3478 -1.2117  1.0239
  105MOL    H7821086   6.633   2.726   0.264 -1.1217 -0.0853 -0.1822
  105MOL    H7921087   6.875   2.614   0.301  2.7830 -0.2945  1.5444
  105MOL    H8021088   6.993   2.526   0.463  4.0696  0.3221  0.2347
  105MOL    H8121089   7.012   2.588   0.626 -0.9398  2.0816 -0.0361
  105MOL    C8221090   6.878   2.840   0.293  0.1909 -0.4239 -0.8029
  105MOL    C8321091   6.849   2.876   0.143 -0.5895 -0.7791 -0.0402
  105MOL    C8421092   6.866   2.757   0.057 -0.4791 -1.4691  0.5171
  105MOL    O8521093   6.978   2.699   0.049  0.0141  1.0185 -0.0612
  105MOL    N8621094   6.757   2.715   7.653 -0.5015 -0.3614 -0.2852
  105MOL    H8721095   6.983   2.842   0.322 -0.3194 -2.0732  1.3015
  105MOL    H8821096   6.842   2.929   0.344  2.1426  1.4632 -2.5978
  105MOL    H8921097   6.748   2.911   0.124 -1.0559 -2.1638 -0.1044
  105MOL    H9021098   6.767   2.627   7.604  1.0243 -1.0779  1.2588
  105MOL    H9121099   6.669   2.764   0.003 -1.2378 -1.2180 -3.0899
  105MOL    C9221100   6.950   2.988   0.104  0.3901  0.0901  0.5994
  105MOL    C9321101   6.956   3.047   7.615  0.1459 -0.2683 -0.1655
  105MOL    C9421102   7.068   2.986   7.536  0.1762  0.1351  0.3876
  105MOL    O9521103   7.186   2.985   7.573 -0.2950  0.1442 -0.2142
  105MOL    N9621104   7.037   2.925   7.421  0.4787 -0.4629 -0.1613
  105MOL    H9721105   7.045   2.944   0.135 -0.1413 -1.3877  0.1632
  105MOL    H9821106   6.936   3.072   0.171 -2.5858  1.5252 -1.7185
  105MOL    H9921107   6.865   3.018   7.562 -0.6510  1.5716  0.1297
  105MOL   H10021108   7.101   2.868   7.368 -0.2337 -0.5008 -0.9966
  105MOL   H10121109   6.944   2.938   7.382 -0.9566 -0.5406  3.0973
  105MOL   C10221110   6.975   3.202   7.604 -0.3197 -0.7068 -0.6125
  105MOL   C10321111   6.843   3.281   7.622 -0.6132 -0.7089 -0.3016
  105MOL   C10421112   6.732   3.242   7.527 -0.4314  0.0976  0.7369
  105MOL   O10521113   6.620   3.223   7.567 -0.0497  0.0664 -0.1915
  105MOL   N10621114   6.764   3.247   7.399  0.1729 -0.3271  0.7948
  105MOL   H10721115   7.017   3.226   7.506 -0.5932 -1.2520 -0.8650
  105MOL   H10821116   7.058   3.230   0.012 -0.0278  1.3190 -1.8247
  105MOL   H10921117   6.814   3.256   0.067 -0.9360  0.6488 -0.0565
  105MOL   H11021118   6.688   3.245   7.333  2.4784 -2.0365 -1.8636
  105MOL   H11121119   6.855   3.273   7.365 -0.8753  2.0577 -0.3316
  105MOL   C11221120   6.878   3.433   7.625 -0.1260  0.1844  0.3537
  105MOL   C11321121   6.767   3.518   0.032  0.4910 -0.5199 -0.5265
  105MOL   C11421122   6.820   3.665   0.039 -0.4151 -0.1070  0.3703
  105MOL   O11521123   6.932   3.690   0.078 -0.5553  0.5103  0.7247
  105MOL   N11621124   6.742   3.764   0.003  0.2096  0.4562 -0.5639
  105MOL   H11721125   6.904   3.479   7.530 -0.4358 -0.3376  0.0088
  105MOL   H11821126   6.964   3.442   0.033  0.4216  1.1160 -0.4976
  105MOL   H11921127   6.678   3.528   7.627 -1.0978  0.5090  1.8493
  105MOL   H12021128   6.759   3.859   0.033 -0.3581  0.1165  0.8486
  105MOL   H12121129   6.651   3.736   7.625 -0.3070  2.8118 -1.2037
  105MOL   C12221130   6.702   3.465   0.162 -0.1788  0.9920 -0.0215
  105MOL   C12321131   6.598   3.555   0.225 -0.0898  0.1239  0.1851
  105MOL   C12421132   6.666   3.661   0.314  0.1431 -0.0734 -0.6698
  105MOL   O12521133   6.732   3.620   0.411 -0.1333 -0.3377 -0.6920
  105MOL   N12621134   6.646   3.792   0.291  0.1376 -0.4026  0.1255
  105MOL   H12721135   6.782   3.457   0.236 -1.0239  0.0185  0.8075
  105MOL   H12821136   6.668   3.362   0.157 -0.5419  1.0774  0.6112
  105MOL   H12921137   6.550   3.598   0.136  1.1750  0.8385 -0.1545
  105MOL   H13021138   6.578   3.813   0.219 -0.4203 -1.6073  0.2931
  105MOL   H13121139   6.684   3.862   0.353 -2.2919  0.9190  0.1811
  105MOL   C13221140   6.494   3.474   0.298  0.3456 -0.3689  0.2198
  105MOL   C13321141   6.369   3.555   0.337 -0.3749  0.0976  0.1004
  105MOL   C13421142   6.350   3.542   0.489 -0.1688  0.2757 -0.0721
  105MOL   O13521143   6.422   3.609   0.567  0.2306 -0.5129  0.0096
  105MOL   N13621144   6.259   3.460   0.541 -0.0273 -0.2503  0.3260
  105MOL   H13721145   6.550   3.443   0.386  0.0023 -0.3855  0.4349
  105MOL   H13821146   6.459   3.385   0.245 -3.3452  1.4159 -0.5029
  105MOL   H13921147   6.406   3.657   0.323  0.0350  0.0853  1.1206
  105MOL   H14021148   6.201   3.403   0.481  0.5664 -0.8233  0.2922
  105MOL   H14121149   6.271   3.442   0.640  0.2705  1.4448  0.6195
  105MOL   C14221150   6.245   3.535   0.248  0.3822  0.1731  1.0392
  105MOL   C14321151   6.122   3.629   0.266 -0.4595  0.7307  0.4878
  105MOL   C14421152   6.018   3.603   0.155 -0.0357  0.2240  0.0481
  105MOL   O14521153   6.040   3.585   0.036 -0.1299  0.3370  0.3423
  105MOL   N14621154   5.895   3.608   0.196  0.5729 -0.1740  0.2855
  105MOL   H14721155   6.219   3.430   0.262 -0.0011  0.0631 -0.3921
  105MOL   H14821156   6.272   3.546   0.143  0.7407  0.2141  1.1344
  105MOL   H14921157   6.081   3.591   0.359 -2.1638  0.4232 -0.3654
  105MOL   H15021158   5.817   3.592   0.133 -2.0400 -2.1177  3.8093
  105MOL   H15121159   5.886   3.625   0.296  0.1358 -0.7152  0.3385
  105MOL   C15221160   6.166   3.779   0.289 -0.1908  0.4313  0.4963
  105MOL   C15321161   6.194   3.874   0.168 -0.5314 -0.3071  0.1914
  105MOL   C15421162   6.316   3.834   0.089 -0.8188 -0.7061 -0.2156
  105MOL   O15521163   6.428   3.879   0.124  0.0086  0.0300 -0.6694
  105MOL   N15621164   6.300   3.767   7.637  0.1727 -0.6553  0.0980
  105MOL   H15721165   6.257   3.787   0.349 -0.2143 -3.0915  1.1179
  105MOL   H15821166   6.087   3.825   0.349 -1.4151 -0.8256 -0.1098
  105MOL   H15921167   6.114   3.871   0.094 -0.8307 -2.2381  0.5794
  105MOL   H16021168   6.381   3.749   7.579  1.0506  0.6891  0.8900
  105MOL   H16121169   6.209   3.732   7.610 -1.3823  2.5258  0.9787
  105MOL   C16221170   6.207   4.026   0.204 -0.2756 -0.0620  0.8134
  105MOL   C16321171   6.227   4.126   0.092  0.4749 -0.3696 -0.2494
  105MOL   C16421172   6.317   4.230   0.148 -0.6698 -0.8928 -0.2419
  105MOL   O16521173   6.273   4.326   0.217 -0.1712 -0.5199  0.3472
  105MOL   N16621174   6.444   4.229   0.106 -0.6230  0.0521 -0.0529
  105MOL   H16721175   6.278   4.034   0.286 -1.0168 -3.6110  1.8722
  105MOL   H16821176   6.113   4.059   0.247 -0.5881  1.1498 -0.7466
  105MOL   H16921177   6.290   4.091   0.010  0.6227  1.4345 -0.9172
  105MOL   H17021178   6.474   4.145   0.058 -0.9838  1.0087 -1.9959
  105MOL   H17121179   6.504   4.310   0.118  0.3620 -0.4538 -1.3808
  105MOL   C17221180   6.093   4.174   0.031 -0.3709 -0.6063 -0.3128
  105MOL   C17321181   6.050   4.095   7.564 -0.3193 -0.2770 -0.1948
  105MOL   C17421182   6.148   4.108   7.446  0.6586 -0.4327 -0.3163
  105MOL   O17521183   6.227   4.198   7.440 -0.4326 -0.3137  0.1739
  105MOL   N17621184   6.175   3.991   7.379 -0.1640 -0.4821  0.0641
  105MOL   H17721185   6.112   4.277   7.655  0.1572 -1.7012 -3.6148
  105MOL   H17821186   6.009   4.181   0.100  0.0710  0.3220  0.1513
  105MOL   H17921187   6.059   3.988   7.584  0.2796 -0.0992  0.5197
  105MOL   H18021188   6.122   3.906   7.388 -0.7188 -0.1877 -0.3235
  105MOL   H18121189   6.236   3.993   7.299  1.8509  1.3544  1.5996
  105MOL   C18221190   5.910   4.111   7.522 -0.1455  0.0480 -0.2605
  105MOL   C18321191   5.808   3.995   7.540  0.8882 -0.3241  0.6209
  105MOL   C18421192   5.750   4.001   0.030 -0.3852  0.2154  0.3802
  105MOL   O18521193   5.688   4.101   0.065 -0.4318 -0.4839 -0.2422
  105MOL   N18621194   5.764   3.910   0.116  0.7199  0.1918 -0.4510
  105MOL   H18721195   5.906   4.139   7.417 -1.3898 -3.6077 -1.2812
  105MOL   H18821196   5.873   4.202   7.568 -1.0365 -0.4528  0.0346
  105MOL   H18921197   5.731   4.018   7.466  1.1467  2.2352  1.1260
  105MOL   H19021198   5.718   3.932   0.203  1.0301 -1.0412  0.0362
  105MOL   H19121199   5.794   3.815   0.099 -0.4454  0.1691 -2.5544
  105MOL   C19221200   5.853   3.853   7.490 -0.2568  0.3332  0.3231
  105MOL   C19321201   5.724   3.761   7.479 -0.4794 -0.3755  0.3587
  105MOL   C19421202   5.749   3.620   7.419 -0.1449  0.1122  0.3765
  105MOL   O19521203   5.672   3.556   7.347 -0.4741  0.5315  0.4086
  105MOL   N19621204   5.855   3.561   7.459 -0.4735  0.1308  0.2537
  105MOL   H19721205   5.915   3.807   7.567 -1.9123 -0.0322  1.4624
  105MOL   H19821206   5.905   3.876   7.397  0.8913  0.5959  1.0198
  105MOL   H19921207   5.660   3.746   7.566  0.8607 -0.2172  1.3921
  105MOL   H20021208   5.917   3.614   7.519  0.8926 -0.1148 -0.9278
  105MOL   H20121209   5.892   3.469   7.440  0.8791  0.4915  1.0417
  105MOL   H20221210   5.666   3.813   7.403 -1.3337 -0.2451  1.0885
  106MOL     C121211   0.888   7.432   4.178  0.2591 -0.1458 -0.3430
  106MOL     C221212   0.902   7.552   4.076  0.0813 -0.4418 -0.7093
  106MOL     C321213   0.790   7.554   3.980 -0.1506  0.0423  0.4999
  106MOL     O421214   0.789   7.470   3.895 -0.1447  0.2878  0.1788
  106MOL     N521215   0.706   0.002   3.969 -0.5388  0.5348 -0.1942
  106MOL     H621216   0.899   7.339   4.121  1.0245 -0.4248  0.2527
  106MOL     H721217   0.970   7.438   4.250  0.0195 -1.0888  0.0249
  106MOL     H821218   0.898   7.641   4.138 -2.1433 -0.2066 -1.1370
  106MOL     H921219   0.646   7.650   3.889 -1.0516 -0.9266  0.3293
  106MOL    H1021220   0.685   0.072   4.038 -3.0681 -1.1469  0.8204
  106MOL    H1121221   0.797   7.443   4.237  0.0572 -0.4991 -0.5792
  106MOL    C1221222   1.033   7.538   3.997  0.2843  0.3289  0.3279
  106MOL    C1321223   1.064   7.653   3.894 -0.2481  0.4079 -0.1444
  106MOL    C1421224   1.190   7.610   3.821 -0.1405  0.1077 -0.1142
  106MOL    O1521225   1.289   7.580   3.885  0.4170 -0.2233  0.3678
  106MOL    N1621226   1.192   7.603   3.690 -1.0497 -0.2554 -0.3087
  106MOL    H1721227   1.034   7.445   3.941  1.1469  0.5808 -0.0926
  106MOL    H1821228   1.110   7.523   4.073  0.3460 -0.3460  0.1330
  106MOL    H1921229   0.986   7.654   3.818  0.3934  2.2342 -0.7967
  106MOL    H2021230   1.272   7.559   3.647  0.1067 -1.6018  3.0758
  106MOL    H2121231   1.125   7.651   3.631  0.2026  0.0080 -1.5261
  106MOL    C2221232   1.093   0.129   3.974 -0.6860  0.6509 -0.1264
  106MOL    C2321233   1.066   0.262   3.898  0.8591 -0.1655 -0.5479
  106MOL    C2421234   1.173   0.301   3.796 -0.4498  0.7683 -0.0800
  106MOL    O2521235   1.277   0.357   3.827 -0.0060 -0.1706  0.1259
  106MOL    N2621236   1.144   0.287   3.666  0.2035  0.0504 -0.2212
  106MOL    H2721237   1.195   0.127   4.011  0.0042  2.2804 -1.8670
  106MOL    H2821238   1.038   0.116   4.067 -1.1699 -0.7155 -0.5892
  106MOL    H2921239   0.969   0.251   3.849  0.2361  1.3101  0.3127
  106MOL    H3021240   1.068   0.230   3.631  0.4959 -1.1270  1.0139
  106MOL    H3121241   1.222   0.302   3.604  1.3759 -1.0360  0.9790
  106MOL    C3221242   1.033   0.380   3.992  0.8686 -0.5960  0.1719
  106MOL    C3321243   0.890   0.382   4.061  0.1493  0.4830  0.6380
  106MOL    C3421244   0.807   0.497   3.996 -0.4519 -0.5976 -0.0913
  106MOL    O3521245   0.850   0.609   3.957  0.1245 -0.5677 -0.5768
  106MOL    N3621246   0.677   0.476   3.979 -0.6218  0.2868 -0.3405
  106MOL    H3721247   1.055   0.468   3.932  1.4007 -1.6637 -1.2302
  106MOL    H3821248   1.115   0.390   4.064  0.2391 -0.9770  0.9416
  106MOL    H3921249   0.825   0.295   4.065  1.7986 -0.8147  0.0264
  106MOL    H4021250   0.641   0.552   3.922  2.9791  2.4089  0.1086
  106MOL    H4121251   0.622   0.394   4.002 -4.3344  1.9993 -2.5913
  106MOL    C4221252   0.913   0.419   4.212  0.4546  0.2397 -0.4458
  106MOL    C4321253   0.788   0.417   4.313 -0.4366  0.6019  0.1708
  106MOL    C4421254   0.705   0.287   4.314  0.1542  0.7215 -0.8887
  106MOL    O4521255   0.583   0.286   4.341  0.4096 -0.1595  0.0638
  106MOL    N4621256   0.765   0.170   4.284  0.2077  0.3095  0.4673
  106MOL    H4721257   0.966   0.514   4.215  0.3688  0.3177 -1.2802
  106MOL    H4821258   0.991   0.355   4.253  1.1038 -0.0956 -2.1535
  106MOL    H4921259   0.842   0.428   4.407  0.6976  0.8293 -0.4908
  106MOL    H5021260   0.862   0.154   4.306  0.1756 -0.5909  0.0055
  106MOL    H5121261   0.710   0.085   4.281  1.8733 -0.7588 -0.5449
  106MOL    C5221262   0.697   0.541   4.302 -0.6232 -0.4263  0.6795
  106MOL    C5321263   0.632   0.581   4.445  0.2146 -0.1016  0.5617
  106MOL    C5421264   0.480   0.600   4.424  0.4907 -0.8479  0.1107
  106MOL    O5521265   0.432   0.710   4.442 -0.5401  0.4929  0.0065
  106MOL    N5621266   0.408   0.495   4.383 -0.0378  0.3151  0.3713
  106MOL    H5721267   0.627   0.514   4.223  1.4462 -0.2448 -1.2706
  106MOL    H5821268   0.752   0.624   4.257  0.1388 -0.7512  0.9996
  106MOL    H5921269   0.640   0.504   4.522 -0.3684  0.2794  1.0114
  106MOL    H6021270   0.309   0.508   4.369  0.1752  0.3541 -1.2426
  106MOL    H6121271   0.458   0.408   4.375 -1.9415 -0.6909 -0.8717
  106MOL    C6221272   0.711   0.705   4.492  0.2783 -0.6026 -0.0937
  106MOL    C6321273   0.871   0.692   4.499  0.2562  0.2204 -1.1857
  106MOL    C6421274   0.907   0.599   4.615  0.4041  0.3292  0.0375
  106MOL    O6521275   0.853   0.620   4.720  0.0499  0.3312 -0.1724
  106MOL    N6621276   1.005   0.512   4.595  0.2764 -0.1324  0.3916
  106MOL    H6721277   0.667   0.742   4.584 -0.5283 -1.8245  0.0246
  106MOL    H6821278   0.700   0.785   4.419  1.9555  1.3200  1.6815
  106MOL    H6921279   0.913   0.631   4.419 -2.1289 -1.5374 -1.1611
  106MOL    H7021280   1.015   0.449   4.673 -0.5351  1.8880  2.1842
  106MOL    H7121281   1.026   0.495   4.498  0.0493  0.6315  0.2017
  106MOL    C7221282   0.943   0.825   4.506 -0.2611  0.0489  0.4702
  106MOL    C7321283   1.093   0.820   4.504  0.4615  0.0163  0.2075
  106MOL    C7421284   1.163   0.809   4.638 -0.0298  0.1351  0.2610
  106MOL    O7521285   1.119   0.856   4.743  0.2716 -0.3477  0.2672
  106MOL    N7621286   1.284   0.754   4.645 -0.3380  0.1190  0.1122
  106MOL    H7721287   0.912   0.872   4.599  0.1913 -1.1797  1.2658
  106MOL    H7821288   0.907   0.882   4.421  1.7254  0.7922  0.0989
  106MOL    H7921289   1.129   0.740   4.439  1.9608 -1.5930  2.9500
  106MOL    H8021290   1.330   0.716   4.563  4.5527  2.4307  1.5724
  106MOL    H8121291   1.346   0.791   4.716 -0.0791 -0.5299  0.2365
  106MOL    C8221292   1.135   0.950   4.432 -0.4238  0.4372 -0.5080
  106MOL    C8321293   1.282   0.963   4.381 -0.1041 -0.5326 -0.0660
  106MOL    C8421294   1.320   1.107   4.347  0.3716  0.1485  0.0931
  106MOL    O8521295   1.241   1.179   4.287  0.8438  0.4852  0.3049
  106MOL    N8621296   1.441   1.154   4.377 -0.6068  0.8043 -0.0355
  106MOL    H8721297   1.114   1.040   4.488  0.3076 -0.0532  0.5725
  106MOL    H8821298   1.068   0.967   4.348 -0.7446 -1.5467 -0.6831
  106MOL    H8921299   1.346   0.934   4.465  1.4431 -1.9483 -1.6844
  106MOL    H9021300   1.466   1.247   4.347  0.2832  0.7823  0.6258
  106MOL    H9121301   1.520   1.095   4.398 -3.2825 -1.3385  4.5666
  106MOL    C9221302   1.314   0.874   4.261 -0.4328 -0.2527  0.0915
  106MOL    C9321303   1.225   0.905   4.135 -0.0725  0.1428 -0.9584
  106MOL    C9421304   1.138   0.785   4.095 -0.0451 -0.2486  0.3640
  106MOL    O9521305   1.192   0.673   4.084  0.2679 -0.0309  0.0788
  106MOL    N9621306   1.013   0.817   4.064  0.7218  0.4078 -0.6161
  106MOL    H9721307   1.299   0.772   4.297  0.0109 -0.2559  0.2724
  106MOL    H9821308   1.421   0.877   4.241 -0.3855 -1.3801  0.1379
  106MOL    H9921309   1.155   0.986   4.154  0.4159  0.2132  0.5723
  106MOL   H10021310   0.946   0.752   4.024 -0.4103  1.4441 -0.4221
  106MOL   H10121311   0.990   0.915   4.073 -1.4565 -0.2529  1.5625
  106MOL   C10221312   1.316   0.963   4.020  0.1973 -0.4116  0.1764
  106MOL   C10321313   1.254   1.076   3.926 -0.5409 -0.5553 -0.1846
  106MOL   C10421314   1.162   1.016   3.829 -0.3555  0.3838 -0.1133
  106MOL   O10521315   1.195   0.923   3.761  0.0664  0.0666 -0.2420
  106MOL   N10621316   1.043   1.068   3.813 -0.4332 -0.2172  0.4576
  106MOL   H10721317   1.357   0.893   3.948 -2.5829 -1.9247  0.0235
  106MOL   H10821318   1.396   1.024   4.063  1.6429 -0.6350 -2.1327
  106MOL   H10921319   1.197   1.139   3.995  1.8879  1.4983  0.0423
  106MOL   H11021320   1.009   1.149   3.864 -1.3192 -1.0001  1.1361
  106MOL   H11121321   0.976   1.019   3.755 -1.3859  0.9853  0.5218
  106MOL   C11221322   1.356   1.165   3.848  0.0346 -0.1423  0.4815
  106MOL   C11321323   1.432   1.260   3.950 -0.2312 -0.2799 -0.0768
  106MOL   C11421324   1.392   1.405   3.925 -1.1305 -0.0290 -0.5457
  106MOL   O11521325   1.432   1.469   3.826 -0.4025  0.2147 -0.7967
  106MOL   N11621326   1.306   1.441   4.016  0.2449 -0.1792 -0.6043
  106MOL   H11721327   1.318   1.227   3.766 -0.6750 -0.5658  0.4894
  106MOL   H11821328   1.424   1.095   3.799  1.2944  0.5442  1.2198
  106MOL   H11921329   1.413   1.228   4.053  0.0501 -0.9789 -0.2353
  106MOL   H12021330   1.282   1.536   3.993 -1.5416 -0.4987 -0.0792
  106MOL   H12121331   1.289   1.393   4.103 -0.4036 -1.1106 -1.2432
  106MOL   C12221332   1.584   1.246   3.919 -0.0215 -0.4781  0.1757
  106MOL   C12321333   1.649   1.106   3.962 -0.0348 -0.0866  0.5374
  106MOL   C12421334   1.664   1.079   4.112 -0.2902  0.3938 -0.3017
  106MOL   O12521335   1.673   1.173   4.183 -0.3345 -0.3318 -0.3437
  106MOL   N12621336   1.666   0.962   4.170 -0.4392  0.3849 -0.2187
  106MOL   H12721337   1.637   1.330   3.963 -2.7837  0.4012  1.9697
  106MOL   H12821338   1.586   1.264   3.812  0.2111 -1.4280  0.0199
  106MOL   H12921339   1.578   1.031   3.930  0.7754 -0.2741 -0.8384
  106MOL   H13021340   1.665   0.871   4.127  3.1082 -0.0544  0.4579
  106MOL   H13121341   1.676   0.969   4.270  1.1086 -0.6367 -0.2802
  106MOL   C13221342   1.786   1.085   3.896  0.2829 -0.0087 -0.4979
  106MOL   C13321343   1.889   1.202   3.896 -0.0636 -0.1052  0.3610
  106MOL   C13421344   1.907   1.265   3.756 -0.1286 -0.2157  0.3306
  106MOL   O13521345   1.949   1.207   3.656 -0.3208 -0.5253 -0.1444
  106MOL   N13621346   1.862   1.386   3.739 -0.3140 -0.5469 -0.0308
  106MOL   H13721347   1.765   1.065   3.791  1.5831  2.1029 -1.1756
  106MOL   H13821348   1.831   0.994   3.936  0.1289  0.4458  0.7322
  106MOL   H13921349   1.876   1.279   3.972 -0.4934  0.8541 -0.6841
  106MOL   H14021350   1.861   1.423   3.645 -0.6541  2.0792  0.9557
  106MOL   H14121351   1.828   1.443   3.816 -0.4923  0.2255 -0.6717
  106MOL   C14221352   2.029   1.140   3.940  0.7167 -0.7729  0.6287
  106MOL   C14321353   2.042   1.118   4.099 -1.2553  0.0550  0.8179
  106MOL   C14421354   2.038   1.254   4.164 -0.7025  0.4334 -0.4946
  106MOL   O14521355   2.122   1.342   4.145 -0.4358 -0.0493  0.1129
  106MOL   N14621356   1.936   1.288   4.246 -0.5469 -0.2130 -0.0959
  106MOL   H14721357   2.104   1.216   3.917  0.1726  0.6016  3.1163
  106MOL   H14821358   2.053   1.053   3.880 -1.1027  0.0876 -1.4121
  106MOL   H14921359   1.953   1.061   4.122 -0.7843 -0.2034  2.0223
  106MOL   H15021360   1.934   1.373   4.300 -1.0369 -0.3699  0.1294
  106MOL   H15121361   1.860   1.224   4.261 -1.7319  1.4784  1.2348
  106MOL   C15221362   2.163   1.035   4.139 -0.6963  0.4026  0.3352
  106MOL   C15321363   2.166   0.889   4.080  0.8162 -0.4965 -0.4944
  106MOL   C15421364   2.027   0.810   4.093 -0.2121 -0.0514  0.0878
  106MOL   O15521365   1.972   0.787   4.200  0.0696 -0.1206  0.4467
  106MOL   N15621366   1.976   0.773   3.976  0.1752 -0.9531  0.7994
  106MOL   H15721367   2.158   1.019   4.246  0.4929 -0.8613  0.2212
  106MOL   H15821368   2.259   1.083   4.119 -0.2843 -0.9358 -1.0074
  106MOL   H15921369   2.172   0.888   3.972  2.1902  0.1336 -0.4207
  106MOL   H16021370   1.890   0.721   3.974 -0.3101 -0.1438 -1.8950
  106MOL   H16121371   2.030   0.778   3.891  0.1829 -1.3302  0.7842
  106MOL   C16221372   2.288   0.804   4.117 -0.4309 -0.5361  0.3680
  106MOL   C16321373   2.419   0.861   4.048 -0.0444  0.5186  0.2103
  106MOL   C16421374   2.507   0.756   3.987  0.4704  0.4106  0.3767
  106MOL   O16521375   2.597   0.704   4.053 -0.0772 -0.5153 -0.2005
  106MOL   N16621376   2.472   0.713   3.867  0.4057 -0.1158 -0.2718
  106MOL   H16721377   2.272   0.705   4.074  0.2260 -0.5972  0.2499
  106MOL   H16821378   2.303   0.794   4.225 -2.5452  0.4498  0.7679
  106MOL   H16921379   2.382   0.922   3.966 -0.5535 -0.8024 -0.5448
  106MOL   H17021380   2.391   0.742   3.816  0.9157  0.2181 -0.9040
  106MOL   H17121381   2.531   0.638   3.832  0.6198  0.0246 -0.2156
  106MOL   C17221382   2.497   0.959   4.147 -0.2151 -0.4781  0.0123
  106MOL   C17321383   2.582   1.075   4.089 -0.0054 -0.2147 -0.1077
  106MOL   C17421384   2.679   1.119   4.203 -0.1016  1.1179 -0.1795
  106MOL   O17521385   2.663   1.214   4.280  1.1574 -0.1637 -0.1742
  106MOL   N17621386   2.792   1.051   4.208  0.2365  0.4854 -0.7468
  106MOL   H17721387   2.565   0.894   4.201 -0.2650 -1.2379 -0.8200
  106MOL   H17821388   2.435   1.008   4.222  1.0843  1.3728 -0.0912
  106MOL   H17921389   2.636   1.029   4.006 -0.5183  0.3715 -0.7739
  106MOL   H18021390   2.805   0.977   4.141 -3.1015 -0.0123 -0.9496
  106MOL   H18121391   2.863   1.064   4.279  0.7697 -1.4141 -0.9052
  106MOL   C18221392   2.491   1.185   4.027  0.6432 -0.1395 -0.3622
  106MOL   C18321393   2.560   1.292   3.934 -0.9467 -0.0327 -0.0426
  106MOL   C18421394   2.607   1.414   4.012 -0.1057 -0.1850 -0.6495
  106MOL   O18521395   2.532   1.490   4.076  0.7920  0.2362  0.6027
  106MOL   N18621396   2.733   1.444   3.993 -0.4500 -0.4041  0.2658
  106MOL   H18721397   2.426   1.234   4.100  1.7580  0.2764  0.3585
  106MOL   H18821398   2.426   1.125   3.963  0.4829 -0.5193  0.1469
  106MOL   H18921399   2.657   1.253   3.902 -0.3898  1.1664  0.1844
  106MOL   H19021400   2.792   1.381   3.940  1.7026  0.9733  0.9162
  106MOL   H19121401   2.783   1.498   4.063 -1.3235  1.8211 -0.7910
  106MOL   C19221402   2.482   1.332   3.798 -0.0547  0.0775 -0.3787
  106MOL   C19321403   2.527   1.456   3.706  0.2633  0.3839  0.0234
  106MOL   C19421404   2.476   1.581   3.780  0.0614  0.6188  0.2705
  106MOL   O19521405   2.364   1.594   3.828 -0.0130  0.7147 -0.0891
  106MOL   N19621406   2.568   1.675   3.787  0.4646 -0.1997  0.5500
  106MOL   H19721407   2.374   1.343   3.808  0.1414  0.8326  0.9702
  106MOL   H19821408   2.477   1.239   3.741  0.2670 -1.0171  1.3345
  106MOL   H19921409   2.634   1.465   3.690 -0.3612  3.5593 -3.0046
  106MOL   H20021410   2.539   1.767   3.817  0.3175  0.1063 -0.5289
  106MOL   H20121411   2.648   1.663   3.726 -0.4862 -0.3573 -0.6818
  106MOL   H20221412   2.501   1.440   3.601  0.7287  0.2596 -0.0715
  107MOL     C121413   7.262   5.218   4.639 -0.5761 -0.8927 -0.3771
  107MOL     C221414   7.368   5.183   4.737  0.0845  0.1290  0.2460
  107MOL     C321415   7.498   5.148   4.663 -0.0488  0.2556  0.0168
  107MOL     O421416   7.489   5.127   4.544 -0.1550 -0.2400  0.5407
  107MOL     N521417   7.615   5.180   4.716 -0.1633  0.1227  0.0010
  107MOL     H621418   7.251   5.131   4.575 -0.6482 -1.3209  0.2123
  107MOL     H721419   7.166   5.230   4.689 -0.0561  2.3091  0.0143
  107MOL     H821420   7.393   5.276   4.787  0.2539 -0.8924  2.1341
  107MOL     H921421   7.627   5.179   4.816 -2.2407  1.6501  0.2889
  107MOL    H1021422   0.037   5.169   4.654  0.5906  2.7939  0.4363
  107MOL    H1121423   7.285   5.307   4.580 -0.7962 -0.9874 -0.6072
  107MOL    C1221424   7.327   5.083   4.855  0.5263 -0.0705  0.6477
  107MOL    C1321425   7.319   5.151   4.989 -0.4994 -0.5763 -0.5535
  107MOL    C1421426   7.347   5.042   5.098 -0.1303 -0.3833  0.1613
  107MOL    O1521427   7.259   4.969   5.136  0.0499  0.0832 -0.6861
  107MOL    N1621428   7.468   5.038   5.147 -0.4173 -0.5156 -0.9294
  107MOL    H1721429   7.392   4.995   4.854 -0.8974 -1.1540  1.7934
  107MOL    H1821430   7.233   5.034   4.828  1.3300 -1.0552 -0.4336
  107MOL    H1921431   7.402   5.221   4.987 -1.7520  0.8939 -1.8823
  107MOL    H2021432   7.487   4.962   5.211  0.7007  0.4969 -0.0532
  107MOL    H2121433   7.549   5.092   5.120 -0.0387 -0.6211 -0.0281
  107MOL    C2221434   7.193   5.233   5.019  0.1273 -0.0244  0.0225
  107MOL    C2321435   7.211   5.370   5.089  0.0889 -0.2651  0.0452
  107MOL    C2421436   7.286   5.479   5.001 -0.7280  0.5751  0.0714
  107MOL    O2521437   7.405   5.492   5.013  0.0216 -0.1456 -0.3178
  107MOL    N2621438   7.212   5.562   4.931  0.2486 -0.1070  0.5920
  107MOL    H2721439   7.126   5.172   5.079  0.7283 -0.4328  0.2859
  107MOL    H2821440   7.129   5.244   4.932  0.1778  0.3770  0.0395
  107MOL    H2921441   7.112   5.413   5.104  0.4693  0.4976  0.4071
  107MOL    H3021442   7.260   5.621   4.865  2.4727 -2.0180  0.4573
  107MOL    H3121443   7.117   5.532   4.917  0.7142 -1.3208  0.0193
  107MOL    C3221444   7.276   5.367   5.230  0.6612 -0.1319 -0.2736
  107MOL    C3321445   7.182   5.302   5.342 -0.4163 -0.1139  0.2261
  107MOL    C3421446   7.105   5.402   5.440  0.2116  0.1246  0.0189
  107MOL    O3521447   7.148   5.512   5.470 -0.6577 -0.0367 -0.0663
  107MOL    N3621448   6.988   5.357   5.486  0.3638 -0.3647 -0.3311
  107MOL    H3721449   7.302   5.468   5.259  0.1406  1.1591 -3.9559
  107MOL    H3821450   7.370   5.312   5.236  0.5300 -0.1920  1.2679
  107MOL    H3921451   7.098   5.266   5.282  1.0898 -1.7546 -0.9337
  107MOL    H4021452   6.932   5.417   5.545  0.0058 -0.8743 -0.1538
  107MOL    H4121453   6.965   5.260   5.472  1.4438 -0.6241 -0.3201
  107MOL    C4221454   7.246   5.207   5.436 -0.6524 -0.4659 -0.1839
  107MOL    C4321455   7.173   5.075   5.473 -0.1879  0.4545 -0.8831
  107MOL    C4421456   7.037   5.055   5.412 -0.2743  0.3070  0.4847
  107MOL    O4521457   6.932   5.096   5.465 -0.1624 -0.3054 -0.0863
  107MOL    N4621458   7.024   5.004   5.290 -0.0615 -0.7251 -0.1774
  107MOL    H4721459   7.281   5.261   5.524  1.1579 -0.2938 -0.9782
  107MOL    H4821460   7.342   5.175   5.396 -1.0986 -0.6452 -1.1263
  107MOL    H4921461   7.221   4.996   5.415 -2.2821 -0.7108 -1.0714
  107MOL    H5021462   7.108   4.994   5.236  0.4550  0.7071  0.3367
  107MOL    H5121463   6.932   5.009   5.249  1.1988  2.4094 -2.7840
  107MOL    C5221464   7.206   5.042   5.624 -0.2408 -0.0167  0.1696
  107MOL    C5321465   7.309   4.925   5.639 -0.3270 -0.3237 -0.1424
  107MOL    C5421466   7.236   4.793   5.646 -0.2519  0.3655  0.3295
  107MOL    O5521467   7.152   4.770   5.738 -0.0616 -0.0116 -0.1289
  107MOL    N5621468   7.265   4.702   5.552  0.1040 -0.0272  0.5569
  107MOL    H5721469   7.112   5.020   5.675  0.7634  0.0153  2.0853
  107MOL    H5821470   7.245   5.130   5.677 -0.6436  0.6900 -0.6965
  107MOL    H5921471   7.379   4.910   5.557 -0.4126 -0.5932 -0.1668
  107MOL    H6021472   7.347   4.718   5.496 -1.2734 -1.5919 -2.0142
  107MOL    H6121473   7.216   4.615   5.564  2.4010 -1.2498  1.2056
  107MOL    C6221474   7.393   4.948   5.766 -0.1798 -0.5214 -0.0129
  107MOL    C6321475   7.521   5.035   5.744 -0.7462  0.1791  0.1981
  107MOL    C6421476   7.622   4.952   5.665  0.0956  0.2211  0.1364
  107MOL    O6521477   7.653   4.841   5.704  0.3722  0.6894  0.0002
  107MOL    N6621478   0.012   4.999   5.551 -0.0443 -0.4102  0.2166
  107MOL    H6721479   7.426   4.852   5.804 -2.0474 -0.4999  1.7358
  107MOL    H6821480   7.334   4.989   5.848  0.0804 -2.8416  1.3635
  107MOL    H6921481   7.492   5.119   5.681  0.7681  0.1768 -0.5210
  107MOL    H7021482   0.098   4.963   5.511 -0.3735  0.7692 -1.5965
  107MOL    H7121483   7.641   5.090   5.516 -2.8771 -0.5089  2.0934
  107MOL    C7221484   7.579   5.092   5.874  0.4831  0.4498  1.2508
  107MOL    C7321485   7.548   5.237   5.917  0.1628 -0.1094  0.1958
  107MOL    C7421486   7.411   5.248   5.994  0.2268 -0.0800 -0.5552
  107MOL    O7521487   7.306   5.272   5.931  0.3805 -0.2024  0.5258
  107MOL    N7621488   7.409   5.218   6.124  0.0363  0.3358  0.3508
  107MOL    H7721489   0.028   5.069   5.882  0.5562  0.3634  0.1357
  107MOL    H7821490   7.539   5.024   5.950  1.1733 -0.2879  0.9580
  107MOL    H7921491   7.619   5.259   5.996 -0.7992  2.8850  0.2799
  107MOL    H8021492   7.493   5.225   6.180 -0.5659  1.0915  1.1623
  107MOL    H8121493   7.317   5.234   6.162 -0.2126  1.9839 -0.8870
  107MOL    C8221494   7.578   5.354   5.814 -0.1735 -0.5415 -0.4975
  107MOL    C8321495   0.057   5.354   5.744 -0.7285  0.0812 -0.1043
  107MOL    C8421496   0.166   5.356   5.851  0.0662 -0.3409  0.6927
  107MOL    O8521497   0.174   5.457   5.918 -0.1571 -0.2857 -0.2237
  107MOL    N8621498   0.252   5.255   5.860  0.2789  0.2777  0.0252
  107MOL    H8721499   7.555   5.451   5.858  1.9046  0.9139 -2.5269
  107MOL    H8821500   7.506   5.362   5.732 -2.0578 -0.5848  1.0961
  107MOL    H8921501   0.061   5.258   5.692  1.0342  0.7086 -1.1763
  107MOL    H9021502   0.335   5.274   5.915 -0.5128  2.7082  0.4382
  107MOL    H9121503   0.244   5.164   5.816  0.7586  0.7799 -1.1317
  107MOL    C9221504   0.085   5.472   5.639  0.5159  0.4199 -0.8139
  107MOL    C9321505   0.213   5.468   5.555  0.5651 -0.3970 -0.2495
  107MOL    C9421506   0.256   5.605   5.499  1.0790  0.2460  0.7276
  107MOL    O9521507   0.182   5.676   5.435  0.2631  0.1373  0.6891
  107MOL    N9621508   0.383   5.643   5.515  0.4284 -0.5749 -0.3530
  107MOL    H9721509   0.088   5.570   5.687 -1.8158  0.5132 -0.8189
  107MOL    H9821510   7.656   5.489   5.575  1.2895  0.6273 -1.8149
  107MOL    H9921511   0.286   5.455   5.634 -1.9869 -2.4957  1.8897
  107MOL   H10021512   0.408   5.732   5.474  0.2710  0.6923  2.1548
  107MOL   H10121513   0.457   5.582   5.546  0.3353 -1.5408 -1.9953
  107MOL   C10221514   0.230   5.349   5.447 -0.2224  0.0336  0.0867
  107MOL   C10321515   0.146   5.345   5.323  0.6472  0.0374  0.6124
  107MOL   C10421516   7.654   5.332   5.349  0.2342  0.2848 -0.4350
  107MOL   O10521517   7.614   5.243   5.420  0.4740 -0.1545  0.3068
  107MOL   N10621518   7.583   5.433   5.305 -0.0951  0.3186 -0.1305
  107MOL   H10721519   0.206   5.260   5.505 -0.7550 -0.3592 -0.7213
  107MOL   H10821520   0.335   5.339   5.417 -0.1191  0.1001  0.4321
  107MOL   H10921521   0.170   5.439   5.274  2.9280 -0.0690  1.4494
  107MOL   H11021522   7.632   5.502   5.250 -0.1660 -1.5453 -2.6067
  107MOL   H11121523   7.488   5.449   5.337 -0.2304  0.6986 -0.7115
  107MOL   C11221524   0.189   5.230   5.226 -0.8483 -0.4855 -0.4882
  107MOL   C11321525   0.203   5.280   5.078  0.9828  0.9312  0.2850
  107MOL   C11421526   0.060   5.286   5.019  0.3602 -0.1705 -0.8696
  107MOL   O11521527   0.002   5.186   4.983  0.4967  0.1861 -0.4589
  107MOL   N11621528   0.004   5.407   4.999 -0.1696 -0.0276 -0.5372
  107MOL   H11721529   0.117   5.148   5.222 -1.2893 -0.0678 -1.4140
  107MOL   H11821530   0.284   5.184   5.252 -0.5757 -0.6381 -1.7243
  107MOL   H11921531   0.249   5.379   5.083  3.3106 -0.1316  0.6356
  107MOL   H12021532   7.563   5.415   4.974 -0.5690 -2.5458  0.0415
  107MOL   H12121533   0.051   5.487   5.038  2.9091 -1.8212 -0.4500
  107MOL   C12221534   0.298   5.188   4.994 -0.8408  0.5073 -0.6684
  107MOL   C12321535   0.410   5.259   4.910 -0.2182  0.3467  0.4202
  107MOL   C12421536   0.513   5.330   4.999 -0.9765  0.4770  0.2191
  107MOL   O12521537   0.481   5.404   5.086 -0.4299 -0.0656  0.0598
  107MOL   N12621538   0.642   5.296   4.984 -0.8724  0.1878  0.4012
  107MOL   H12721539   0.256   5.111   4.929  0.2893 -2.3141  1.8172
  107MOL   H12821540   0.358   5.137   5.070 -2.0541 -2.4830 -1.6266
  107MOL   H12921541   0.466   5.178   4.864 -0.4541  1.2354 -1.4688
  107MOL   H13021542   0.677   5.216   4.932  1.3578  0.9489  0.6625
  107MOL   H13121543   0.708   5.333   5.052 -0.0178 -0.4993 -0.0480
  107MOL   C13221544   0.348   5.331   4.787  0.6096  0.1214  0.5483
  107MOL   C13321545   0.424   5.453   4.718 -0.1954 -0.2720  0.2726
  107MOL   C13421546   0.444   5.578   4.805 -0.0262  0.7035  0.5538
  107MOL   O13521547   0.349   5.627   4.859  0.2245  0.3173  0.2056
  107MOL   N13621548   0.575   5.619   4.822 -0.1364  0.0361 -0.0885
  107MOL   H13721549   0.254   5.382   4.810 -1.5220 -2.3532 -2.2736
  107MOL   H13821550   0.327   5.257   4.710  0.4837  1.5659 -0.8290
  107MOL   H13921551   0.527   5.420   4.702 -0.9474 -2.8222  0.5059
  107MOL   H14021552   0.597   5.692   4.888 -0.3500  0.1584 -0.1521
  107MOL   H14121553   0.650   5.563   4.785  0.3134  0.3674  0.3190
  107MOL   C14221554   0.348   5.489   4.583  0.1964 -1.1867  0.3369
  107MOL   C14321555   0.426   5.524   4.451 -0.1280  0.3325  0.6224
  107MOL   C14421556   0.470   5.666   4.455 -0.1989  0.2743 -0.4965
  107MOL   O14521557   0.382   5.759   4.438  0.2854  0.2601 -0.0390
  107MOL   N14621558   0.598   5.694   4.481  0.2554  0.2892 -0.1074
  107MOL   H14721559   0.277   5.569   4.604 -0.4759 -1.5956 -0.3522
  107MOL   H14821560   0.281   5.408   4.555 -0.0902 -0.4444 -1.1354
  107MOL   H14921561   0.514   5.461   4.457  1.5818  2.8205  2.4735
  107MOL   H15021562   0.676   5.631   4.489  0.1342  0.0415 -0.8929
  107MOL   H15121563   0.635   5.788   4.484  0.3666  0.2645 -0.8370
  107MOL   C15221564   0.347   5.488   4.320  0.0359 -0.6576 -0.9073
  107MOL   C15321565   0.439   5.458   4.203 -0.4108  0.5820 -0.8219
  107MOL   C15421566   0.381   5.502   4.065  0.0305  0.1381  0.3748
  107MOL   O15521567   0.308   5.424   3.999 -0.1877  0.2016 -0.0236
  107MOL   N15621568   0.431   5.613   4.011  0.3808  0.3017 -0.3293
  107MOL   H15721569   0.286   5.573   4.291 -1.3589 -1.3306 -0.0148
  107MOL   H15821570   0.266   5.417   4.335 -3.9096  3.3237 -2.3614
  107MOL   H15921571   0.525   5.522   4.224  1.4538 -1.9455 -0.4779
  107MOL   H16021572   0.392   5.650   3.926  1.1950 -1.2819 -1.4045
  107MOL   H16121573   0.505   5.666   4.055 -1.1676  2.3312 -0.1171
  107MOL   C16221574   0.477   5.305   4.211  0.0813 -0.4295  0.5081
  107MOL   C16321575   0.627   5.264   4.220 -0.2314  0.2692 -0.3939
  107MOL   C16421576   0.694   5.331   4.344  0.5279 -0.3171  0.3039
  107MOL   O16521577   0.747   5.441   4.332  0.5186  0.4507  0.0494
  107MOL   N16621578   0.697   5.271   4.460  0.3603 -0.2600  0.6903
  107MOL   H16721579   0.426   5.245   4.135  0.0064  1.5119 -1.0248
  107MOL   H16821580   0.441   5.254   4.300 -0.3812 -1.5390 -0.2949
  107MOL   H16921581   0.637   5.159   4.246  0.7109  0.2524 -0.7815
  107MOL   H17021582   0.648   5.183   4.472  0.6125 -0.5675 -0.4575
  107MOL   H17121583   0.734   5.314   4.543  0.3522  0.3889  0.3588
  107MOL   C17221584   0.704   5.304   4.091 -0.0728  0.0113  0.4981
  107MOL   C17321585   0.682   5.204   3.974 -0.6881  0.7008 -0.1132
  107MOL   C17421586   0.786   5.083   3.990 -0.4037  0.3945 -0.2930
  107MOL   O17521587   0.876   5.066   4.074  0.3098 -0.2673 -0.3420
  107MOL   N17621588   0.769   4.980   3.911  0.6318  0.5671  0.0902
  107MOL   H17721589   0.812   5.309   4.108 -0.2617  0.7308  1.5095
  107MOL   H17821590   0.670   5.400   4.054 -1.0562 -0.3931  0.3488
  107MOL   H17921591   0.586   5.158   3.998 -1.3747  1.8331 -0.6354
  107MOL   H18021592   0.697   4.983   3.840 -1.4236 -0.1643  2.0608
  107MOL   H18121593   0.816   4.891   3.924  0.9680  1.0313  2.2353
  107MOL   C18221594   0.687   5.271   3.830  0.4631  0.4778 -0.0592
  107MOL   C18321595   0.549   5.306   3.775 -0.5608  0.3028  0.5385
  107MOL   C18421596   0.463   5.178   3.771  0.1111 -0.4005 -0.7072
  107MOL   O18521597   0.489   5.078   3.702  0.4150 -0.6487 -0.0764
  107MOL   N18621598   0.352   5.182   3.841  0.1184  0.2527  0.3213
  107MOL   H18721599   0.735   5.204   3.759  0.0590 -0.6221  0.6959
  107MOL   H18821600   0.749   5.359   3.846  1.0428 -0.0512  0.6693
  107MOL   H18921601   0.507   5.381   3.843  3.0417  0.7571  2.3838
  107MOL   H19021602   0.269   5.132   3.812 -0.4993  1.3958  0.0693
  107MOL   H19121603   0.336   5.263   3.900 -0.3941  0.8705 -0.6427
  107MOL   C19221604   0.546   5.364   3.627 -0.3483  0.2267 -0.1436
  107MOL   C19321605   0.405   5.414   3.579 -0.0415  0.5428 -0.6217
  107MOL   C19421606   0.412   5.429   3.425  0.3823 -0.7081 -0.2045
  107MOL   O19521607   0.506   5.476   3.368  0.3351 -0.6497 -0.3223
  107MOL   N19621608   0.310   5.390   3.347 -0.7889 -0.2253  0.0388
  107MOL   H19721609   0.587   5.290   3.558  0.3814 -0.3002  0.8382
  107MOL   H19821610   0.608   5.453   3.628  0.7336 -0.5208 -0.8500
  107MOL   H19921611   0.328   5.341   3.602  2.5056 -1.8493  0.6034
  107MOL   H20021612   0.220   5.359   3.383 -0.5226  1.7712  2.5463
  107MOL   H20121613   0.311   5.409   3.248 -0.1695 -1.2880 -0.1701
  107MOL   H20221614   0.376   5.513   3.615 -0.6895  1.6626 -4.0422
  108MOL     C121615   0.823   5.500   3.241  0.8075 -0.2013  0.4836
  108MOL     C221616   0.910   5.467   3.355  0.3221  0.5007  0.3053
  108MOL     C321617   1.047   5.536   3.338 -0.4293 -0.2943 -0.0519
  108MOL     O421618   1.128   5.497   3.262  1.0369  0.1325  0.2595
  108MOL     N521619   1.075   5.638   3.422 -0.4517  0.2856 -0.4161
  108MOL     H621620   0.797   5.605   3.250  0.2945 -0.2103 -0.8631
  108MOL     H721621   0.869   5.491   3.143  1.1295 -3.6510  0.8674
  108MOL     H821622   0.866   5.506   3.447 -0.1833  0.1183  0.2269
  108MOL     H921623   1.174   5.659   3.420  0.2653 -2.8901 -0.4532
  108MOL    H1021624   1.024   5.686   3.494 -1.5580 -0.3732 -0.7458
  108MOL    H1121625   0.731   5.441   3.232  0.0505  0.9035  0.8902
  108MOL    C1221626   0.929   5.316   3.363  0.0491 -0.2313  0.1232
  108MOL    C1321627   1.022   5.256   3.467  0.0152 -0.1406 -0.3387
  108MOL    C1421628   0.995   5.105   3.465 -0.6970  0.6160  0.1662
  108MOL    O1521629   0.896   5.057   3.522 -0.0080 -0.0825 -0.2256
  108MOL    N1621630   1.079   5.025   3.394  0.8694  0.6469 -0.1915
  108MOL    H1721631   0.962   5.285   3.264  1.0517 -0.7685  0.6098
  108MOL    H1821632   0.832   5.272   3.388  1.0369 -3.1876 -0.9979
  108MOL    H1921633   1.126   5.277   3.442  0.1237  0.5614  0.6731
  108MOL    H2021634   1.168   5.063   3.365  1.5052 -1.4563 -1.1569
  108MOL    H2121635   1.070   4.925   3.378  0.7007  0.7153 -0.5219
  108MOL    C2221636   1.003   5.322   3.602 -0.2388 -0.2336 -0.3382
  108MOL    C2321637   1.119   5.316   3.705 -0.6323 -0.3004 -0.3231
  108MOL    C2421638   1.151   5.169   3.741  0.1226 -0.6799 -0.1042
  108MOL    O2521639   1.067   5.110   3.806 -0.2810  0.9017 -0.0813
  108MOL    N2621640   1.262   5.114   3.695 -0.7898 -0.3136 -0.0399
  108MOL    H2721641   0.908   5.285   3.641 -1.1595  1.2807 -1.0763
  108MOL    H2821642   0.992   5.430   3.590  1.9026  0.0238 -0.1272
  108MOL    H2921643   1.212   5.349   3.658 -0.8950  0.1718 -0.5150
  108MOL    H3021644   1.326   5.171   3.640  2.2434 -3.6853 -0.1930
  108MOL    H3121645   1.286   5.016   3.694 -1.6392 -0.5409  1.2413
  108MOL    C3221646   1.073   5.404   3.822  0.0346  0.6516 -0.0216
  108MOL    C3321647   1.168   5.414   3.943  0.3189  0.5596 -0.1766
  108MOL    C3421648   1.109   5.493   4.064  0.2297 -0.6229 -0.3491
  108MOL    O3521649   1.075   5.612   4.059 -0.5770 -0.5069  0.4706
  108MOL    N3621650   1.099   5.419   4.173 -0.5809  0.0215  0.4876
  108MOL    H3721651   0.980   5.356   3.853 -0.6858  1.0662 -1.4874
  108MOL    H3821652   1.027   5.499   3.795 -1.1918  0.4804  1.3875
  108MOL    H3921653   1.181   5.309   3.971  0.5134  0.7548  0.4680
  108MOL    H4021654   1.088   5.460   4.265 -2.3334  0.4343  0.1104
  108MOL    H4121655   1.106   5.319   4.168 -0.4500 -0.0440  1.7573
  108MOL    C4221656   1.306   5.468   3.893  0.0873  0.6798  0.0905
  108MOL    C4321657   1.431   5.380   3.929  0.2756  0.6846  0.7941
  108MOL    C4421658   1.449   5.356   4.085  0.0796 -0.2579 -0.1281
  108MOL    O4521659   1.502   5.447   4.156  0.8101  0.0687  0.2609
  108MOL    N4621660   1.421   5.235   4.137  0.6413 -0.1158 -0.3202
  108MOL    H4721661   1.332   5.569   3.926  2.0150  1.1416 -2.6334
  108MOL    H4821662   1.309   5.482   3.785 -0.4608  4.5596  0.4953
  108MOL    H4921663   1.412   5.279   3.891 -0.6118  0.3370  2.1263
  108MOL    H5021664   1.459   5.224   4.230  0.3250  0.5924 -0.0989
  108MOL    H5121665   1.384   5.156   4.086 -0.3862  0.7416 -0.9381
  108MOL    C5221666   1.569   5.445   3.877  0.2051  0.1743 -0.2164
  108MOL    C5321667   1.622   5.374   3.746 -0.7508 -0.2783 -0.1585
  108MOL    C5421668   1.526   5.405   3.632  0.3271 -1.0308 -0.1372
  108MOL    O5521669   1.435   5.331   3.602 -0.0682  0.3600  0.1971
  108MOL    N5621670   1.535   5.526   3.577 -0.2698 -0.0705  0.0379
  108MOL    H5721671   1.655   5.449   3.945 -0.9781  0.6822  1.2906
  108MOL    H5821672   1.559   5.553   3.865  2.5486  0.3666 -0.7940
  108MOL    H5921673   1.717   5.421   3.720 -0.4873 -0.9320 -0.3992
  108MOL    H6021674   1.490   5.559   3.493 -1.7949 -0.6201  0.6173
  108MOL    H6121675   1.608   5.588   3.610  0.3192 -1.3974  1.2768
  108MOL    C6221676   1.650   5.222   3.759 -0.0357  0.7291  0.7167
  108MOL    C6321677   1.711   5.140   3.638 -1.1014  0.3267 -0.1576
  108MOL    C6421678   1.826   5.211   3.560 -0.6127 -0.1661 -0.1767
  108MOL    O6521679   1.801   5.278   3.462 -0.2002  0.1675  0.4381
  108MOL    N6621680   1.952   5.188   3.601  0.0439  0.1812 -0.4158
  108MOL    H6721681   1.556   5.168   3.772 -0.8509  2.0711  0.5595
  108MOL    H6821682   1.703   5.210   3.854  0.4444 -1.7928  0.1465
  108MOL    H6921683   1.766   5.062   3.689 -0.3939  0.6890 -0.3557
  108MOL    H7021684   2.029   5.243   3.567  1.5949 -2.8931 -2.0310
  108MOL    H7121685   1.969   5.138   3.687  1.7905  1.5139  0.0448
  108MOL    C7221686   1.625   5.059   3.535 -0.2598  0.3746 -0.4852
  108MOL    C7321687   1.689   4.969   3.430 -0.0501 -0.2594 -0.7060
  108MOL    C7421688   1.589   4.920   3.321  0.5675  1.2035  0.8648
  108MOL    O7521689   1.572   4.800   3.292  0.2302  0.2544  0.2001
  108MOL    N7621690   1.521   5.002   3.240 -0.1682 -0.0273  0.2967
  108MOL    H7721691   1.546   5.122   3.495 -0.8959 -0.6062 -0.7853
  108MOL    H7821692   1.561   4.994   3.595  1.7381 -1.0090  0.1935
  108MOL    H7921693   1.756   5.035   3.375  1.1380 -1.6420 -0.9710
  108MOL    H8021694   1.527   5.100   3.264  0.8099 -0.6977  2.9068
  108MOL    H8121695   1.440   4.964   3.194 -0.5352  0.2318  0.7361
  108MOL    C8221696   1.760   4.850   3.500 -0.0502 -0.0891 -0.5185
  108MOL    C8321697   1.912   4.867   3.504  0.5646  0.1189  0.7377
  108MOL    C8421698   1.974   4.863   3.365  0.1557  0.2353 -0.6836
  108MOL    O8521699   1.949   4.766   3.297  0.2488  0.1203  0.8439
  108MOL    N8621700   2.048   4.965   3.322 -0.0446  0.4695 -0.5788
  108MOL    H8721701   1.738   4.749   3.465  2.5641 -1.6270  2.0731
  108MOL    H8821702   1.721   4.836   3.600  1.5675  0.6371  0.2267
  108MOL    H8921703   1.926   4.971   3.536 -0.9035 -0.0651  2.0821
  108MOL    H9021704   2.092   4.966   3.231 -1.6733 -1.3081 -1.4295
  108MOL    H9121705   2.056   5.040   3.389  0.8213 -0.5107  0.4498
  108MOL    C9221706   1.978   4.766   3.602  0.2313  0.0514  0.2881
  108MOL    C9321707   1.953   4.814   3.755 -1.0821 -0.8592 -0.6476
  108MOL    C9421708   2.044   4.928   3.808  0.5815 -0.0965 -0.4861
  108MOL    O9521709   1.989   5.034   3.855  0.2445  0.3578  0.1724
  108MOL    N9621710   2.170   4.910   3.805 -0.2525  0.6813 -0.0778
  108MOL    H9721711   2.084   4.760   3.578  0.1943  0.8155 -0.0762
  108MOL    H9821712   1.944   4.664   3.581  1.0612 -0.6352  2.1335
  108MOL    H9921713   1.854   4.856   3.775  0.3071  2.3032 -0.0722
  108MOL   H10021714   2.202   4.832   3.749 -0.1359 -0.2301  1.2321
  108MOL   H10121715   2.243   4.958   3.856  0.3975 -1.2100  0.8421
  108MOL   C10221716   1.961   4.692   3.850 -0.1299 -0.3566  0.4060
  108MOL   C10321717   1.922   4.714   3.998  0.8902 -0.2170 -0.2988
  108MOL   C10421718   2.010   4.622   4.083  0.3450  0.3873  0.9237
  108MOL   O10521719   1.986   4.499   4.090  0.0445 -0.0618 -0.2675
  108MOL   N10621720   2.121   4.670   4.136  0.4200 -0.0734  0.3567
  108MOL   H10721721   2.069   4.677   3.840 -0.3229 -1.0908 -0.7038
  108MOL   H10821722   1.926   4.601   3.800  0.0577 -0.0882 -0.2243
  108MOL   H10921723   1.959   4.814   4.021 -0.9003  0.3197  0.3536
  108MOL   H11021724   2.186   4.600   4.167 -1.8734 -2.2724  0.3653
  108MOL   H11121725   2.148   4.767   4.138  2.3792 -0.6051  0.6783
  108MOL   C11221726   1.769   4.707   4.032 -0.2141  0.5863 -0.8395
  108MOL   C11321727   1.733   4.742   4.181 -0.1657 -0.0623 -0.4349
  108MOL   C11421728   1.607   4.666   4.229  0.0419  0.6745  0.2086
  108MOL   O11521729   1.621   4.571   4.310  0.0540 -0.7041  0.1426
  108MOL   N11621730   1.491   4.688   4.173  0.1831 -0.3999  0.2356
  108MOL   H11721731   1.747   4.602   4.018 -0.3599  0.6439 -1.0453
  108MOL   H11821732   1.702   4.755   3.960 -0.7908  0.6483 -0.2629
  108MOL   H11921733   1.811   4.687   4.234 -0.7176  0.3124  0.7869
  108MOL   H12021734   1.411   4.644   4.217 -1.2275 -1.6975 -3.4504
  108MOL   H12121735   1.477   4.762   4.106 -0.0984 -1.1145 -0.5099
  108MOL   C12221736   1.731   4.891   4.217 -0.2484 -0.0485 -0.5054
  108MOL   C12321737   1.655   4.934   4.350  0.4888 -0.1688 -0.0494
  108MOL   C12421738   1.641   5.088   4.345 -0.3746  0.9162 -0.3404
  108MOL   O12521739   1.730   5.157   4.290 -0.1799 -0.2216  0.1813
  108MOL   N12621740   1.531   5.149   4.387 -0.5345 -0.1613  0.0764
  108MOL   H12721741   1.686   4.943   4.133 -0.8588 -1.6192 -1.1667
  108MOL   H12821742   1.835   4.923   4.221 -0.7813  1.6268  0.8374
  108MOL   H12921743   1.554   4.894   4.337  0.5668 -0.5626  0.5248
  108MOL   H13021744   1.554   5.240   4.423  0.2188 -0.8228  1.3297
  108MOL   H13121745   1.464   5.086   4.431  0.6761 -0.2529  1.8527
  108MOL   C13221746   1.727   4.893   4.486 -0.0888 -0.5871  0.6124
  108MOL   C13321747   1.639   4.796   4.578 -0.0414 -0.1356  0.1256
  108MOL   C13421748   1.507   4.864   4.613  0.0535  0.0599  0.4363
  108MOL   O13521749   1.499   4.985   4.635  0.2856 -0.2680  0.3084
  108MOL   N13621750   1.397   4.785   4.609  0.1514  0.2813 -0.4495
  108MOL   H13721751   1.741   4.983   4.545 -3.4931  0.8531 -0.6309
  108MOL   H13821752   1.828   4.857   4.465  0.4452  0.6173  1.1124
  108MOL   H13921753   1.616   4.710   4.516 -0.3557 -0.9111  1.2886
  108MOL   H14021754   1.300   4.810   4.624 -0.6349 -0.8074 -3.3492
  108MOL   H14121755   1.412   4.685   4.609 -1.4741  0.0121 -1.2706
  108MOL   C14221756   1.707   4.743   4.701 -0.0952  1.0286 -0.7403
  108MOL   C14321757   1.792   4.609   4.672 -0.1046  0.4307 -0.2896
  108MOL   C14421758   1.699   4.491   4.692 -0.0261  0.3250 -0.6433
  108MOL   O14521759   1.663   4.468   4.808 -0.6422 -0.4992  0.3911
  108MOL   N14621760   1.651   4.422   4.592  0.3783 -0.7061  0.1469
  108MOL   H14721761   1.632   4.726   4.778 -2.4611  0.4407 -3.1071
  108MOL   H14821762   1.771   4.824   4.735  1.0802 -0.3052  0.2818
  108MOL   H14921763   1.845   4.616   4.577 -1.5051 -1.8894 -1.2491
  108MOL   H15021764   1.691   4.446   4.503 -1.0135  0.4622 -0.1722
  108MOL   H15121765   1.587   4.347   4.615  1.5793 -1.5589  0.8106
  108MOL   C15221766   1.919   4.600   4.764  0.5608  0.2045  0.1494
  108MOL   C15321767   2.035   4.505   4.727  1.5060 -0.7497  0.6798
  108MOL   C15421768   2.016   4.358   4.766 -0.0622 -0.0782 -0.0805
  108MOL   O15521769   2.060   4.311   4.872  0.4478 -0.1520  0.0463
  108MOL   N15621770   1.956   4.282   4.677  0.9876 -0.6039  0.4903
  108MOL   H15721771   1.894   4.576   4.867 -0.6992 -3.1402 -0.8573
  108MOL   H15821772   1.945   4.706   4.766 -1.4075  0.6833  2.4408
  108MOL   H15921773   2.029   4.512   4.618  0.3865  0.8293  0.8268
  108MOL   H16021774   1.921   4.193   4.710 -1.7352 -0.5216 -1.9625
  108MOL   H16121775   1.937   4.315   4.584  1.2431  2.4869  1.4574
  108MOL   C16221776   2.171   4.549   4.774  0.2963 -0.0008  0.6368
  108MOL   C16321777   2.293   4.466   4.739 -0.0099 -0.4766 -0.0916
  108MOL   C16421778   2.415   4.482   4.828  0.0380  0.0022 -0.0763
  108MOL   O16521779   2.428   4.587   4.883 -0.1955 -0.5285  0.1670
  108MOL   N16621780   2.489   4.379   4.863  0.3561  0.3082 -0.3074
  108MOL   H16721781   2.165   4.566   4.881 -1.4688  2.4247  0.1818
  108MOL   H16821782   2.189   4.644   4.722 -2.2222 -1.2306 -2.6416
  108MOL   H16921783   2.272   4.359   4.747  1.1978 -0.8794 -1.9664
  108MOL   H17021784   2.569   4.377   4.924 -0.5492 -1.6412  0.8792
  108MOL   H17121785   2.448   4.288   4.847 -1.0881  0.9551 -0.3154
  108MOL   C17221786   2.326   4.467   4.588 -0.2066 -0.7589  0.2640
  108MOL   C17321787   2.414   4.586   4.539 -0.0352 -0.0230  0.0376
  108MOL   C17421788   2.323   4.705   4.492 -0.2938  0.1107  0.2388
  108MOL   O17521789   2.246   4.684   4.400 -0.1498  0.2207  0.1978
  108MOL   N17621790   2.320   4.819   4.557 -0.2071  0.2119  0.0171
  108MOL   H17721791   2.228   4.460   4.540 -0.4581  0.4988  0.5960
  108MOL   H17821792   2.376   4.372   4.568 -0.1170 -0.5852 -0.3357
  108MOL   H17921793   2.482   4.617   4.618  0.3018  1.6270 -0.8674
  108MOL   H18021794   2.383   4.816   4.636 -1.0194 -3.6628  0.6253
  108MOL   H18121795   2.250   4.891   4.541  0.9463  1.3220 -0.1349
  108MOL   C18221796   2.498   4.539   4.424 -0.7039  0.0493  0.4022
  108MOL   C18321797   2.604   4.428   4.448  0.3900 -0.1102 -0.4640
  108MOL   C18421798   2.735   4.495   4.497 -0.1331  0.4123  0.2320
  108MOL   O18521799   2.814   4.544   4.418  0.0900  0.2171 -0.1536
  108MOL   N18621800   2.747   4.495   4.630  0.1752  0.5111  1.0094
  108MOL   H18721801   2.539   4.626   4.373 -0.7470 -0.9432 -1.4041
  108MOL   H18821802   2.444   4.502   4.337 -2.4867  1.8015  0.7571
  108MOL   H18921803   2.570   4.368   4.531 -3.6487  0.0244 -1.9180
  108MOL   H19021804   2.821   4.546   4.676 -0.4276  2.2951  0.0536
  108MOL   H19121805   2.662   4.464   4.676  0.2690  2.2293  2.4339
  108MOL   C19221806   2.633   4.335   4.328 -0.4800  0.7295  0.0046
  108MOL   C19321807   2.737   4.215   4.355 -0.7096 -1.3479 -0.0156
  108MOL   C19421808   2.711   4.097   4.261 -0.4605 -0.1411 -0.3671
  108MOL   O19521809   2.611   4.098   4.185 -0.2777  0.6337 -0.1473
  108MOL   N19621810   2.800   3.996   4.268 -0.3575  1.4443 -0.5476
  108MOL   H19721811   2.669   4.395   4.245 -0.8733  0.6161 -0.2470
  108MOL   H19821812   2.536   4.304   4.290 -1.9043  4.0014  0.7970
  108MOL   H19921813   2.838   4.253   4.341 -0.3335 -3.1773 -2.7062
  108MOL   H20021814   2.797   3.913   4.210 -0.5955  1.7329 -0.9514
  108MOL   H20121815   2.880   4.022   4.323  0.1850  0.1839 -0.7185
  108MOL   H20221816   2.740   4.182   4.459 -1.9409  1.2579  0.8876
  109MOL     C121817   5.375   6.447   5.441 -0.7253  0.2014  0.6221
  109MOL     C221818   5.332   6.502   5.311  0.2529  0.2343  0.6051
  109MOL     C321819   5.289   6.650   5.314  0.5789 -0.5424 -0.4751
  109MOL     O421820   5.358   6.738   5.264  0.0704 -0.2296 -0.0874
  109MOL     N521821   5.182   6.682   5.376  0.2025  0.2136  0.0441
  109MOL     H621822   5.305   6.451   5.525 -0.6516 -2.3515  0.8288
  109MOL     H721823   5.407   6.343   5.438 -2.6413 -0.4631  2.0447
  109MOL     H821824   5.412   6.489   5.238 -0.9026  0.2217 -0.6854
  109MOL     H921825   5.143   6.609   5.434  1.0052  0.2912  0.6870
  109MOL    H1021826   5.148   6.776   5.366 -0.6663 -0.1349 -0.3170
  109MOL    H1121827   5.463   6.503   5.472 -0.8146 -1.0171  3.1856
  109MOL    C1221828   5.221   6.413   5.258  0.0290 -0.0601 -0.0809
  109MOL    C1321829   5.231   6.369   5.109 -0.3986 -0.2202  0.5563
  109MOL    C1421830   5.236   6.486   5.005 -0.7126  0.4532 -0.5257
  109MOL    O1521831   5.329   6.482   4.924  0.0802 -0.3039 -0.0297
  109MOL    N1621832   5.139   6.575   5.000 -0.8550 -0.6067 -0.1235
  109MOL    H1721833   5.124   6.460   5.278  0.3188  1.2184 -1.5898
  109MOL    H1821834   5.211   6.322   5.318  0.7188  0.1019  0.2917
  109MOL    H1921835   5.328   6.325   5.086  1.4161  3.6073  0.5649
  109MOL    H2021836   5.145   6.647   4.930  1.7679 -0.6838 -0.0203
  109MOL    H2121837   5.063   6.563   5.066 -1.8861  1.3412 -0.9226
  109MOL    C2221838   5.123   6.256   5.088  0.1004  0.5707  0.4601
  109MOL    C2321839   5.159   6.149   4.986 -0.0655  0.6027 -0.0387
  109MOL    C2421840   5.151   6.207   4.840 -0.1651 -0.3225 -0.2580
  109MOL    O2521841   5.075   6.299   4.805  0.0869  0.0713 -0.7899
  109MOL    N2621842   5.239   6.159   4.754 -0.2006  0.4076 -0.7507
  109MOL    H2721843   5.024   6.298   5.071  0.0811  0.7255  0.9585
  109MOL    H2821844   5.122   6.201   5.182  0.7698 -1.3498 -0.6229
  109MOL    H2921845   5.263   6.119   4.997 -1.1046 -2.6226  1.7963
  109MOL    H3021846   5.238   6.201   4.663 -0.5694 -0.0280 -0.9506
  109MOL    H3121847   5.324   6.115   4.788  1.0541  3.7180  0.6871
  109MOL    C3221848   5.068   6.027   4.998 -0.0668  0.8809  0.1125
  109MOL    C3321849   4.925   6.038   4.950 -0.5952 -0.2546 -0.0616
  109MOL    C3421850   4.837   6.097   5.046 -0.2863  0.2218  0.9993
  109MOL    O3521851   4.775   6.198   5.016  0.0983 -0.5069 -0.2425
  109MOL    N3621852   4.815   6.038   5.160  0.0713 -0.3038 -0.3696
  109MOL    H3721853   5.068   5.985   5.098 -1.1517 -0.0849 -0.2855
  109MOL    H3821854   5.117   5.945   4.946 -0.6054  0.1468  0.7573
  109MOL    H3921855   4.920   6.111   4.869  0.0449 -0.5269 -0.3528
  109MOL    H4021856   4.757   6.081   5.231 -0.3119 -0.8848 -0.3334
  109MOL    H4121857   4.850   5.945   5.178 -1.6943 -1.2026 -1.4788
  109MOL    C4221858   4.886   5.896   4.905  0.1846 -0.2655  0.4037
  109MOL    C4321859   4.893   5.865   4.752 -0.4403 -0.3169  0.1149
  109MOL    C4421860   4.762   5.806   4.699 -0.3405 -0.2986 -0.5046
  109MOL    O4521861   4.675   5.877   4.652 -0.6687 -0.2648 -0.0632
  109MOL    N4621862   4.736   5.673   4.709 -0.3050 -0.4859  0.2594
  109MOL    H4721863   4.793   5.862   4.952  0.7705 -0.0279  1.7705
  109MOL    H4821864   4.948   5.825   4.961 -0.7895 -1.7078 -0.3093
  109MOL    H4921865   4.893   5.967   4.713 -1.1435  0.1049  1.1835
  109MOL    H5021866   4.653   5.634   4.667  0.0739  0.0176 -0.9845
  109MOL    H5121867   4.804   5.615   4.755  1.1969  0.1821 -1.0660
  109MOL    C5221868   5.021   5.788   4.707  0.6332 -0.4448 -0.4327
  109MOL    C5321869   5.047   5.785   4.554  0.0530  0.1753  0.5105
  109MOL    C5421870   4.960   5.682   4.485 -0.0788  0.1432 -0.4389
  109MOL    O5521871   4.954   5.569   4.527  0.0991 -0.3484  0.1576
  109MOL    N5621872   4.889   5.723   4.377  0.0943  0.4075  0.9426
  109MOL    H5721873   5.015   5.687   4.747  1.1271 -1.4324 -2.7231
  109MOL    H5821874   5.105   5.831   4.762 -1.1438  1.8525  0.5397
  109MOL    H5921875   5.023   5.881   4.508 -0.0480 -0.5387 -0.9859
  109MOL    H6021876   4.828   5.666   4.321  2.3802  0.1345 -1.3682
  109MOL    H6121877   4.897   5.820   4.350 -0.2510 -0.1760 -1.2738
  109MOL    C6221878   5.204   5.762   4.521 -0.4156  0.1113  0.4698
  109MOL    C6321879   5.272   5.877   4.444 -0.3671 -0.0911 -0.0213
  109MOL    C6421880   5.205   5.931   4.320 -0.0289  1.0343 -0.6836
  109MOL    O6521881   5.196   5.861   4.219 -0.2657  0.0855 -0.6409
  109MOL    N6621882   5.156   6.054   4.326  0.1868 -0.1685 -0.5404
  109MOL    H6721883   5.219   5.685   4.446 -2.4742  0.3425 -0.2045
  109MOL    H6821884   5.271   5.729   4.601 -0.1751  0.5716  0.4653
  109MOL    H6921885   5.274   5.953   4.522  1.5043 -1.0313  0.8540
  109MOL    H7021886   5.104   6.082   4.244 -2.3376 -0.9886  0.7441
  109MOL    H7121887   5.181   6.125   4.393 -0.9239 -0.0268 -0.2689
  109MOL    C7221888   5.421   5.836   4.416 -0.2148 -0.3746 -0.0367
  109MOL    C7321889   5.523   5.949   4.419  0.0896 -0.3930  0.7358
  109MOL    C7421890   5.653   5.915   4.347  0.3675 -0.2098  0.3990
  109MOL    O7521891   5.704   5.805   4.359 -0.0595 -0.0034 -0.0963
  109MOL    N7621892   5.700   6.006   4.263 -0.1589  0.6341  0.5469
  109MOL    H7721893   5.424   5.804   4.312  0.2612  3.2541 -1.2119
  109MOL    H7821894   5.445   5.753   4.482  1.5102 -0.0532 -0.2198
  109MOL    H7921895   5.478   6.023   4.352  1.3493 -0.8011 -0.6111
  109MOL    H8021896   5.798   5.995   4.241 -0.2866  2.0982 -0.7866
  109MOL    H8121897   5.659   6.094   4.237  1.5570  1.3366  0.1388
  109MOL    C8221898   5.553   6.014   4.559 -0.2004 -0.4254 -0.6315
  109MOL    C8321899   5.604   5.920   4.667 -0.4914 -0.7478 -0.0040
  109MOL    C8421900   5.505   5.921   4.797 -0.2369  0.5640 -0.1417
  109MOL    O8521901   5.467   6.026   4.849 -0.1052 -0.6863 -0.5444
  109MOL    N8621902   5.468   5.803   4.851 -0.4332 -0.2551  0.1375
  109MOL    H8721903   5.461   6.062   4.592  0.2779 -0.3604  0.6487
  109MOL    H8821904   5.622   6.098   4.547  0.3882 -0.7242  0.5413
  109MOL    H8921905   5.610   5.819   4.628 -2.9458 -0.3396 -1.5362
  109MOL    H9021906   5.482   5.719   4.797  0.0686 -1.3969  2.0044
  109MOL    H9121907   5.410   5.807   4.933 -3.0233 -0.8942 -1.5851
  109MOL    C9221908   5.739   5.962   4.742  0.0183 -0.1780 -0.0073
  109MOL    C9321909   5.863   5.907   4.671  0.3637  0.1713  0.1961
  109MOL    C9421910   5.870   5.753   4.680 -0.1850 -0.0512  0.7485
  109MOL    O9521911   5.914   5.707   4.782 -0.5168 -0.4211  0.4752
  109MOL    N9621912   5.815   5.680   4.580 -0.5353 -0.3454 -0.4240
  109MOL    H9721913   5.748   5.925   4.844  1.3753 -0.2481 -0.1393
  109MOL    H9821914   5.750   6.070   4.755  0.5564 -0.2273 -0.0185
  109MOL    H9921915   5.851   5.939   4.568  1.4618 -0.8640 -0.2618
  109MOL   H10021916   5.770   5.727   4.503 -0.5632 -0.5109 -0.5077
  109MOL   H10121917   5.815   5.580   4.595  1.4792 -0.2389  0.5326
  109MOL   C10221918   5.994   5.972   4.727 -0.5352 -0.1717  0.8360
  109MOL   C10321919   6.133   5.935   4.666 -0.3903 -0.0705  0.7667
  109MOL   C10421920   6.130   5.908   4.513  0.1200  0.1342 -0.2344
  109MOL   O10521921   6.190   5.812   4.468  0.3760  0.3618 -0.5227
  109MOL   N10621922   6.075   5.998   4.429  0.5386 -0.3177  0.2446
  109MOL   H10721923   5.987   5.975   4.836 -1.4161 -1.0790  0.8170
  109MOL   H10821924   5.995   6.075   4.691 -0.1383  0.1058  1.6307
  109MOL   H10921925   6.185   6.031   4.661  0.8418 -0.6779  1.8313
  109MOL   H11021926   6.109   5.986   4.335  3.3650 -0.9570  1.3198
  109MOL   H11121927   6.038   6.083   4.469 -2.1219 -0.7694 -1.1409
  109MOL   C11221928   6.217   5.837   4.745 -0.9759  0.1614 -0.2373
  109MOL   C11321929   6.263   5.891   4.892  0.5531 -0.8000  0.2992
  109MOL   C11421930   6.387   5.982   4.875 -0.3200 -0.3654  0.3386
  109MOL   O11521931   6.493   5.931   4.839 -0.0814 -0.5532  0.3954
  109MOL   N11621932   6.381   6.110   4.899 -0.3393  0.2082  0.8093
  109MOL   H11721933   6.308   5.815   4.690 -0.3364  2.4028 -0.1127
  109MOL   H11821934   6.176   5.735   4.741  3.2436 -1.6665  0.4188
  109MOL   H11921935   6.184   5.941   4.947 -1.0398 -0.9819 -1.7764
  109MOL   H12021936   6.461   6.158   4.861  0.4281 -0.8304  1.0962
  109MOL   H12121937   6.291   6.153   4.917 -1.1601 -1.1467  0.0458
  109MOL   C12221938   6.307   5.760   4.976 -0.2077 -0.0446 -0.8744
  109MOL   C12321939   6.198   5.659   5.042 -0.8938 -0.5416  0.6922
  109MOL   C12421940   6.076   5.727   5.105 -0.9246 -0.7999 -0.8426
  109MOL   O12521941   6.079   5.760   5.224  0.1037 -0.3121  0.4264
  109MOL   N12621942   5.969   5.758   5.031  0.6196  0.1995  0.2362
  109MOL   H12721943   6.371   5.799   5.055 -0.4310 -0.4071 -0.5135
  109MOL   H12821944   6.381   5.713   4.911  0.0109  0.3900 -0.9384
  109MOL   H12921945   6.161   5.598   4.959 -0.5013 -1.2735  1.0548
  109MOL   H13021946   5.883   5.785   5.077  0.4791  0.3570 -0.1218
  109MOL   H13121947   5.950   5.725   4.938 -2.4854 -0.3844  1.0540
  109MOL   C13221948   6.274   5.562   5.143  0.0020 -0.2034 -0.3286
  109MOL   C13321949   6.227   5.415   5.139  0.4581 -0.4157 -0.1246
  109MOL   C13421950   6.096   5.394   5.211  0.6183  0.2427 -0.7662
  109MOL   O13521951   6.075   5.434   5.325 -0.5109  0.2326 -0.3900
  109MOL   N13621952   6.009   5.309   5.156  0.2238 -0.2762  0.1457
  109MOL   H13721953   6.270   5.589   5.248 -0.9229 -1.1175 -0.1142
  109MOL   H13821954   6.380   5.561   5.121  0.7958 -1.1076  3.1599
  109MOL   H13921955   6.222   5.371   5.040  3.3585 -2.4345  0.5619
  109MOL   H14021956   5.929   5.277   5.209  0.7724 -1.0823  0.4995
  109MOL   H14121957   6.029   5.265   5.067  4.3926 -2.9598  2.2546
  109MOL   C14221958   6.332   5.323   5.206 -0.5508 -0.2208  0.1157
  109MOL   C14321959   6.450   5.297   5.117 -0.0560 -0.3825 -0.2271
  109MOL   C14421960   6.405   5.177   5.029 -0.6080 -0.3375 -0.5981
  109MOL   O14521961   6.378   5.072   5.086  0.0180 -0.2024 -0.7026
  109MOL   N14621962   6.397   5.181   4.895  0.6449  0.0090 -0.3649
  109MOL   H14721963   6.290   5.234   5.254  1.6260 -0.8567  0.8915
  109MOL   H14821964   6.359   5.375   5.298  0.7178 -1.9786  0.7534
  109MOL   H14921965   6.482   5.378   5.052 -0.9880  0.5109  0.4005
  109MOL   H15021966   6.399   5.095   4.842  1.8514 -0.6027  0.6251
  109MOL   H15121967   6.420   5.269   4.851 -0.0584  0.3292 -0.1001
  109MOL   C15221968   6.584   5.287   5.189 -0.4589  0.2973 -0.1065
  109MOL   C15321969   6.712   5.285   5.105 -0.0024 -0.2903  0.2184
  109MOL   C15421970   6.759   5.141   5.084 -0.4273  0.0218  0.1149
  109MOL   O15521971   6.744   5.055   5.172 -0.4261  0.0547 -0.9570
  109MOL   N15621972   6.807   5.103   4.966  0.2109 -0.1656 -0.1526
  109MOL   H15721973   6.571   5.204   5.259 -3.4315  3.0850  2.8848
  109MOL   H15821974   6.588   5.367   5.264  1.2546  1.1920 -1.1379
  109MOL   H15921975   6.691   5.334   5.010 -2.4814 -0.5308  0.6044
  109MOL   H16021976   6.803   5.172   4.892 -1.9119  1.6283  1.5833
  109MOL   H16121977   6.824   5.006   4.944  1.9376  0.7729 -3.3019
  109MOL   C16221978   6.827   5.369   5.171 -0.5748 -0.0907  0.0169
  109MOL   C16321979   6.818   5.519   5.142  0.3766 -0.5140  0.3059
  109MOL   C16421980   6.863   5.554   4.993 -0.6029 -0.1385 -0.1814
  109MOL   O16521981   6.943   5.482   4.930 -0.2079 -0.3586 -0.3967
  109MOL   N16621982   6.811   5.658   4.931 -0.1149 -0.0402 -0.0625
  109MOL   H16721983   6.925   5.334   5.140  0.3238  4.0563 -2.1319
  109MOL   H16821984   6.829   5.345   5.278  1.8094 -1.8570 -0.3878
  109MOL   H16921985   6.712   5.545   5.148  0.2230 -1.1259  0.3069
  109MOL   H17021986   6.770   5.733   4.985 -0.7492 -1.6060  1.7262
  109MOL   H17121987   6.824   5.672   4.832  1.0196 -0.3388  0.0414
  109MOL   C17221988   6.884   5.601   5.259  0.1232 -0.3820  0.0149
  109MOL   C17321989   6.830   5.749   5.262 -0.4188  0.6579  0.1672
  109MOL   C17421990   6.943   5.840   5.308 -0.0421 -0.5118  0.5970
  109MOL   O17521991   7.013   5.803   5.403 -0.6151  0.0725 -0.5731
  109MOL   N17621992   6.972   5.939   5.230 -0.4200  0.6018  0.3578
  109MOL   H17721993   6.992   5.598   5.244 -0.0684 -0.8051 -1.3854
  109MOL   H17821994   6.858   5.562   5.358 -0.0607  3.9386  1.7731
  109MOL   H17921995   6.803   5.769   5.159  0.1290  0.5938  0.0079
  109MOL   H18021996   7.059   5.986   5.249  0.3745 -0.3560 -0.8382
  109MOL   H18121997   6.915   5.954   5.148 -0.6414 -2.5979 -0.1544
  109MOL   C18221998   6.704   5.757   5.356 -0.6935  0.1155  0.5416
  109MOL   C18321999   6.584   5.840   5.323  0.7018 -0.1792  0.1637
  109MOL   C18422000   6.636   5.981   5.295 -0.5768  0.0065  0.8730
  109MOL   O18522001   6.686   6.045   5.382  0.0176 -0.4309 -0.4253
  109MOL   N18622002   6.614   6.043   5.184 -0.3125 -0.7004 -0.4455
  109MOL   H18722003   6.735   5.799   5.451 -1.7946  1.3794  0.3593
  109MOL   H18822004   6.672   5.655   5.377  1.5171 -0.6561  0.3189
  109MOL   H18922005   6.540   5.805   5.230  2.2418  0.5410 -0.8637
  109MOL   H19022006   6.574   5.997   5.103 -3.0676  2.2018 -0.8250
  109MOL   H19122007   6.644   6.140   5.181 -1.0566 -0.4211  0.9336
  109MOL   C19222008   6.476   5.840   5.436 -0.6285 -0.4227  0.0416
  109MOL   C19322009   6.345   5.900   5.382 -0.7990  0.9250  0.8058
  109MOL   C19422010   6.233   5.931   5.488 -0.1435  0.2868 -0.8701
  109MOL   O19522011   6.263   5.980   5.596 -0.3988 -0.4517 -0.1069
  109MOL   N19622012   6.107   5.908   5.451 -0.4636  0.4465 -0.3416
  109MOL   H19722013   6.513   5.893   5.523  1.9642 -1.1923 -0.5468
  109MOL   H19822014   6.456   5.736   5.461  0.7395 -0.9700 -1.1009
  109MOL   H19922015   6.374   5.995   5.338  0.7300  0.2997  0.4074
  109MOL   H20022016   6.090   5.853   5.368  1.5597 -0.2430 -0.3434
  109MOL   H20122017   6.023   5.928   5.503 -1.1322 -0.6379 -0.9730
  109MOL   H20222018   6.310   5.841   5.297 -1.8688  2.1686  0.3779
  110MOL     C122019   3.173   7.051   3.414  0.5357  0.3685 -0.3410
  110MOL     C222020   3.136   6.955   3.534  0.7941 -0.4595  0.4936
  110MOL     C322021   3.241   6.846   3.558  0.0189 -0.2508 -0.0810
  110MOL     O422022   3.239   6.748   3.491 -0.3170  0.0653 -0.1131
  110MOL     N522023   3.315   6.872   3.659 -0.0027  0.2512  0.1375
  110MOL     H622024   3.213   6.998   3.328  0.1574 -1.8081  0.7814
  110MOL     H722025   3.093   7.122   3.394 -0.2164  0.1151  1.6867
  110MOL     H822026   3.130   7.021   3.621 -0.7004  0.5751 -0.3647
  110MOL     H922027   3.303   6.960   3.708  2.3566  0.6810  0.0206
  110MOL    H1022028   3.389   6.808   3.684  0.3103  1.6933  3.2156
  110MOL    H1122029   3.257   7.112   3.448  0.8486  0.6526 -1.6095
  110MOL    C1222030   2.998   6.885   3.511  0.9003  0.3491 -0.0853
  110MOL    C1322031   2.944   6.810   3.627 -0.3263 -0.8433 -0.2491
  110MOL    C1422032   2.853   6.693   3.589  1.0924  0.1170 -0.0934
  110MOL    O1522033   2.745   6.666   3.646  0.9169  0.6539 -0.4609
  110MOL    N1622034   2.891   6.611   3.487  0.4971 -0.3078  0.1886
  110MOL    H1722035   3.008   6.822   3.423 -3.7459 -1.8651  0.8222
  110MOL    H1822036   2.926   6.958   3.475  0.3878  0.8505  1.8955
  110MOL    H1922037   3.027   6.767   3.683 -0.1736  0.1363  0.2839
  110MOL    H2022038   2.831   6.533   3.464  1.2201 -1.5755  2.4064
  110MOL    H2122039   2.986   6.616   3.454  0.3249  0.1762 -0.2403
  110MOL    C2222040   2.881   6.908   3.735 -0.3326  0.2814  0.0938
  110MOL    C2322041   2.892   6.852   3.876 -0.3855  0.0840 -0.0391
  110MOL    C2422042   2.785   6.881   3.975 -0.9664 -0.0455 -0.0628
  110MOL    O2522043   2.795   6.953   4.074 -0.1385  0.4787  0.2622
  110MOL    N2622044   2.665   6.829   3.945  0.6912 -0.3702  0.0135
  110MOL    H2722045   2.776   6.930   3.714 -0.8791 -1.5713  0.7333
  110MOL    H2822046   2.927   7.005   3.717 -1.7746  1.1156  0.7815
  110MOL    H2922047   2.868   6.746   3.874  0.5460 -0.1158 -2.5086
  110MOL    H3022048   2.637   6.788   3.857  1.2374 -1.6427  0.4314
  110MOL    H3122049   2.597   6.856   4.015  0.2961  0.4228 -0.6678
  110MOL    C3222050   3.037   6.884   3.935  0.2140 -0.4173 -0.1163
  110MOL    C3322051   3.077   6.803   4.061 -0.0381  0.2680 -0.4964
  110MOL    C3422052   3.207   6.849   4.131 -0.0070 -0.3449 -1.2472
  110MOL    O3522053   3.296   6.912   4.074 -0.0534 -0.5926 -0.3920
  110MOL    N3622054   3.218   6.839   4.265 -0.5599  0.3604 -0.5919
  110MOL    H3722055   3.046   6.992   3.949  3.1903 -0.5668 -0.4648
  110MOL    H3822056   3.114   6.863   3.861  1.0113 -4.5576  1.7143
  110MOL    H3922057   2.999   6.820   4.135  0.2065  2.2220 -0.6489
  110MOL    H4022058   3.154   6.781   4.317  0.8217  0.4055  1.1984
  110MOL    H4122059   3.295   6.872   4.321 -0.7133  1.5058 -1.0509
  110MOL    C4222060   3.080   6.654   4.011  0.2896  0.7142 -0.7140
  110MOL    C4322061   2.972   6.554   4.065  0.1398 -0.0237  0.6430
  110MOL    C4422062   3.020   6.505   4.202  0.2951 -0.6022 -0.1772
  110MOL    O4522063   3.133   6.464   4.221 -0.4961  0.7053  0.2110
  110MOL    N4622064   2.926   6.500   4.298  0.4102  0.4335 -0.1969
  110MOL    H4722065   3.182   6.626   4.036 -0.1539 -0.5539 -0.2701
  110MOL    H4822066   3.070   6.645   3.903 -0.8537  1.1127 -0.6518
  110MOL    H4922067   2.882   6.615   4.077  0.6506  0.9501 -0.3466
  110MOL    H5022068   2.830   6.523   4.276 -0.7719 -3.9257  0.0118
  110MOL    H5122069   2.945   6.463   4.390  0.3548  0.5820 -0.1260
  110MOL    C5222070   2.951   6.443   3.963 -0.4458  0.1789  0.0794
  110MOL    C5322071   2.836   6.342   3.982 -0.1554  0.5985  0.1800
  110MOL    C5422072   2.860   6.234   3.869  0.9382 -0.0599 -1.4069
  110MOL    O5522073   2.912   6.254   3.763  0.6750 -0.2460  0.6955
  110MOL    N5622074   2.825   6.111   3.896 -0.0699  0.3330 -0.9398
  110MOL    H5722075   3.047   6.392   3.968 -1.5314 -2.0432 -0.9653
  110MOL    H5822076   2.945   6.480   3.861 -0.0676  2.4905  0.8725
  110MOL    H5922077   2.842   6.289   4.077 -0.7551 -0.2004 -0.2158
  110MOL    H6022078   2.856   6.038   3.833  2.6718 -0.7812  1.5744
  110MOL    H6122079   2.789   6.081   3.985 -1.5081  0.4499 -1.4653
  110MOL    C6222080   2.703   6.419   3.953 -0.4565 -0.7416 -0.4513
  110MOL    C6322081   2.585   6.374   4.049 -0.4416 -0.1869  0.4517
  110MOL    C6422082   2.535   6.237   4.004 -0.4874  0.2901 -0.0828
  110MOL    O6522083   2.515   6.214   3.888  0.2207 -0.0047  0.3516
  110MOL    N6622084   2.517   6.146   4.098  0.2090 -0.0762  0.3125
  110MOL    H6722085   2.675   6.429   3.848  2.0135  0.8452 -0.9983
  110MOL    H6822086   2.720   6.521   3.987 -1.9246 -0.5835 -0.1483
  110MOL    H6922087   2.630   6.373   4.148 -0.0683  1.7477  0.3108
  110MOL    H7022088   2.520   6.166   4.197  2.0411 -0.8202  0.4355
  110MOL    H7122089   2.532   6.049   4.072  0.7622 -0.3070  1.4676
  110MOL    C7222090   2.473   6.481   4.040 -0.3104 -0.2813 -0.0613
  110MOL    C7322091   2.355   6.498   4.137 -0.5285  1.3496  0.0612
  110MOL    C7422092   2.277   6.625   4.113 -0.5513  0.5160 -0.1345
  110MOL    O7522093   2.252   6.708   4.199 -0.3073 -0.0551 -0.5150
  110MOL    N7622094   2.219   6.644   3.994  0.7940  0.2575 -0.2963
  110MOL    H7722095   2.416   6.468   3.949 -2.4843  1.6145  0.9918
  110MOL    H7822096   2.528   6.574   4.024 -2.7997  0.6258 -4.0412
  110MOL    H7922097   2.301   6.404   4.121  1.5997 -0.2821  2.1230
  110MOL    H8022098   2.170   6.730   3.978 -1.0917 -0.6651  0.3525
  110MOL    H8122099   2.238   6.584   3.915 -0.1865  0.1464 -0.4548
  110MOL    C8222100   2.403   6.476   4.289 -0.2557  0.3928 -0.1391
  110MOL    C8322101   2.472   6.595   4.371  0.2052 -0.1094 -0.3378
  110MOL    C8422102   2.597   6.664   4.303 -0.3976  0.0725 -0.1337
  110MOL    O8522103   2.684   6.606   4.244 -0.2206 -0.3923 -0.4003
  110MOL    N8622104   2.608   6.795   4.326 -0.0912  0.3202  0.2124
  110MOL    H8722105   2.463   6.386   4.300  0.9563  1.4283  2.2651
  110MOL    H8822106   2.318   6.454   4.354  0.4251 -0.3607  0.4902
  110MOL    H8922107   2.400   6.675   4.384 -1.0332 -1.0356 -1.2837
  110MOL    H9022108   2.531   6.837   4.376 -0.9698 -0.6854 -0.2644
  110MOL    H9122109   2.682   6.846   4.280  0.0307 -0.5779 -0.6104
  110MOL    C9222110   2.512   6.550   4.518 -0.6810  0.6520  0.4149
  110MOL    C9322111   2.402   6.519   4.624  0.1473  0.0088  0.2367
  110MOL    C9422112   2.348   6.647   4.677  0.1521  0.1032 -0.1066
  110MOL    O9522113   2.410   6.711   4.766  0.1946  0.5645 -0.2366
  110MOL    N9622114   2.245   6.695   4.614 -0.1199  0.0661  0.2947
  110MOL    H9722115   2.576   6.620   4.571  0.0322 -0.2580  0.7708
  110MOL    H9822116   2.565   6.457   4.496  0.4118  1.2222  0.6158
  110MOL    H9922117   2.325   6.465   4.569 -0.5124  1.9605 -0.8012
  110MOL   H10022118   2.207   6.779   4.656 -1.7651 -0.7845  0.5509
  110MOL   H10122119   2.194   6.638   4.548  0.5900 -1.4469  1.0354
  110MOL   C10222120   2.436   6.429   4.741 -0.5504 -0.0487 -0.0585
  110MOL   C10322121   2.568   6.458   4.817 -0.2268  0.1740 -0.4296
  110MOL   C10422122   2.680   6.385   4.754 -0.4966 -0.4985 -0.2382
  110MOL   O10522123   2.678   6.264   4.748  0.6884 -0.4556 -0.1998
  110MOL   N10622124   2.787   6.453   4.707  0.2365 -0.0525 -0.2621
  110MOL   H10722125   2.438   6.332   4.692  0.3108 -0.0352 -0.0533
  110MOL   H10822126   2.352   6.422   4.810 -2.1564  1.1357 -1.7952
  110MOL   H10922127   2.593   6.564   4.823  2.4787 -0.5193  1.7314
  110MOL   H11022128   2.862   6.396   4.671  0.3130  0.4706 -0.9367
  110MOL   H11122129   2.795   6.552   4.721  0.3459  0.1136 -1.4124
  110MOL   C11222130   2.560   6.421   4.967 -0.0993 -0.5118 -0.3107
  110MOL   C11322131   2.487   6.535   5.046 -0.0660  0.0566  0.7387
  110MOL   C11422132   2.575   6.654   5.069 -0.0124  0.0138  0.1787
  110MOL   O11522133   2.673   6.650   5.146 -0.1356  0.3250  0.4298
  110MOL   N11622134   2.534   6.762   5.004 -0.7908 -0.2587  0.1597
  110MOL   H11722135   2.661   6.404   5.004  0.3356  1.6632 -0.4217
  110MOL   H11822136   2.497   6.333   4.973 -1.3776  0.4778  1.3096
  110MOL   H11922137   2.402   6.562   4.982 -1.3309 -2.5903  1.2347
  110MOL   H12022138   2.474   6.747   4.924  1.8950 -0.9592 -1.8136
  110MOL   H12122139   2.582   6.851   5.003  2.4259 -1.8993  0.8012
  110MOL   C12222140   2.417   6.477   5.173  0.3229  0.7161 -0.7134
  110MOL   C12322141   2.503   6.394   5.268 -0.7555  0.3695  0.0294
  110MOL   C12422142   2.496   6.246   5.224  0.6809  1.4494 -0.1031
  110MOL   O12522143   2.387   6.186   5.235 -0.2777 -0.4260  0.5946
  110MOL   N12622144   2.607   6.191   5.184 -0.6221 -0.9344 -0.3316
  110MOL   H12722145   2.328   6.429   5.133  0.9408  0.6175 -2.0179
  110MOL   H12822146   2.375   6.554   5.236  0.2142 -0.8388  1.1689
  110MOL   H12922147   2.604   6.431   5.252 -0.8002  0.6080  0.2984
  110MOL   H13022148   2.695   6.240   5.191 -1.5998  0.8120 -0.1480
  110MOL   H13122149   2.598   6.102   5.136  0.0148 -0.6114 -1.0572
  110MOL   C13222150   2.452   6.397   5.416 -0.1088  0.0677  0.2588
  110MOL   C13322151   2.504   6.513   5.513 -0.1809  0.2490  0.7270
  110MOL   C13422152   2.652   6.522   5.504  0.3765  0.2271  0.6131
  110MOL   O13522153   2.728   6.424   5.493 -0.0030 -0.2961  0.8109
  110MOL   N13622154   2.707   6.642   5.499 -0.3527  0.2475 -0.3532
  110MOL   H13722155   2.473   6.302   5.465 -4.4833 -0.6163  1.0388
  110MOL   H13822156   2.343   6.407   5.414 -0.1579 -0.1414  1.6551
  110MOL   H13922157   2.473   6.608   5.469 -0.7523  0.2032  1.0222
  110MOL   H14022158   2.647   6.723   5.499  1.1358  1.3762  0.1262
  110MOL   H14122159   2.807   6.654   5.492 -0.0431 -0.3331  2.6281
  110MOL   C14222160   2.462   6.504   5.665  0.0182 -0.1835 -0.6525
  110MOL   C14322161   2.319   6.551   5.674  0.3358 -0.6678 -0.0377
  110MOL   C14422162   2.317   6.694   5.738  0.4293  0.3766 -0.3080
  110MOL   O14522163   2.384   6.728   5.835 -0.1912 -0.6664 -0.0442
  110MOL   N14622164   2.229   6.778   5.682  0.3072  0.4094 -0.1690
  110MOL   H14722165   2.534   6.554   5.729  0.9308  1.5647 -2.9830
  110MOL   H14822166   2.461   6.403   5.706  2.0181  0.2093  0.4351
  110MOL   H14922167   2.269   6.559   5.578 -0.0619  2.1852  0.3671
  110MOL   H15022168   2.237   6.878   5.693  2.3930  0.4211 -1.3939
  110MOL   H15122169   2.169   6.737   5.611  0.9722 -0.2316 -0.3658
  110MOL   C15222170   2.227   6.453   5.760 -0.3066  0.6939 -0.3458
  110MOL   C15322171   2.199   6.325   5.675  0.7431  0.3443  0.0935
  110MOL   C15422172   2.081   6.340   5.569  0.4798  0.4526  0.6090
  110MOL   O15522173   1.968   6.382   5.609 -0.2042 -0.2881 -0.5870
  110MOL   N15622174   2.112   6.297   5.446  0.4667 -0.0413  0.0606
  110MOL   H15722175   2.131   6.500   5.780 -0.0499  1.1447 -0.1802
  110MOL   H15822176   2.274   6.443   5.858 -0.6529  0.1488 -0.2326
  110MOL   H15922177   2.287   6.302   5.615  1.9105 -0.0361  1.9047
  110MOL   H16022178   2.204   6.266   5.419  0.5458  0.1763  0.0700
  110MOL   H16122179   2.038   6.284   5.379  1.2549  0.8327 -0.9950
  110MOL   C16222180   2.169   6.215   5.771 -0.1878 -0.0625 -0.0794
  110MOL   C16322181   2.186   6.071   5.720 -0.0999  0.8493 -0.1160
  110MOL   C16422182   2.103   5.976   5.801 -0.6521  0.2946 -0.9251
  110MOL   O16522183   2.104   5.973   5.929  0.8661  0.1803  0.3021
  110MOL   N16622184   2.018   5.901   5.736  0.9208  0.5741  0.3046
  110MOL   H16722185   2.069   6.242   5.803 -0.8587 -0.0706 -2.0856
  110MOL   H16822186   2.223   6.220   5.866  0.2101  1.9004 -0.3911
  110MOL   H16922187   2.160   6.055   5.615 -2.8036  0.5903  0.5406
  110MOL   H17022188   1.948   5.844   5.781 -2.4110  2.1219 -2.6662
  110MOL   H17122189   2.016   5.899   5.635 -4.3988 -0.6805  0.3132
  110MOL   C17222190   2.340   6.036   5.727 -0.1231 -0.2943 -0.5750
  110MOL   C17322191   2.396   5.940   5.609 -0.5598 -0.3000 -0.5799
  110MOL   C17422192   2.353   5.793   5.627  0.6351 -0.5157 -1.2457
  110MOL   O17522193   2.378   5.727   5.730 -0.3275 -0.2975  0.1986
  110MOL   N17622194   2.278   5.745   5.526 -0.6452 -0.4555  0.1587
  110MOL   H17722195   2.373   5.999   5.824  1.6429  0.9622 -0.6616
  110MOL   H17822196   2.400   6.127   5.730 -1.2560  0.4385  1.6310
  110MOL   H17922197   2.348   5.981   5.521  2.0413  0.0911 -1.8537
  110MOL   H18022198   2.248   5.808   5.453  0.2197  1.2614  1.2554
  110MOL   H18122199   2.243   5.651   5.537 -1.7390 -0.0015  0.5868
  110MOL   C18222200   2.553   5.953   5.598  0.5647 -0.2907  0.7780
  110MOL   C18322201   2.612   5.844   5.491  0.3067  0.2086 -0.5442
  110MOL   C18422202   2.768   5.839   5.477  0.0118  0.0528 -0.5947
  110MOL   O18522203   2.845   5.935   5.503 -0.4212 -0.4635 -0.5306
  110MOL   N18622204   2.820   5.721   5.446 -0.0846 -0.4145 -0.5420
  110MOL   H18722205   2.611   5.949   5.690  1.9988 -0.2570 -0.1059
  110MOL   H18822206   2.572   6.057   5.572 -1.3452  0.0699  0.7850
  110MOL   H18922207   2.583   5.743   5.522 -2.3196  0.9583 -0.4749
  110MOL   H19022208   2.765   5.636   5.434 -1.3602  0.1639  1.0460
  110MOL   H19122209   2.920   5.708   5.435  0.2664  0.0678  1.8322
  110MOL   C19222210   2.557   5.877   5.351 -0.0790 -0.7906 -0.3013
  110MOL   C19322211   2.566   5.772   5.242 -0.0129  0.4938 -0.1918
  110MOL   C19422212   2.521   5.828   5.104  0.3708 -0.6453  0.0639
  110MOL   O19522213   2.575   5.923   5.045  0.3376 -0.2256 -0.4060
  110MOL   N19622214   2.421   5.766   5.039 -0.5549 -0.3642 -0.1258
  110MOL   H19722215   2.605   5.969   5.318 -1.1768 -0.3416 -0.6617
  110MOL   H19822216   2.454   5.912   5.349  0.3725  0.5700  0.0124
  110MOL   H19922217   2.668   5.733   5.237 -0.5501 -1.0066  0.0790
  110MOL   H20022218   2.374   5.689   5.083  1.2465 -0.4004  1.8517
  110MOL   H20122219   2.397   5.801   4.947 -3.5264  1.1351  1.1645
  110MOL   H20222220   2.496   5.690   5.258  0.4696 -0.0333 -0.7427
  111MOL     C122221   3.474   2.620   0.349 -0.2332 -0.1644 -0.2847
  111MOL     C222222   3.382   2.494   0.361  0.1895 -0.0055  0.0626
  111MOL     C322223   3.452   2.380   0.440 -1.0068  0.2391  0.0737
  111MOL     O422224   3.479   2.397   0.556  0.4289  0.1656 -0.6861
  111MOL     N522225   3.503   2.271   0.371 -0.9540 -0.2016  0.4129
  111MOL     H622226   3.574   2.599   0.310  0.8513  1.3564  1.5792
  111MOL     H722227   3.426   2.695   0.286 -0.5204  0.4561  0.6748
  111MOL     H822228   3.305   2.527   0.430  0.1338 -0.1626  0.0744
  111MOL     H922229   3.552   2.196   0.417  1.0562 -0.7795 -2.5291
  111MOL    H1022230   3.479   2.257   0.274 -0.5570 -1.0637  0.4369
  111MOL    H1122231   3.502   2.666   0.444 -1.9282  3.6662 -1.5611
  111MOL    C1222232   3.315   2.441   0.232  0.6172 -0.5988 -0.2122
  111MOL    C1322233   3.206   2.538   0.174 -0.4577  0.0919 -0.0482
  111MOL    C1422234   3.085   2.570   0.271  0.8092 -0.3816  0.5477
  111MOL    O1522235   3.016   2.485   0.323  0.3999 -0.7484  0.3262
  111MOL    N1622236   3.068   2.694   0.308 -0.2341 -0.2413 -0.0800
  111MOL    H1722237   3.255   2.354   0.259  1.3674 -0.9030  0.5253
  111MOL    H1822238   3.384   2.410   0.154  1.8428  1.3837  0.0474
  111MOL    H1922239   3.256   2.631   0.147 -1.2206  0.3118 -0.7486
  111MOL    H2022240   2.986   2.709   0.365  0.7136 -1.0386  1.5141
  111MOL    H2122241   3.112   2.777   0.270 -0.4341 -0.5228 -0.9521
  111MOL    C2222242   3.150   2.468   0.048 -0.1556  1.0085  0.0749
  111MOL    C2322243   3.058   2.564   7.619 -0.1756 -0.2011  0.6846
  111MOL    C2422244   2.978   2.483   7.523 -0.3333  0.3316 -0.1054
  111MOL    O2522245   3.025   2.422   7.430  0.2719  0.2032  0.0074
  111MOL    N2622246   2.851   2.463   7.553  0.3805 -0.3202  0.2677
  111MOL    H2722247   3.089   2.384   0.081  0.2329  0.8699  0.4508
  111MOL    H2822248   3.224   2.432   7.633  0.8659 -1.2890  2.2146
  111MOL    H2922249   2.977   2.601   0.025 -0.1749 -0.3190  0.7546
  111MOL    H3022250   2.798   2.424   7.477  1.0437 -0.8406  0.0644
  111MOL    H3122251   2.802   2.511   7.627  1.0031  0.1205  0.3879
  111MOL    C3222252   3.135   2.680   7.549  0.8104 -0.6181 -1.0529
  111MOL    C3322253   3.118   2.823   7.615  0.3380 -1.0789 -0.5786
  111MOL    C3422254   2.992   2.895   7.561  0.4863  0.1776 -0.8694
  111MOL    O3522255   2.996   2.958   7.457  0.9394  0.0890 -0.2683
  111MOL    N3622256   2.878   2.890   7.626  0.1227 -0.3208  0.4326
  111MOL    H3722257   3.106   2.689   7.445 -0.8489  0.2030 -0.5408
  111MOL    H3822258   3.240   2.652   7.543  0.8303 -0.4622 -1.4551
  111MOL    H3922259   3.111   2.807   0.065 -0.3645  0.2097 -0.4320
  111MOL    H4022260   2.794   2.934   7.592  1.9813  1.3736 -2.1116
  111MOL    H4122261   2.861   2.829   0.049  0.8173 -1.7293 -0.4714
  111MOL    C4222262   3.245   2.917   7.595  0.4356  0.1446 -0.0502
  111MOL    C4322263   3.264   3.032   0.035 -0.1646  0.4980 -0.2571
  111MOL    C4422264   3.289   2.972   0.179 -0.1650  0.3462 -0.7009
  111MOL    O4522265   3.199   2.936   0.246 -0.3364 -0.1125 -0.8867
  111MOL    N4622266   3.416   2.972   0.234  0.0968 -0.4908 -0.2427
  111MOL    H4722267   3.252   2.944   7.490 -0.2421  2.0902  0.3810
  111MOL    H4822268   3.336   2.856   7.599 -0.7789 -1.7025 -0.0376
  111MOL    H4922269   3.359   3.076   0.006 -0.0182  0.1054 -0.3711
  111MOL    H5022270   3.435   2.960   0.333 -1.3830  2.2598  0.4152
  111MOL    H5122271   3.500   2.997   0.184  0.9987  0.5946  1.7485
  111MOL    C5222272   3.167   3.145   0.036 -0.0745  0.2870 -0.7748
  111MOL    C5322273   3.218   3.280   0.079  0.0409  0.4125 -0.1248
  111MOL    C5422274   3.229   3.293   0.234 -0.6615 -0.0864  0.0417
  111MOL    O5522275   3.132   3.302   0.302 -0.0308 -0.9589 -0.5438
  111MOL    N5622276   3.348   3.285   0.282  0.1214  0.8795 -0.5878
  111MOL    H5722277   3.082   3.130   0.103 -0.1503 -0.3055 -0.9939
  111MOL    H5822278   3.130   3.152   7.591 -1.7353 -0.0035 -0.2073
  111MOL    H5922279   3.316   3.293   0.033  0.4488 -1.3034  0.2129
  111MOL    H6022280   3.431   3.265   0.229 -1.3036 -2.2789 -1.7306
  111MOL    H6122281   3.349   3.254   0.378 -1.7327  0.3147 -0.7377
  111MOL    C6222282   3.123   3.396   0.025  0.3106 -0.5692 -0.9148
  111MOL    C6322283   3.191   3.536   0.020  0.5306  1.0124  0.5271
  111MOL    C6422284   3.106   3.653   0.066  0.4813  0.1604  0.3984
  111MOL    O6522285   3.028   3.711   7.646 -0.7107 -0.1718  0.2295
  111MOL    N6622286   3.125   3.692   0.198  0.3497  0.0566 -0.1953
  111MOL    H6722287   3.025   3.392   0.074  1.0387  0.5925  0.6832
  111MOL    H6822288   3.092   3.378   7.579 -0.5786 -0.5497 -0.6556
  111MOL    H6922289   3.263   3.525   0.101  1.0852 -3.1716 -0.4560
  111MOL    H7022290   3.077   3.775   0.231 -0.8578  0.5859 -3.1573
  111MOL    H7122291   3.185   3.634   0.255 -0.0767  0.0799  0.2766
  111MOL    C7222292   3.279   3.555   7.547  0.6634  0.1619 -0.0203
  111MOL    C7322293   3.428   3.572   7.572 -0.1249 -0.1699  0.4775
  111MOL    C7422294   3.451   3.679   0.017 -0.0497 -0.3757  0.0245
  111MOL    O7522295   3.482   3.654   0.132  0.0904  1.1111  0.2903
  111MOL    N7622296   3.425   3.805   7.637  0.2766 -0.9860  0.1338
  111MOL    H7722297   3.245   3.640   7.488  0.8501  1.4956  1.7677
  111MOL    H7822298   3.270   3.468   7.482  0.5287  0.3026 -0.1893
  111MOL    H7922299   3.465   3.476   7.609 -2.4149 -1.2680 -0.0054
  111MOL    H8022300   3.428   3.881   0.047  1.1068  0.2036 -1.2215
  111MOL    H8122301   3.398   3.835   7.544 -0.7567  2.5211  1.4827
  111MOL    C8222302   3.501   3.586   7.435 -0.2541  0.2328 -0.1503
  111MOL    C8322303   3.662   3.597   7.430  0.1277  0.0090 -0.3188
  111MOL    C8422304   3.701   3.745   7.430 -0.2047  0.1291 -0.2864
  111MOL    O8522305   3.681   3.812   7.333  0.2032  0.1127 -0.1975
  111MOL    N8622306   3.763   3.792   7.539  0.2378 -0.2445 -0.0063
  111MOL    H8722307   3.452   3.669   7.383  2.4409  1.2466 -1.1845
  111MOL    H8822308   3.472   3.500   7.375 -0.2336 -0.2980  0.5962
  111MOL    H8922309   3.705   3.539   7.512 -0.7414 -0.7867 -0.4188
  111MOL    H9022310   3.810   3.880   7.523  0.4019 -0.3413 -0.0516
  111MOL    H9122311   3.792   3.734   7.617 -2.4811 -1.9646 -0.1996
  111MOL    C9222312   3.712   3.539   7.299  0.0747  0.0313 -0.5390
  111MOL    C9322313   3.808   3.410   7.295  0.4637  0.3362 -0.2996
  111MOL    C9422314   3.728   3.292   7.355  1.4693  0.2326 -0.6554
  111MOL    O9522315   3.701   3.282   7.471  1.0175 -0.9624  0.8773
  111MOL    N9622316   3.674   3.208   7.269 -0.2535  0.1303 -0.5420
  111MOL    H9722317   3.765   3.617   7.245  0.9286 -0.6684 -0.7106
  111MOL    H9822318   3.631   3.522   7.228  0.1271  2.2092 -1.1540
  111MOL    H9922319   3.826   3.378   7.193 -1.7933 -0.1024 -0.5743
  111MOL   H10022320   3.687   3.220   7.169 -0.4949  1.4880 -0.4183
  111MOL   H10122321   3.602   3.145   7.302  0.5711 -1.4680 -1.7123
  111MOL   C10222322   3.944   3.425   7.366 -0.0147  0.3850 -0.1268
  111MOL   C10322323   4.035   3.538   7.303 -0.7068  0.6948 -0.3831
  111MOL   C10422324   4.072   3.503   7.162 -0.3345  0.9425  1.0264
  111MOL   O10522325   4.043   3.568   7.063  0.4083  0.4038  0.9415
  111MOL   N10622326   4.144   3.391   7.146  0.0309  0.1981  0.6828
  111MOL   H10722327   4.010   3.341   7.348 -0.4080  0.1154 -0.2998
  111MOL   H10822328   3.920   3.434   7.472  1.8585 -0.9175  0.4345
  111MOL   H10922329   3.973   3.624   7.276 -1.0564  0.8206  0.8068
  111MOL   H11022330   4.174   3.335   7.224  1.2662 -0.5609 -0.3114
  111MOL   H11122331   4.176   3.361   7.055 -0.1885  1.8221  0.0444
  111MOL   C11222332   4.161   3.580   7.391 -0.3626 -0.7347 -0.0264
  111MOL   C11322333   4.133   3.698   7.492 -0.4614  0.7903  0.6063
  111MOL   C11422334   4.098   3.827   7.417 -0.1474  0.7868 -0.0328
  111MOL   O11522335   4.003   3.894   7.458 -0.1411 -0.7135  0.7410
  111MOL   N11622336   4.166   3.868   7.306 -0.3675 -0.4156  0.2058
  111MOL   H11722337   4.244   3.601   7.323 -0.6782  3.1244  0.6828
  111MOL   H11822338   4.206   3.498   7.447  1.0765 -1.2340 -1.8319
  111MOL   H11922339   4.048   3.676   7.557  0.3847 -1.0170  1.1364
  111MOL   H12022340   4.237   3.811   7.263 -0.6045 -0.2533 -0.4095
  111MOL   H12122341   4.134   3.956   7.268 -0.2368 -1.1981 -1.7506
  111MOL   C12222342   4.248   3.724   7.590  0.0786  0.4349  0.1543
  111MOL   C12322343   4.231   3.855   0.023  0.2829  0.4545 -0.0102
  111MOL   C12422344   4.292   3.980   7.614  0.1105  0.3872 -0.4170
  111MOL   O12522345   4.416   3.996   7.615  0.3948 -0.7420 -0.2961
  111MOL   N12622346   4.213   4.073   7.572 -0.6525 -0.3884 -0.3560
  111MOL   H12722347   4.349   3.718   7.549  0.7644  2.5523  1.4256
  111MOL   H12822348   4.249   3.642   0.005  0.5103  1.2546  1.1048
  111MOL   H12922349   4.127   3.887   0.033 -0.0244 -0.9272  1.2578
  111MOL   H13022350   4.114   4.060   7.588 -0.9664  1.9609 -0.2709
  111MOL   H13122351   4.250   4.160   7.536 -1.6207  0.0165 -0.3953
  111MOL   C13222352   4.295   3.849   0.166  0.0309 -0.0177  0.5032
  111MOL   C13322353   4.254   3.959   0.277  0.2375  0.0445  0.2414
  111MOL   C13422354   4.301   4.104   0.267  0.5680 -0.0247  0.2090
  111MOL   O13522355   4.230   4.202   0.298 -0.2143  0.1539  0.0301
  111MOL   N13622356   4.425   4.130   0.226 -0.3322  0.0904  0.1016
  111MOL   H13722357   4.401   3.826   0.153 -0.1426  0.1042 -1.3742
  111MOL   H13822358   4.237   3.762   0.198  0.2605 -0.0696  0.7795
  111MOL   H13922359   4.147   3.975   0.288  0.0877 -1.4913  1.0560
  111MOL   H14022360   4.444   4.228   0.206 -0.9830 -0.2398 -2.3059
  111MOL   H14122361   4.480   4.054   0.188 -2.2792 -1.6946  0.8041
  111MOL   C14222362   4.302   3.904   0.416  0.3398 -0.0367  0.7411
  111MOL   C14322363   4.225   3.951   0.540 -0.2276  0.0200  0.6942
  111MOL   C14422364   4.313   3.938   0.666 -0.0463  0.2299  0.1689
  111MOL   O14522365   4.434   3.970   0.667 -0.0704  0.1566  0.1712
  111MOL   N14622366   4.254   3.890   0.775  0.3565  0.5074  0.3690
  111MOL   H14722367   4.407   3.934   0.423 -0.0015  1.2322  0.5243
  111MOL   H14822368   4.305   3.795   0.410 -3.8784 -0.1064 -2.4390
  111MOL   H14922369   4.214   4.060   0.535  0.7686  0.1896  1.8204
  111MOL   H15022370   4.154   3.877   0.782  0.1095  2.1386  0.0459
  111MOL   H15122371   4.313   3.871   0.855  1.0592  1.1269 -0.0006
  111MOL   C15222372   4.090   3.870   0.545  0.3290  0.3272  0.6890
  111MOL   C15322373   3.964   3.952   0.565  0.6986  0.3961 -0.5957
  111MOL   C15422374   3.980   4.066   0.674 -0.3908 -0.2912  0.3818
  111MOL   O15522375   4.002   4.035   0.794  0.6184 -0.4145 -0.1468
  111MOL   N15622376   3.974   4.187   0.632  0.2829 -0.0541  0.7352
  111MOL   H15722377   4.078   3.789   0.616  3.1905 -2.4797 -1.8854
  111MOL   H15822378   4.073   3.816   0.452  0.2329 -0.5846  1.2385
  111MOL   H15922379   3.947   3.998   0.468  4.2940 -0.7660 -1.8665
  111MOL   H16022380   3.957   4.264   0.694 -0.1846  0.6408 -0.2526
  111MOL   H16122381   3.939   4.202   0.538  1.6336  0.6477  0.3234
  111MOL   C16222382   3.836   3.872   0.598 -0.3901  0.5693  0.8161
  111MOL   C16322383   3.783   3.784   0.490  0.0794  0.0644  0.0344
  111MOL   C16422384   3.677   3.852   0.392  0.6470 -0.2215  0.0522
  111MOL   O16522385   3.571   3.902   0.435  0.3417  0.2801 -0.0072
  111MOL   N16622386   3.691   3.842   0.262 -1.0960  0.2434  0.4311
  111MOL   H16722387   3.757   3.939   0.631 -0.9042  0.8556 -0.9566
  111MOL   H16822388   3.852   3.825   0.695 -0.0189 -0.7013  0.1501
  111MOL   H16922389   3.862   3.741   0.429  0.5298 -1.0270  1.3578
  111MOL   H17022390   3.764   3.781   0.230 -3.1746 -2.4943  0.7385
  111MOL   H17122391   3.617   3.869   0.198 -1.2912 -0.1515  0.4881
  111MOL   C17222392   3.721   3.661   0.564 -0.4489 -0.4756  0.0466
  111MOL   C17322393   3.672   3.558   0.461  0.6350  0.0442  0.3496
  111MOL   C17422394   3.528   3.523   0.501 -0.5232 -0.0679 -0.9070
  111MOL   O17522395   3.503   3.466   0.605  0.2428  0.3410  0.5454
  111MOL   N17622396   3.438   3.564   0.412 -0.5016  0.3501 -0.3202
  111MOL   H17722397   3.642   3.697   0.629 -1.0318  0.0448 -0.9381
  111MOL   H17822398   3.797   3.615   0.628 -0.1186  1.0360  0.7672
  111MOL   H17922399   3.673   3.600   0.361  1.6448 -2.1743 -0.6076
  111MOL   H18022400   3.462   3.613   0.327  3.1869  3.2295  2.1986
  111MOL   H18122401   3.344   3.537   0.438 -0.7220  0.9884 -0.4394
  111MOL   C18222402   3.769   3.435   0.448 -0.2034  0.5106  0.6355
  111MOL   C18322403   3.706   3.325   0.355  0.6955  0.3908 -0.0978
  111MOL   C18422404   3.770   3.187   0.372 -0.1419 -0.1569  0.4058
  111MOL   O18522405   3.889   3.175   0.395 -0.1578 -0.6300  0.4865
  111MOL   N18622406   3.699   3.082   0.395  0.4215  0.0315  0.3592
  111MOL   H18722407   3.779   3.393   0.549 -0.0640  0.8104  0.7460
  111MOL   H18822408   3.872   3.459   0.424  0.5817  0.4363  3.6427
  111MOL   H18922409   3.602   3.305   0.377  0.1443  2.1284 -1.0102
  111MOL   H19022410   3.602   3.094   0.421  0.3840  1.0476 -0.2360
  111MOL   H19122411   3.749   2.998   0.422 -2.2593 -1.9939 -0.8099
  111MOL   C19222412   3.696   3.363   0.207  0.5835  0.6848  0.2072
  111MOL   C19322413   3.823   3.397   0.135  0.0437  0.2605  0.4130
  111MOL   C19422414   3.889   3.533   0.155 -0.2293 -0.0871  0.2620
  111MOL   O19522415   3.831   3.636   0.113  0.3797  0.0312  0.0328
  111MOL   N19622416   4.012   3.537   0.211 -0.1681  0.0052 -0.1503
  111MOL   H19722417   3.632   3.450   0.191 -1.1150 -0.5756 -0.0177
  111MOL   H19822418   3.646   3.285   0.150 -0.7841 -0.1391  2.4288
  111MOL   H19922419   3.889   3.312   0.153 -1.1611 -1.3999 -2.6023
  111MOL   H20022420   4.037   3.445   0.245 -1.8861 -0.1914  0.6222
  111MOL   H20122421   4.051   3.629   0.226  2.6998 -1.4770  2.0056
  111MOL   H20222422   3.792   3.399   0.030  0.8690  0.6962  0.1692
  112MOL     C122423   2.516   1.756   6.197 -0.0807  0.1375 -0.0490
  112MOL     C222424   2.659   1.733   6.249 -0.7365  0.8202  0.3831
  112MOL     C322425   2.708   1.587   6.264  0.1345  0.6016 -0.2426
  112MOL     O422426   2.827   1.550   6.280  0.4947  0.2927 -0.1958
  112MOL     N522427   2.613   1.497   6.234 -0.3551  0.5980 -0.0221
  112MOL     H622428   2.443   1.732   6.274  0.1580 -0.7785 -0.0945
  112MOL     H722429   2.496   1.854   6.154  0.7567 -0.1947 -1.2418
  112MOL     H822430   2.715   1.782   6.170  0.0502 -1.0647 -0.2591
  112MOL     H922431   2.638   1.399   6.235  1.8444  1.1365  0.1584
  112MOL    H1022432   2.521   1.524   6.202  0.1612  0.4819 -1.6693
  112MOL    H1122433   2.491   1.695   6.110 -0.9598  1.3073 -0.6357
  112MOL    C1222434   2.694   1.833   6.371  0.1000  0.2111  0.2086
  112MOL    C1322435   2.579   1.892   6.455  0.2001  0.3192  0.0624
  112MOL    C1422436   2.636   2.004   6.549  0.1492 -0.5255  0.2169
  112MOL    O1522437   2.741   1.984   6.604  0.1736 -0.5750  0.4931
  112MOL    N1622438   2.579   2.120   6.547  0.1666 -0.3033 -0.4574
  112MOL    H1722439   2.749   1.920   6.334  0.7531 -0.8863 -1.4851
  112MOL    H1822440   2.754   1.784   6.448 -1.8657 -1.6048  0.6298
  112MOL    H1922441   2.516   1.939   6.380  0.9916 -1.8031 -1.9897
  112MOL    H2022442   2.492   2.135   6.498 -0.9457 -1.3030  1.1576
  112MOL    H2122443   2.615   2.194   6.605 -0.0181 -0.7635  0.2527
  112MOL    C2222444   2.513   1.777   6.542 -0.1771 -0.4785  0.0362
  112MOL    C2322445   2.358   1.776   6.565 -0.0802 -0.0818  0.3171
  112MOL    C2422446   2.299   1.897   6.636  0.5464 -0.7298 -0.0789
  112MOL    O2522447   2.358   1.958   6.719 -0.3606 -0.1413 -0.1183
  112MOL    N2622448   2.173   1.927   6.611  0.3925 -0.4287  0.4063
  112MOL    H2722449   2.571   1.783   6.634  0.1976 -0.6282 -0.1854
  112MOL    H2822450   2.538   1.682   6.496 -3.1268 -1.3721  0.2153
  112MOL    H2922451   2.307   1.771   6.468  2.2021 -0.2258 -0.8991
  112MOL    H3022452   2.113   1.877   6.548  0.2322 -1.9271  1.7243
  112MOL    H3122453   2.129   1.989   6.678 -1.1885  0.2125 -1.2096
  112MOL    C3222454   2.312   1.652   6.651 -0.1974 -0.5240 -0.0248
  112MOL    C3322455   2.314   1.512   6.575  0.2921 -0.2259  0.5882
  112MOL    C3422456   2.187   1.503   6.485  0.1876 -0.1028 -0.2143
  112MOL    O3522457   2.072   1.499   6.534  0.0813 -0.3308  0.2552
  112MOL    N3622458   2.204   1.499   6.350 -0.2014 -0.4313  0.0933
  112MOL    H3722459   2.213   1.659   6.695 -0.2293 -1.6511  0.0928
  112MOL    H3822460   2.379   1.648   6.737 -0.7594 -2.7856  0.3353
  112MOL    H3922461   2.405   1.515   6.515 -0.3456  2.0304 -0.3326
  112MOL    H4022462   2.294   1.496   6.305  0.2462  0.6275  0.9279
  112MOL    H4122463   2.124   1.484   6.290  0.0507 -0.7953 -0.1540
  112MOL    C4222464   2.324   1.393   6.677 -0.9728  0.2160 -0.4000
  112MOL    C4322465   2.421   1.279   6.631 -0.5483 -0.4398 -0.3840
  112MOL    C4422466   2.340   1.183   6.546  0.9239 -0.0986  0.2872
  112MOL    O4522467   2.241   1.127   6.589  0.3815 -0.2496 -0.4512
  112MOL    N4622468   2.385   1.170   6.420 -0.2180  0.6682  1.0611
  112MOL    H4722469   2.227   1.354   6.707 -0.0210 -0.4064  1.9499
  112MOL    H4822470   2.362   1.430   6.771 -1.3995  2.0043 -0.9223
  112MOL    H4922471   2.489   1.325   6.559 -0.1497  0.2232  0.4103
  112MOL    H5022472   2.464   1.226   6.390  1.6380 -1.8247  1.1647
  112MOL    H5122473   2.342   1.112   6.349 -2.3550  2.8860  0.4917
  112MOL    C5222474   2.518   1.217   6.728  0.8287 -0.0630 -0.0374
  112MOL    C5322475   2.653   1.284   6.751 -0.7061 -0.3218 -0.2745
  112MOL    C5422476   2.755   1.189   6.814 -0.7194 -0.1191  0.4434
  112MOL    O5522477   2.734   1.140   6.919 -0.1509 -0.2014 -0.3011
  112MOL    N5622478   2.879   1.187   6.769  0.1409 -0.2930  0.4557
  112MOL    H5722479   2.530   1.110   6.709 -1.4589 -0.4400  0.5472
  112MOL    H5822480   2.467   1.216   6.824  1.3892  2.6485  0.3271
  112MOL    H5922481   2.688   1.289   6.648 -4.3678  0.7020 -1.5640
  112MOL    H6022482   2.899   1.229   6.679  2.1761 -0.6677  0.7002
  112MOL    H6122483   2.961   1.155   6.819  1.5666  0.8005 -1.1322
  112MOL    C6222484   2.643   1.422   6.819  0.0314  0.4112  0.6466
  112MOL    C6322485   2.770   1.508   6.838  0.8455 -0.3211 -0.0148
  112MOL    C6422486   2.730   1.615   6.937  0.7760  0.3157 -0.3195
  112MOL    O6522487   2.652   1.701   6.897  0.1583  0.4384 -0.3221
  112MOL    N6622488   2.765   1.599   7.066  0.4555  0.3409 -0.0964
  112MOL    H6722489   2.580   1.403   6.905 -1.2655  1.1315 -0.1207
  112MOL    H6822490   2.580   1.492   6.763  2.0981  0.4065 -1.8015
  112MOL    H6922491   2.827   1.439   6.900 -0.3135 -1.3707 -0.0958
  112MOL    H7022492   2.813   1.515   7.092 -0.6935 -0.4777 -0.5862
  112MOL    H7122493   2.734   1.669   7.132 -0.2224  0.1468 -0.2107
  112MOL    C7222494   2.839   1.554   6.706 -0.1561 -0.3740 -0.1793
  112MOL    C7322495   2.990   1.527   6.694 -1.3628 -0.4752  0.4465
  112MOL    C7422496   3.076   1.634   6.767 -0.1040  0.1579  0.4438
  112MOL    O7522497   3.085   1.748   6.724  0.4119 -0.1972  0.1239
  112MOL    N7622498   3.140   1.603   6.878 -0.1626  0.2277 -0.0578
  112MOL    H7722499   2.818   1.659   6.685 -0.1298 -0.1422  0.9084
  112MOL    H7822500   2.775   1.502   6.635 -0.7592  0.3973 -0.2105
  112MOL    H7922501   3.028   1.432   6.731  4.2297  1.7650  0.9976
  112MOL    H8022502   3.203   1.665   6.927 -1.4288  0.2425  1.5858
  112MOL    H8122503   3.128   1.509   6.912  1.5290  0.8470  2.4039
  112MOL    C8222504   3.031   1.522   6.545  0.6514 -0.2773  0.5358
  112MOL    C8322505   3.160   1.458   6.494  0.5991 -1.8892  0.0286
  112MOL    C8422506   3.149   1.304   6.490  0.4710  0.1540  0.3336
  112MOL    O8522507   3.124   1.242   6.591  0.1343 -0.8136 -0.0497
  112MOL    N8622508   3.160   1.238   6.374  0.2626  0.2318 -0.9600
  112MOL    H8722509   3.017   1.624   6.509 -0.9193 -0.0339  1.7808
  112MOL    H8822510   2.949   1.465   6.500  0.8762  0.7253 -1.1838
  112MOL    H8922511   3.162   1.487   6.389 -0.9027  1.0736  0.7565
  112MOL    H9022512   3.160   1.137   6.383  1.9294  0.2633 -0.4335
  112MOL    H9122513   3.202   1.287   6.297  1.0582  0.5319 -0.3422
  112MOL    C9222514   3.289   1.505   6.569 -0.1269 -0.2558  0.0778
  112MOL    C9322515   3.426   1.488   6.494 -0.6238 -0.0532 -0.0356
  112MOL    C9422516   3.480   1.341   6.522  0.0395 -0.3359  0.3600
  112MOL    O9522517   3.455   1.281   6.624 -0.1655  0.3134  0.2558
  112MOL    N9622518   3.569   1.290   6.434  0.2401 -0.2901 -0.1115
  112MOL    H9722519   3.300   1.454   6.665 -0.3941 -2.0911 -0.8448
  112MOL    H9822520   3.275   1.610   6.594  0.6054 -0.3512  0.9211
  112MOL    H9922521   3.417   1.498   6.386 -1.1610 -0.6933 -0.0503
  112MOL   H10022522   3.609   1.341   6.357  1.6211  2.9152  2.6030
  112MOL   H10122523   3.613   1.202   6.458  0.0029  0.0266  1.5206
  112MOL   C10222524   3.529   1.594   6.548  0.2473 -0.4523 -0.0512
  112MOL   C10322525   3.511   1.739   6.504 -0.0152 -0.3846 -0.2836
  112MOL   C10422526   3.508   1.747   6.353 -0.6062  0.5083  0.1073
  112MOL   O10522527   3.596   1.690   6.295 -0.0919  1.1459 -0.3992
  112MOL   N10622528   3.417   1.813   6.290  0.0093 -0.6081 -0.4007
  112MOL   H10722529   3.626   1.562   6.511 -0.3441 -0.8294 -1.3005
  112MOL   H10822530   3.541   1.580   6.655 -2.7852  0.4155  0.4551
  112MOL   H10922531   3.411   1.762   6.541  0.0129 -2.1606  0.9864
  112MOL   H11022532   3.348   1.875   6.330 -0.6878 -0.8627 -1.2001
  112MOL   H11122533   3.409   1.808   6.189  0.0329 -0.3257 -0.4176
  112MOL   C11222534   3.616   1.826   6.569  1.1487 -0.1143 -0.2269
  112MOL   C11322535   3.548   1.958   6.633 -0.1948  0.7158  0.3561
  112MOL   C11422536   3.468   1.913   6.755 -0.9566  0.2905 -0.6757
  112MOL   O11522537   3.526   1.865   6.850  0.0457 -0.5544 -0.2970
  112MOL   N11622538   3.333   1.922   6.763 -0.3597  1.0192 -0.0065
  112MOL   H11722539   3.689   1.866   6.498  1.0095 -2.6543 -1.8700
  112MOL   H11822540   3.674   1.762   6.636  0.1772 -1.0512 -0.2685
  112MOL   H11922541   3.628   2.019   6.673 -1.4678  1.7772  1.3081
  112MOL   H12022542   3.278   1.996   6.723 -1.2114  0.8429  0.8307
  112MOL   H12122543   3.293   1.863   6.834 -0.9610 -1.8288 -2.5939
  112MOL   C12222544   3.478   2.052   6.529 -0.0398  0.3949 -0.0905
  112MOL   C12322545   3.565   2.109   6.410  0.3595 -0.4024  0.3344
  112MOL   C12422546   3.688   2.180   6.472  0.2936  1.3378  0.0305
  112MOL   O12522547   3.671   2.280   6.542 -0.1361  0.6384 -0.1418
  112MOL   N12622548   3.808   2.135   6.449  0.1925 -0.2451  0.3056
  112MOL   H12722549   3.423   2.128   6.584 -0.9963 -1.2376  1.2676
  112MOL   H12822550   3.395   1.984   6.507  1.2366 -1.7513  1.5207
  112MOL   H12922551   3.579   2.017   6.353  0.7724 -0.8826  1.1908
  112MOL   H13022552   3.826   2.064   6.379 -0.3772 -1.1448  1.0476
  112MOL   H13122553   3.885   2.192   6.481  0.2838 -0.5405  0.6173
  112MOL   C13222554   3.479   2.202   6.322 -0.1061  0.1463  0.5652
  112MOL   C13322555   3.525   2.215   6.174 -0.3440  0.0711 -0.2089
  112MOL   C13422556   3.477   2.351   6.130 -0.1224 -0.5813 -0.7853
  112MOL   O13522557   3.357   2.373   6.109 -0.2225 -0.5718 -0.2108
  112MOL   N13622558   3.561   2.457   6.108  0.1750  0.4057 -0.0617
  112MOL   H13722559   3.489   2.297   6.374 -0.2205  0.1216  0.6348
  112MOL   H13822560   3.375   2.170   6.329 -0.0886  0.4987  2.7634
  112MOL   H13922561   3.634   2.221   6.176 -0.4047  2.0333 -1.3022
  112MOL   H14022562   3.524   2.549   6.084  0.8018  0.9796  1.1314
  112MOL   H14122563   3.661   2.451   6.119  0.2301  1.1587 -0.0854
  112MOL   C14222564   3.475   2.104   6.076 -0.6321 -0.1969  0.6310
  112MOL   C14322565   3.546   2.102   5.933 -0.0214 -0.0190  1.0801
  112MOL   C14422566   3.473   1.995   5.845  0.1337 -0.0959 -0.0208
  112MOL   O14522567   3.422   1.890   5.894  0.0623  0.0246 -0.6941
  112MOL   N14622568   3.447   2.017   5.718 -0.0124 -0.3775  0.2465
  112MOL   H14722569   3.366   2.112   6.076 -0.6886 -0.9860 -0.0860
  112MOL   H14822570   3.496   2.007   6.120  0.8465 -0.8073 -1.3626
  112MOL   H14922571   3.526   2.197   5.882  0.0026  0.5566  2.1259
  112MOL   H15022572   3.401   1.946   5.664  0.9078 -1.5204  0.9356
  112MOL   H15122573   3.479   2.103   5.677 -0.9547  1.1265  2.5830
  112MOL   C15222574   3.700   2.075   5.942 -1.0246  0.1645  0.2470
  112MOL   C15322575   3.769   2.096   5.803  0.2769  0.4708 -0.2919
  112MOL   C15422576   3.908   2.026   5.800  0.1282 -0.6246 -0.0501
  112MOL   O15522577   3.981   2.030   5.902 -0.1069  0.7888  0.1715
  112MOL   N15622578   3.945   1.962   5.688 -0.7841 -0.1768 -0.5036
  112MOL   H15722579   3.704   1.969   5.969  2.5942 -0.1757 -1.3743
  112MOL   H15822580   3.752   2.122   6.025 -0.7828  0.3710 -0.0204
  112MOL   H15922581   3.698   2.066   5.726  0.0164  0.7079 -0.1503
  112MOL   H16022582   3.913   2.009   5.605  2.8650  3.3508 -0.0566
  112MOL   H16122583   4.026   1.901   5.687 -1.8718 -1.8050  2.7783
  112MOL   C16222584   3.783   2.249   5.782  0.1726 -0.2690  0.5758
  112MOL   C16322585   3.720   2.315   5.659  0.1511 -0.1963 -0.0563
  112MOL   C16422586   3.736   2.240   5.526  0.6746 -0.2908 -0.1653
  112MOL   O16522587   3.836   2.177   5.502  0.1194 -0.7071  0.0783
  112MOL   N16622588   3.637   2.222   5.443  0.5877 -0.6616  0.3226
  112MOL   H16722589   3.888   2.278   5.780  0.1558  0.1096  3.2199
  112MOL   H16822590   3.750   2.308   5.867  0.1809 -1.0592  1.1274
  112MOL   H16922591   3.613   2.326   5.671  0.1251 -1.1509  0.6747
  112MOL   H17022592   3.548   2.244   5.484  0.3339 -1.2889  0.1131
  112MOL   H17122593   3.644   2.160   5.364 -1.3872  1.0508 -1.2382
  112MOL   C17222594   3.765   2.457   5.636  0.2836  0.4489  0.0922
  112MOL   C17322595   3.706   2.573   5.723 -0.5924  0.8494  0.5607
  112MOL   C17422596   3.550   2.581   5.707 -0.2753  0.7263 -0.4315
  112MOL   O17522597   3.488   2.559   5.598 -0.4576  0.0390 -0.2558
  112MOL   N17622598   3.484   2.598   5.814 -0.6371 -0.4473 -0.2912
  112MOL   H17722599   3.738   2.485   5.534  0.3826 -2.0265 -0.6371
  112MOL   H17822600   3.874   2.458   5.638  0.2758  0.1756  0.7225
  112MOL   H17922601   3.726   2.555   5.828 -1.9142 -2.2525  0.3674
  112MOL   H18022602   3.385   2.612   5.804 -0.2148  0.5586 -3.6523
  112MOL   H18122603   3.542   2.632   5.890  0.2408 -0.7729 -0.7996
  112MOL   C18222604   3.780   2.714   5.684 -0.2094 -0.0934  0.3607
  112MOL   C18322605   3.925   2.716   5.740  0.2689  0.3336 -0.4340
  112MOL   C18422606   3.934   2.789   5.871 -0.2706  0.1848 -0.0202
  112MOL   O18522607   3.958   2.729   5.972 -0.1420 -0.3428  0.5506
  112MOL   N18622608   3.897   2.917   5.864 -0.1129 -0.5541  0.1073
  112MOL   H18722609   3.734   2.804   5.724  0.1248  0.6186 -0.8159
  112MOL   H18822610   3.768   2.724   5.576 -1.8508  2.4651  0.7535
  112MOL   H18922611   3.957   2.613   5.750  0.3344  0.3123 -0.8442
  112MOL   H19022612   3.906   2.972   5.948  0.3014  0.4594 -0.5913
  112MOL   H19122613   3.869   2.959   5.777  2.9467 -1.8163 -1.5926
  112MOL   C19222614   4.005   2.777   5.627  0.1801 -0.1055 -0.2937
  112MOL   C19322615   4.042   2.675   5.511  0.4123  0.1020  0.0363
  112MOL   C19422616   4.090   2.737   5.381 -0.1236  0.0769 -0.0975
  112MOL   O19522617   4.055   2.856   5.354  0.0189 -0.0259  0.2761
  112MOL   N19622618   4.163   2.669   5.296 -0.5822 -0.4742  0.0588
  112MOL   H19722619   4.100   2.818   5.661  0.5263  0.9128 -2.3680
  112MOL   H19822620   3.949   2.858   5.582  1.9617  0.1247 -2.2059
  112MOL   H19922621   4.103   2.596   5.553 -0.8506 -1.0191 -0.2057
  112MOL   H20022622   4.182   2.700   5.202 -2.0554 -0.1557 -0.1457
  112MOL   H20122623   4.196   2.574   5.313  0.7620 -0.1565 -0.7262
  112MOL   H20222624   3.946   2.626   5.493 -0.8572  1.7206  2.0893
  113MOL     C122625   1.745   7.159   6.523  0.1257 -0.1768  0.2154
  113MOL     C222626   1.826   7.180   6.657 -1.0309 -0.0945 -0.1984
  113MOL     C322627   1.971   7.203   6.621  0.0076  0.3003 -0.2033
  113MOL     O422628   2.032   7.118   6.555 -0.3765 -0.2093  0.0405
  113MOL     N522629   2.036   7.313   6.656  0.5386 -0.3291 -0.2970
  113MOL     H622630   1.768   7.241   6.455 -0.3556 -0.0856  0.1566
  113MOL     H722631   1.775   7.062   6.484  1.3079  0.0816  0.4806
  113MOL     H822632   1.788   7.269   6.707 -2.1827 -0.7153  0.0483
  113MOL     H922633   2.003   7.374   6.729  0.0498 -0.8274 -0.1010
  113MOL    H1022634   2.134   7.307   6.631  0.5540 -1.4343  0.0250
  113MOL    H1122635   1.639   7.156   6.551  0.4947 -2.9727  1.4358
  113MOL    C1222636   1.795   7.061   6.751 -0.7652  0.7511 -0.3512
  113MOL    C1322637   1.857   7.070   6.891  0.1708  0.2182 -0.0423
  113MOL    C1422638   1.846   6.939   6.967 -0.3269 -0.7220 -0.4279
  113MOL    O1522639   1.746   6.876   6.987 -0.2753 -0.3377 -0.0849
  113MOL    N1622640   1.956   6.895   7.023 -0.2008  0.0510 -0.0990
  113MOL    H1722641   1.843   6.979   6.697  1.2608  1.4990  0.2888
  113MOL    H1822642   1.691   7.030   6.739 -0.0770 -1.2463 -1.3785
  113MOL    H1922643   1.963   7.086   6.874  0.5177 -1.4264  0.5322
  113MOL    H2022644   1.955   6.801   7.060 -0.2433  0.1076  0.0447
  113MOL    H2122645   2.041   6.949   7.021  0.3566 -0.7953  0.2277
  113MOL    C2222646   1.778   7.176   6.973 -0.3263 -0.9965 -0.1640
  113MOL    C2322647   1.836   7.203   7.108 -0.7897  0.1286  0.2617
  113MOL    C2422648   1.713   7.249   7.193 -0.5237 -0.6615 -0.2608
  113MOL    O2522649   1.667   7.363   7.181 -0.1399  0.1861 -0.2501
  113MOL    N2622650   1.659   7.153   7.264  0.0669  0.3875 -0.0536
  113MOL    H2722651   1.672   7.151   6.981 -0.5115  0.6910  4.0071
  113MOL    H2822652   1.800   7.269   6.922  4.2703 -0.4797  2.4754
  113MOL    H2922653   1.867   7.109   7.154  2.6989  1.9747  1.7840
  113MOL    H3022654   1.697   7.059   7.269 -0.1601  0.3193  0.3727
  113MOL    H3122655   1.575   7.173   7.315  1.2935  3.1121  0.9759
  113MOL    C3222656   1.961   7.296   7.106 -0.0630  0.1528 -0.2139
  113MOL    C3322657   2.004   7.335   7.247 -0.5181  0.1275  0.5357
  113MOL    C3422658   1.955   7.476   7.286  0.1739  0.1387 -0.4174
  113MOL    O3522659   1.969   7.570   7.211  0.2656  0.4191 -0.8649
  113MOL    N3622660   1.903   7.488   7.407 -0.3459  0.2464 -0.6481
  113MOL    H3722661   1.943   7.387   7.048  0.8204  0.0944 -0.5829
  113MOL    H3822662   2.041   7.242   7.056  0.0839 -1.3056  1.5615
  113MOL    H3922663   1.953   7.273   7.322  0.5388  0.1334  1.2742
  113MOL    H4022664   1.896   7.412   7.474 -2.4292  0.1240 -0.9893
  113MOL    H4122665   1.876   7.578   7.443 -0.2980 -0.5652  1.5121
  113MOL    C4222666   2.163   7.323   7.277 -0.0671 -0.6520 -0.4013
  113MOL    C4322667   2.222   7.189   7.315  0.0133  0.4404 -0.0168
  113MOL    C4422668   2.258   7.101   7.203 -0.9476 -0.6305 -0.3300
  113MOL    O4522669   2.178   7.023   7.162 -0.2318 -0.3802 -0.0990
  113MOL    N4622670   2.375   7.133   7.145  0.1539  0.0205 -0.7902
  113MOL    H4722671   2.188   7.400   7.350 -1.1144 -0.9351  0.2680
  113MOL    H4822672   2.205   7.360   7.184  2.3044  2.9486  1.9784
  113MOL    H4922673   2.318   7.217   7.359  0.5363 -1.6777  0.2597
  113MOL    H5022674   2.428   7.213   7.173  0.2717 -0.3736  0.1190
  113MOL    H5122675   2.407   7.071   7.072 -1.4855  0.3392 -1.8077
  113MOL    C5222676   2.160   7.107   7.434  1.1387 -0.2680  0.0396
  113MOL    C5322677   2.145   7.177   7.563  0.5253 -0.2521  0.1055
  113MOL    C5422678   2.279   7.204   7.618 -0.2743 -0.6783 -0.4534
  113MOL    O5522679   2.358   7.112   7.629  0.8102 -0.7071 -0.1543
  113MOL    N5622680   2.306   7.326   0.006 -0.6288 -0.4575  0.0020
  113MOL    H5722681   2.220   7.017   7.447  0.2030 -0.8297  0.6192
  113MOL    H5822682   2.060   7.076   7.403  1.1658 -1.1040  0.7535
  113MOL    H5922683   2.100   7.275   7.545 -0.3696 -0.5938  0.4202
  113MOL    H6022684   2.239   7.402   0.008 -1.5754 -1.2767 -0.0337
  113MOL    H6122685   2.398   7.347   0.043 -0.4513  0.0540 -0.7284
  113MOL    C6222686   2.048   7.120   0.008  0.4595 -0.6114  1.1209
  113MOL    C6322687   2.019   7.204   0.140  0.0476  0.5165 -0.0571
  113MOL    C6422688   2.011   7.110   0.259  0.2384  0.4505  0.2257
  113MOL    O6522689   1.918   7.041   0.286  0.0232 -0.2570  0.5271
  113MOL    N6622690   2.117   7.123   0.335 -0.2559  1.0929  0.9500
  113MOL    H6722691   2.086   7.021   0.033  0.1818 -0.9042  0.3969
  113MOL    H6822692   1.955   7.098   7.612  1.4224 -1.6423 -0.1573
  113MOL    H6922693   2.104   7.270   0.159 -0.1222  1.0764 -1.1816
  113MOL    H7022694   2.125   7.086   0.429 -1.4515  2.6624  1.6909
  113MOL    H7122695   2.187   7.191   0.307 -0.5836  0.3973 -1.6919
  113MOL    C7222696   1.890   7.284   0.104  0.5307  0.1670 -0.1607
  113MOL    C7322697   1.867   7.423   0.163  0.4418 -0.2234  0.1529
  113MOL    C7422698   1.953   7.528   0.091  0.0060  0.5171 -0.5388
  113MOL    O7522699   2.071   7.505   0.065  0.2715  0.1580  0.3669
  113MOL    N7622700   1.892   7.638   0.046 -0.5283  1.1303  0.2107
  113MOL    H7722701   1.799   7.227   0.126 -0.3880  2.2155  1.5130
  113MOL    H7822702   1.890   7.311   7.655  0.0683  0.3648 -0.1124
  113MOL    H7922703   1.765   7.454   0.141  0.6551  1.1671  1.0794
  113MOL    H8022704   1.941   0.069   0.037  0.6448  0.3062 -1.5971
  113MOL    H8122705   1.793   7.646   0.063 -0.6315  0.4296 -0.0699
  113MOL    C8222706   1.875   7.421   0.319  0.6471  0.4957 -0.2181
  113MOL    C8322707   1.800   7.525   0.405  0.0833 -0.5705 -0.5817
  113MOL    C8422708   1.884   7.656   0.401  0.6274  0.2248 -0.5473
  113MOL    O8522709   1.995   7.650   0.447 -0.2058 -0.1699 -0.1094
  113MOL    N8622710   1.832   0.111   0.347  0.4520 -0.1754 -0.3019
  113MOL    H8722711   1.977   7.407   0.353  0.5403  0.7040  0.1964
  113MOL    H8822712   1.840   7.322   0.348 -1.6026  1.4913  0.5902
  113MOL    H8922713   1.707   7.546   0.353  0.6384 -0.4089 -1.5252
  113MOL    H9022714   1.893   0.181   0.309  0.5946  0.6973  1.4838
  113MOL    H9122715   1.740   0.098   0.306  0.3614 -0.0571 -0.1360
  113MOL    C9222716   1.776   7.461   0.543  0.2992  0.1701 -0.1035
  113MOL    C9322717   1.675   7.540   0.636 -0.9153  0.8586 -0.5042
  113MOL    C9422718   1.695   7.511   0.785 -0.2909  0.4058  0.4515
  113MOL    O9522719   1.624   7.427   0.837 -0.9977 -0.0212  0.5255
  113MOL    N9622720   1.797   7.564   0.846 -0.3539  0.0808 -0.3217
  113MOL    H9722721   1.876   7.467   0.585  0.6059 -2.2892 -0.4106
  113MOL    H9822722   1.749   7.356   0.543  0.0888  0.2187  1.2167
  113MOL    H9922723   1.723   7.637   0.626 -0.6295  0.7931  0.2144
  113MOL   H10022724   1.807   7.531   0.941  1.9513 -0.7003 -0.7866
  113MOL   H10122725   1.865   7.629   0.807 -2.5679  1.8556 -1.3221
  113MOL   C10222726   1.529   7.542   0.580 -0.1130  0.0340 -0.2574
  113MOL   C10322727   1.462   7.401   0.565 -0.1394 -0.0599 -0.2249
  113MOL   C10422728   1.495   7.347   0.429 -0.1476 -0.0604  0.4133
  113MOL   O10522729   1.467   7.420   0.334  0.2105 -0.3463 -0.0932
  113MOL   N10622730   1.541   7.228   0.417  0.2408  0.1436  0.3080
  113MOL   H10722731   1.521   7.608   0.495 -2.4862 -0.6373 -0.5963
  113MOL   H10822732   1.468   7.598   0.651  0.0239  1.7787 -1.5023
  113MOL   H10922733   1.506   7.333   0.638  0.3456  1.0711  0.5646
  113MOL   H11022734   1.591   7.196   0.335 -2.6393 -1.2133 -0.9844
  113MOL   H11122735   1.560   7.180   0.504  3.0308 -2.0435 -1.3777
  113MOL   C11222736   1.312   7.394   0.598 -0.6186 -0.7011  0.2717
  113MOL   C11322737   1.262   7.257   0.629 -0.4724 -0.2344 -0.2200
  113MOL   C11422738   1.116   7.241   0.567 -0.3162 -0.2411 -0.7665
  113MOL   O11522739   1.083   7.138   0.509 -0.6645 -0.1108  0.0801
  113MOL   N11622740   1.028   7.340   0.584  0.0830  0.2152  0.9514
  113MOL   H11722741   1.264   7.433   0.508 -0.6246 -0.3583  0.4221
  113MOL   H11822742   1.285   7.478   0.662 -1.4226  0.2718 -1.3112
  113MOL   H11922743   1.323   7.176   0.587 -1.7546 -1.5219  0.3869
  113MOL   H12022744   0.941   7.335   0.534  0.1459 -3.1031  1.0474
  113MOL   H12122745   1.052   7.415   0.648  0.7135  1.2586 -0.4812
  113MOL   C12222746   1.261   7.233   0.784  0.3492  0.1055 -0.7318
  113MOL   C12322747   1.204   7.093   0.823  0.0161  0.6456 -0.1026
  113MOL   C12422748   1.178   7.097   0.967  0.3661  0.1779  0.3315
  113MOL   O12522749   1.058   7.107   0.998  0.6208 -0.6129 -0.4531
  113MOL   N12622750   1.281   7.087   1.048  0.0999 -0.6043 -0.0766
  113MOL   H12722751   1.201   7.314   0.827 -0.2768 -0.0783 -1.2516
  113MOL   H12822752   1.362   7.247   0.822 -0.4651  0.2106  1.4513
  113MOL   H12922753   1.102   7.080   0.786 -0.4696 -1.7836  1.9640
  113MOL   H13022754   1.378   7.089   1.019 -0.6571 -2.0610 -2.9900
  113MOL   H13122755   1.273   7.086   1.148  1.9153 -1.4843  0.0694
  113MOL   C13222756   1.290   6.973   0.769 -0.9825 -0.1771  0.3524
  113MOL   C13322757   1.225   6.837   0.769  0.4386 -0.0545  0.1011
  113MOL   C13422758   1.121   6.825   0.658  0.4561 -0.1805  0.8379
  113MOL   O13522759   1.006   6.868   0.668  0.2223 -0.3349  0.1191
  113MOL   N13622760   1.161   6.782   0.544  0.5081 -0.0134 -0.3045
  113MOL   H13722761   1.385   6.985   0.820 -1.3111  1.4715  0.6128
  113MOL   H13822762   1.330   6.986   0.669  2.2069 -0.7475  1.4885
  113MOL   H13922763   1.316   6.784   0.739  2.1709  1.6014  2.3193
  113MOL   H14022764   1.097   6.798   0.467 -0.4106  1.8341  0.8117
  113MOL   H14122765   1.254   6.749   0.524 -0.9422 -2.3307 -3.8522
  113MOL   C14222766   1.192   6.778   0.906  0.0649  0.7313 -0.4564
  113MOL   C14322767   1.205   6.628   0.911 -0.1440 -0.3342  0.2973
  113MOL   C14422768   1.066   6.558   0.918  0.1015  0.9589 -0.6305
  113MOL   O14522769   1.014   6.512   0.817  0.2060 -0.1145  0.3155
  113MOL   N14622770   0.993   6.532   1.024 -0.5542  0.6545 -0.3377
  113MOL   H14722771   1.095   6.808   0.945 -0.6759 -0.6963 -1.1709
  113MOL   H14822772   1.269   6.817   0.972  1.1191 -0.4681 -0.9495
  113MOL   H14922773   1.259   6.609   0.818  0.0614 -2.1176  0.7581
  113MOL   H15022774   1.021   6.569   1.114  2.1421  0.5458 -1.1056
  113MOL   H15122775   0.913   6.471   1.016  0.2654 -0.3618 -0.9433
  113MOL   C15222776   1.299   6.573   1.026  0.1581 -1.1006 -0.6290
  113MOL   C15322777   1.453   6.588   1.006 -0.3578 -0.6047 -0.3225
  113MOL   C15422778   1.530   6.463   1.055 -0.6055  0.1669  0.0805
  113MOL   O15522779   1.497   6.391   1.149  0.2873  0.0278 -0.0595
  113MOL   N15622780   1.643   6.426   0.997  0.0052  0.3533 -0.0508
  113MOL   H15722781   1.282   6.466   1.037  1.2170 -1.0798  1.4636
  113MOL   H15822782   1.268   6.617   1.121  0.3151 -1.5351 -0.3754
  113MOL   H15922783   1.484   6.603   0.903  1.6121 -2.0234  0.0388
  113MOL   H16022784   1.694   6.353   1.046 -2.2849  0.2323  2.2410
  113MOL   H16122785   1.682   6.488   0.928 -2.0682  0.1094 -1.4960
  113MOL   C16222786   1.512   6.712   1.083  0.1323 -0.4089 -0.0115
  113MOL   C16322787   1.640   6.781   1.029  0.3334  1.0181 -0.5918
  113MOL   C16422788   1.696   6.869   1.144  0.5434  0.2646 -0.1707
  113MOL   O16522789   1.651   6.978   1.169  0.2756  0.1376 -0.3848
  113MOL   N16622790   1.791   6.811   1.215  0.1214 -0.1644  0.0479
  113MOL   H16722791   1.530   6.686   1.187  1.8580  1.8063  0.2989
  113MOL   H16822792   1.435   6.786   1.106  0.5539  0.0239  0.0175
  113MOL   H16922793   1.722   6.716   1.000  1.0693  1.8226 -0.3331
  113MOL   H17022794   1.814   6.715   1.197  1.3255 -0.4187  2.7619
  113MOL   H17122795   1.828   6.855   1.297  0.8197  0.1987 -0.4595
  113MOL   C17222796   1.611   6.862   0.905  0.2879  0.2768 -0.0179
  113MOL   C17322797   1.732   6.914   0.822 -0.1518  0.2527  0.6716
  113MOL   C17422798   1.706   7.057   0.768 -0.8012  0.3537 -0.2897
  113MOL   O17522799   1.662   7.076   0.652  0.5380  0.5572 -0.9145
  113MOL   N17622800   1.745   7.149   0.853  0.0450  0.3514 -1.4555
  113MOL   H17722801   1.551   6.949   0.933 -1.8708 -1.3390  0.4555
  113MOL   H17822802   1.553   6.808   0.831  1.3322 -0.6138 -0.2000
  113MOL   H17922803   1.811   6.939   0.894  1.0166  2.2383 -1.2199
  113MOL   H18022804   1.703   7.241   0.849 -1.4392 -0.2927 -1.3490
  113MOL   H18122805   1.803   7.134   0.934 -2.3278 -2.6824 -0.2020
  113MOL   C18222806   1.789   6.821   0.712 -0.2720  0.2582  0.5014
  113MOL   C18322807   1.924   6.759   0.729  0.0966  0.1319  0.6256
  113MOL   C18422808   1.914   6.617   0.801 -0.1004 -0.0188  0.0267
  113MOL   O18522809   1.871   6.515   0.738 -0.5661 -0.0513 -0.5901
  113MOL   N18622810   1.959   6.599   0.930 -0.1959  0.3810 -0.7093
  113MOL   H18722811   1.790   6.874   0.617 -2.3344 -0.3153  0.1348
  113MOL   H18822812   1.719   6.738   0.704 -0.5004  0.4404  0.5869
  113MOL   H18922813   1.965   6.726   0.633 -0.0472  2.0924 -0.1213
  113MOL   H19022814   2.013   6.674   0.969  0.5973 -0.3303 -0.4351
  113MOL   H19122815   1.960   6.508   0.974 -0.5754  1.0406  0.6534
  113MOL   C19222816   2.033   6.861   0.782  0.2065  0.3554  0.5709
  113MOL   C19322817   2.186   6.818   0.763  0.6651 -0.5970 -0.1141
  113MOL   C19422818   2.249   6.859   0.632 -0.2277 -0.4766 -0.4770
  113MOL   O19522819   2.241   6.977   0.594 -1.0142  0.1447 -0.3056
  113MOL   N19622820   2.311   6.764   0.563  0.0121  0.6289  0.3680
  113MOL   H19722821   2.019   6.886   0.887 -0.6883  0.2418  0.4790
  113MOL   H19822822   2.025   6.956   0.728  1.1010  0.8531  1.2991
  113MOL   H19922823   2.246   6.872   0.835 -1.9618  0.7731  1.1205
  113MOL   H20022824   2.358   6.783   0.476  1.0776 -0.5921  0.6461
  113MOL   H20122825   2.307   6.665   0.584  0.4943  1.0774  2.7409
  113MOL   H20222826   2.189   6.709   0.773  1.2757 -0.9681 -3.4828
  114MOL     C122827   7.067   7.084   6.508  0.3523 -0.4411 -0.0965
  114MOL     C222828   6.958   6.972   6.490  0.4922 -0.7575 -0.3809
  114MOL     C322829   6.925   6.962   6.341  0.4692  0.5618 -0.2483
  114MOL     O422830   6.897   7.058   6.266  0.5422  0.3731 -0.1731
  114MOL     N522831   6.934   6.840   6.295 -0.0885  0.8042  0.4134
  114MOL     H622832   7.091   7.142   6.419  1.1437 -1.8687 -0.8311
  114MOL     H722833   7.039   7.156   6.584  0.2489 -1.7204  1.1022
  114MOL     H822834   6.995   6.877   6.529  0.8371 -0.3550  0.2850
  114MOL     H922835   6.910   6.818   6.199 -0.5670 -2.2752  1.1820
  114MOL    H1022836   6.958   6.764   6.358  1.1350 -1.2822 -2.4610
  114MOL    H1122837   7.159   7.033   6.537  1.7029  1.5823 -0.7267
  114MOL    C1222838   6.832   7.006   6.572 -0.1976  0.3927  0.5359
  114MOL    C1322839   6.719   6.905   6.591 -0.5694 -0.6473 -0.5528
  114MOL    C1422840   6.775   6.775   6.646  0.3150  0.0080  0.4015
  114MOL    O1522841   6.835   6.691   6.579  0.1905  0.0924  0.5018
  114MOL    N1622842   6.746   6.747   6.770 -0.2914  0.7871 -0.0241
  114MOL    H1722843   6.793   7.094   6.521  0.3459  0.9140  1.0268
  114MOL    H1822844   6.854   7.040   6.672  0.9563 -3.0029  1.5069
  114MOL    H1922845   6.659   6.946   6.672 -0.5346 -1.2272 -0.2322
  114MOL    H2022846   6.778   6.665   6.820 -2.5150  0.6093  1.2065
  114MOL    H2122847   6.689   6.815   6.819 -1.1564 -0.0267  0.1128
  114MOL    C2222848   6.625   6.886   6.471  0.7210 -0.3884  0.0215
  114MOL    C2322849   6.541   7.018   6.427 -0.4970  0.2656  0.2372
  114MOL    C2422850   6.474   7.077   6.548 -0.1505 -0.0084  0.4700
  114MOL    O2522851   6.385   7.014   6.616 -0.0334  0.0377  0.3033
  114MOL    N2622852   6.502   7.204   6.592 -0.4780 -0.3888  0.4120
  114MOL    H2722853   6.559   6.802   6.492 -2.8738  1.7862 -2.0660
  114MOL    H2822854   6.683   6.852   6.385 -0.5172  0.7205 -1.2831
  114MOL    H2922855   6.618   7.088   6.397 -1.0063 -0.0985 -1.9890
  114MOL    H3022856   6.565   7.255   6.532 -2.6633  0.3623 -1.3284
  114MOL    H3122857   6.477   7.235   6.685  0.5243 -0.2623  0.6426
  114MOL    C3222858   6.447   6.993   6.311  0.0294 -0.3368 -0.3513
  114MOL    C3322859   6.506   7.020   6.168  0.0547  0.4380  0.3575
  114MOL    C3422860   6.566   7.158   6.150 -0.0227  0.2171 -0.4411
  114MOL    O3522861   6.509   7.258   6.179  0.6868  0.0183 -0.2209
  114MOL    N3622862   6.691   7.170   6.108  0.0934  0.1040 -0.4552
  114MOL    H3722863   6.358   7.056   6.320  0.4803  0.5649 -1.9196
  114MOL    H3822864   6.409   6.891   6.304  1.9802 -1.0695 -0.3249
  114MOL    H3922865   6.588   6.950   6.151  2.5523  3.1099  0.9733
  114MOL    H4022866   6.732   7.257   6.139 -4.1996  2.7888 -1.8488
  114MOL    H4122867   6.752   7.090   6.112 -2.1008 -1.5684  0.8219
  114MOL    C4222868   6.385   7.006   6.073 -0.5271  0.1459 -0.8128
  114MOL    C4322869   6.411   6.934   5.933 -0.2347  0.3626 -0.7426
  114MOL    C4422870   6.534   6.994   5.873 -0.1766  0.2673  0.1012
  114MOL    O4522871   6.540   7.118   5.849 -0.0927 -0.1000 -0.4490
  114MOL    N4622872   6.642   6.921   5.869  0.1564  0.1888  0.3832
  114MOL    H4722873   6.344   7.105   6.057 -5.4986 -2.0698 -2.9383
  114MOL    H4822874   6.300   6.957   6.121 -0.6333  0.7627 -0.3700
  114MOL    H4922875   6.420   6.828   5.955  1.0667  0.5886 -0.0974
  114MOL    H5022876   6.731   6.960   5.841  1.1713 -1.0489  1.7767
  114MOL    H5122877   6.635   6.823   5.891 -2.0709 -0.3031 -2.1988
  114MOL    C5222878   6.281   6.954   5.838 -0.6505  0.0777  0.7891
  114MOL    C5322879   6.285   6.902   5.688  0.1373 -0.1309 -0.5032
  114MOL    C5422880   6.221   7.013   5.597 -0.3848  0.3902  0.1414
  114MOL    O5522881   6.108   7.051   5.618 -0.2401 -0.3264 -0.2764
  114MOL    N5622882   6.287   7.070   5.498 -0.0480  0.7322  0.5906
  114MOL    H5722883   6.237   7.053   5.837  1.2906  0.9726  1.5332
  114MOL    H5822884   6.200   6.896   5.883 -1.5220  0.5831 -0.1145
  114MOL    H5922885   6.392   6.898   5.670 -0.0358  1.4218 -2.0576
  114MOL    H6022886   6.377   7.031   5.471  0.4061  2.2535 -0.2089
  114MOL    H6122887   6.257   7.144   5.436  0.9962  1.5068  0.9877
  114MOL    C6222888   6.239   6.757   5.661  0.0720  0.7596  0.1204
  114MOL    C6322889   6.300   6.693   5.529 -0.2493  0.1653 -0.7031
  114MOL    C6422890   6.212   6.703   5.407 -0.6297  0.1374  0.6650
  114MOL    O6522891   6.269   6.735   5.300  0.0665 -0.1739 -0.8490
  114MOL    N6622892   6.089   6.651   5.411 -0.8746 -0.1228 -0.3682
  114MOL    H6722893   6.135   6.784   5.646  0.5543  1.0909 -3.1297
  114MOL    H6822894   6.252   6.703   5.755 -0.1453  0.1473 -0.2022
  114MOL    H6922895   6.386   6.755   5.506 -0.2951  0.5078  0.0199
  114MOL    H7022896   6.039   6.636   5.325 -0.6519 -2.4915 -0.1067
  114MOL    H7122897   6.060   6.607   5.497 -1.9093  1.7456  0.2469
  114MOL    C7222898   6.328   6.543   5.563 -0.0787 -0.1649 -0.6521
  114MOL    C7322899   6.426   6.487   5.450  0.2193  0.3335  0.0217
  114MOL    C7422900   6.427   6.333   5.466  0.2054  0.4974 -0.7644
  114MOL    O7522901   6.450   6.274   5.575 -0.1210 -0.0360 -0.3159
  114MOL    N7622902   6.402   6.274   5.352  0.3502 -0.3991 -0.3431
  114MOL    H7722903   6.239   6.481   5.569  0.1744 -0.4522  0.2923
  114MOL    H7822904   6.368   6.538   5.665  2.8582  0.5197 -1.6981
  114MOL    H7922905   6.391   6.515   5.350  3.0071  1.7518 -0.6242
  114MOL    H8022906   6.410   6.173   5.359 -2.4299 -0.5573  1.0201
  114MOL    H8122907   6.353   6.320   5.277  0.8327  1.7076  0.6128
  114MOL    C8222908   6.568   6.538   5.474 -0.5062 -0.0786  0.6965
  114MOL    C8322909   6.667   6.474   5.579  0.1092  0.0745  0.1782
  114MOL    C8422910   6.627   6.518   5.720 -0.2879 -0.3919 -0.3897
  114MOL    O8522911   6.609   6.637   5.749 -0.1674  0.7884  0.7252
  114MOL    N8622912   6.610   6.426   5.811  0.4400  0.2730  0.1566
  114MOL    H8722913   6.552   6.646   5.482 -2.3945 -0.1087 -1.9533
  114MOL    H8822914   6.613   6.529   5.375  0.4660 -1.3091  1.2366
  114MOL    H8922915   6.664   6.365   5.568 -3.7483 -0.2571  3.2311
  114MOL    H9022916   6.624   6.326   5.801 -0.5923  0.1751 -0.3388
  114MOL    H9122917   6.607   6.460   5.906 -3.7046 -2.8863  1.3073
  114MOL    C9222918   6.813   6.526   5.566 -0.3977  0.7596 -0.1003
  114MOL    C9322919   6.895   6.471   5.447  0.2831  0.0384  0.2973
  114MOL    C9422920   6.903   6.310   5.443 -0.1027 -0.0758 -0.0041
  114MOL    O9522921   6.872   6.247   5.540  0.0779  0.6112 -0.2279
  114MOL    N9622922   6.918   6.248   5.327  0.9808  0.2445  0.1628
  114MOL    H9722923   6.870   6.512   5.658  3.1328  0.1705 -2.2994
  114MOL    H9822924   6.804   6.635   5.571  0.7843  0.8828 -0.6858
  114MOL    H9922925   6.837   6.518   5.368  0.8019  0.5068  0.1940
  114MOL   H10022926   6.910   6.150   5.302  3.0707  0.2976 -0.8256
  114MOL   H10122927   6.960   6.308   5.257  0.1733  0.3871 -0.2013
  114MOL   C10222928   7.027   6.539   5.438  0.2998  0.3190  0.3160
  114MOL   C10322929   7.125   6.517   5.553 -0.0008 -0.7656 -0.6650
  114MOL   C10422930   7.166   6.643   5.636 -0.4024  0.0949  0.2797
  114MOL   O10522931   7.177   6.754   5.585  0.3427 -0.1433  0.6859
  114MOL   N10622932   7.181   6.628   5.769 -0.3598 -0.0435 -0.1057
  114MOL   H10722933   7.006   6.646   5.432 -1.2936  0.0189  0.5534
  114MOL   H10822934   7.072   6.514   5.342  1.2290 -1.9833  1.3043
  114MOL   H10922935   7.076   6.453   5.627  0.3195  2.9761  2.9387
  114MOL   H11022936   7.186   6.706   5.832 -0.5968  0.2983 -0.5114
  114MOL   H11122937   7.182   6.535   5.809 -2.0297 -0.6657 -1.4352
  114MOL   C11222938   7.249   6.436   5.509 -0.2747 -0.1595 -0.3496
  114MOL   C11322939   7.379   6.503   5.450  0.8579  0.0681  0.3885
  114MOL   C11422940   7.343   6.580   5.320  0.0724 -0.0502 -0.4473
  114MOL   O11522941   7.356   6.534   5.209 -0.4903 -0.1845  0.0562
  114MOL   N11622942   7.316   6.712   5.337 -0.6329 -0.1601 -0.0357
  114MOL   H11722943   7.204   6.363   5.441 -0.5537 -0.2669 -0.0519
  114MOL   H11822944   7.282   6.383   5.599  1.1784 -0.1780 -0.8760
  114MOL   H11922945   7.428   6.577   5.513  2.7848  0.2262 -1.2707
  114MOL   H12022946   7.294   6.753   5.426 -1.5067  0.4386 -0.5175
  114MOL   H12122947   7.284   6.756   5.251  1.2927 -1.6518 -1.5705
  114MOL   C12222948   7.483   6.387   5.431  0.2356 -0.4352  0.3414
  114MOL   C12322949   7.629   6.440   5.397 -0.2012  0.2298 -0.2825
  114MOL   C12422950   0.019   6.370   5.268 -0.8982 -0.4474 -0.1821
  114MOL   O12522951   0.098   6.280   5.283  0.0480  0.3243 -0.2484
  114MOL   N12622952   7.644   6.421   5.151 -0.2252  0.0966 -0.5329
  114MOL   H12722953   7.443   6.320   5.355 -0.8892 -0.9135  1.3464
  114MOL   H12822954   7.484   6.332   5.525 -0.4219 -0.1644  0.5045
  114MOL   H12922955   7.614   6.547   5.379  0.8541  0.2869 -0.8998
  114MOL   H13022956   7.581   6.500   5.139 -0.3846  0.3498  1.8312
  114MOL   H13122957   0.034   6.380   5.071  3.2660  1.6608  0.6063
  114MOL   C13222958   0.066   6.424   5.522 -0.1393  0.0181  0.4273
  114MOL   C13322959   0.202   6.503   5.506 -0.5958 -0.1675 -0.8328
  114MOL   C13422960   0.327   6.432   5.562  0.2797 -0.3014 -0.0037
  114MOL   O13522961   0.440   6.453   5.514 -0.3465 -0.9219  0.0234
  114MOL   N13622962   0.309   6.364   5.672 -0.3757 -0.0701 -0.1142
  114MOL   H13722963   0.089   6.317   5.529 -0.1173 -0.1783 -2.0281
  114MOL   H13822964   7.652   6.442   5.603 -0.5429 -2.5232  0.6980
  114MOL   H13922965   0.218   6.500   5.398  0.6188  1.3380 -0.7023
  114MOL   H14022966   0.385   6.320   5.722 -2.3293 -0.7787  2.3594
  114MOL   H14122967   0.219   6.339   5.710  0.1569 -2.3049 -0.2162
  114MOL   C14222968   0.178   6.640   5.566 -0.1926 -0.5212  0.2629
  114MOL   C14322969   0.280   6.754   5.534  0.0296 -0.1165  0.1625
  114MOL   C14422970   0.279   6.865   5.647  0.6508 -0.5930 -0.3445
  114MOL   O14522971   0.205   6.961   5.641 -0.6611 -0.0056  0.0278
  114MOL   N14622972   0.363   6.843   5.749 -0.2485 -0.2144  0.0257
  114MOL   H14722973   0.163   6.623   5.673 -0.1528 -0.6661  0.2456
  114MOL   H14822974   0.078   6.668   5.534  0.5250  2.2846  0.4065
  114MOL   H14922975   0.370   6.693   5.533  0.6050  0.7382 -1.0629
  114MOL   H15022976   0.424   6.764   5.731 -1.5402 -0.7685 -2.1379
  114MOL   H15122977   0.374   6.900   5.831 -2.4152 -1.0247  0.8963
  114MOL   C15222978   0.265   6.815   5.392  0.6341 -0.0522  0.4716
  114MOL   C15322979   0.373   6.750   5.294  0.4922 -0.0272  0.0659
  114MOL   C15422980   0.520   6.797   5.328  0.5570  0.9930 -0.6998
  114MOL   O15522981   0.562   6.909   5.293  0.4922  0.2101 -0.1135
  114MOL   N15622982   0.607   6.719   5.389 -0.4502  0.7902 -0.5576
  114MOL   H15722983   0.260   6.924   5.384 -0.4717 -0.2324 -1.9007
  114MOL   H15822984   0.163   6.785   5.364  0.8305  1.7409 -2.4200
  114MOL   H15922985   0.388   6.646   5.324  4.3117 -0.0600 -1.7215
  114MOL   H16022986   0.694   6.759   5.420 -1.1424  0.7712  1.4890
  114MOL   H16122987   0.587   6.627   5.425 -0.4381  0.9788 -0.0672
  114MOL   C16222988   0.314   6.760   5.151 -0.1257  0.6159  0.4329
  114MOL   C16322989   0.389   6.694   5.037  0.2714  0.6368  0.8690
  114MOL   C16422990   0.430   6.794   4.932  0.5479 -0.7810  0.3866
  114MOL   O16522991   0.357   6.819   4.833 -0.4279  0.1280 -0.1247
  114MOL   N16622992   0.543   6.857   4.954 -0.3958 -0.4585 -0.7293
  114MOL   H16722993   0.286   6.863   5.126 -0.0772  0.2992 -0.9269
  114MOL   H16822994   0.213   6.718   5.152  0.5664 -1.0687  2.5179
  114MOL   H16922995   0.472   6.640   5.083 -0.1130 -0.4117  0.3513
  114MOL   H17022996   0.564   6.919   4.877  0.5259 -0.7943 -0.7556
  114MOL   H17122997   0.602   6.837   5.034 -0.3269  1.5141 -0.2564
  114MOL   C17222998   0.293   6.580   4.986 -0.5898  0.1835 -0.1370
  114MOL   C17322999   0.342   6.485   4.872  0.6355 -0.7411  0.2789
  114MOL   C17423000   0.242   6.365   4.857  0.1844  0.0323  0.7876
  114MOL   O17523001   0.167   6.327   4.945 -0.4841 -0.0968  0.1283
  114MOL   N17623002   0.247   6.297   4.743 -0.0779  0.8153  0.1331
  114MOL   H17723003   0.199   6.628   4.958 -0.3493  0.0183 -1.2458
  114MOL   H17823004   0.273   6.514   5.070  0.5950 -1.2652 -0.9565
  114MOL   H17923005   0.323   6.547   4.784  0.7468 -1.0226  0.0536
  114MOL   H18023006   0.317   6.315   4.673 -0.1769  3.2899  0.6341
  114MOL   H18123007   0.188   6.215   4.750 -0.7926  1.4179  1.3775
  114MOL   C18223008   0.494   6.431   4.886 -0.1509  0.0807  0.3845
  114MOL   C18323009   0.531   6.329   5.001 -0.9419  0.2367  0.1313
  114MOL   C18423010   0.513   6.392   5.143  0.0363 -0.1815 -0.0281
  114MOL   O18523011   0.603   6.456   5.203  0.0808  0.3157  0.5405
  114MOL   N18623012   0.409   6.356   5.215  0.4143 -0.3408 -0.4791
  114MOL   H18723013   0.561   6.516   4.893  0.7082 -0.6390  1.0113
  114MOL   H18823014   0.531   6.386   4.794 -0.8796 -1.1353  0.6661
  114MOL   H18923015   0.464   6.243   4.996  0.4780 -0.8855 -0.1247
  114MOL   H19023016   0.331   6.309   5.170  0.7834 -1.0903 -0.3392
  114MOL   H19123017   0.403   6.394   5.308  0.3962  0.0146 -0.6253
  114MOL   C19223018   0.679   6.288   4.987  0.0737  0.3674 -0.0110
  114MOL   C19323019   0.714   6.204   4.865  0.6433  0.2865 -0.2632
  114MOL   C19423020   0.653   6.069   4.870 -0.7193 -0.0749  0.3337
  114MOL   O19523021   0.540   6.054   4.821 -0.7081 -0.0776 -0.4901
  114MOL   N19623022   0.712   5.975   4.941 -0.8745  0.0991 -0.5231
  114MOL   H19723023   0.705   6.227   5.073  1.2415  1.0722  0.1463
  114MOL   H19823024   0.742   6.376   4.987 -0.9889  1.1493  0.8171
  114MOL   H19923025   0.678   6.250   4.773 -0.1182 -1.3143 -0.7877
  114MOL   H20023026   0.652   5.905   4.983 -0.0432 -1.6014 -2.0980
  114MOL   H20123027   0.799   5.988   4.990 -2.4926 -1.5749  2.9698
  114MOL   H20223028   0.822   6.202   4.850  0.3951  0.2008 -2.1119
  115MOL     C123029   4.398   2.117   3.553  0.9500 -0.0357  0.3265
  115MOL     C223030   4.426   2.178   3.413 -0.7102  0.1693  0.2443
  115MOL     C323031   4.400   2.075   3.306 -0.4194 -0.7949 -0.2424
  115MOL     O423032   4.453   1.964   3.301  0.2576 -0.0405  1.0116
  115MOL     N523033   4.307   2.102   3.211 -0.1916 -0.6235  0.0451
  115MOL     H623034   4.468   2.037   3.576  1.6793  0.4633 -0.1696
  115MOL     H723035   4.396   2.206   3.616  0.8318  0.7564 -0.7821
  115MOL     H823036   4.361   2.262   3.389  0.0916  0.5188 -0.7764
  115MOL     H923037   4.284   2.032   3.142  0.0685  0.0225 -0.7004
  115MOL    H1023038   4.266   2.193   3.200 -0.2757 -0.8080 -1.1869
  115MOL    H1123039   4.295   2.079   3.556  1.5908 -1.8279  0.5588
  115MOL    C1223040   4.574   2.229   3.413 -0.8622 -0.7515 -0.4598
  115MOL    C1323041   4.691   2.136   3.390 -0.7830 -0.5356  0.5864
  115MOL    C1423042   4.808   2.153   3.491 -0.2616  0.0742  0.4110
  115MOL    O1523043   4.881   2.247   3.483  0.3943 -0.0752 -0.1474
  115MOL    N1623044   4.828   2.062   3.581  0.5978 -0.2783 -0.2160
  115MOL    H1723045   4.580   2.290   3.503  0.3172 -0.4593 -0.7196
  115MOL    H1823046   4.585   2.305   3.335 -0.7653  0.2125  0.4802
  115MOL    H1923047   4.654   2.035   3.407 -2.4342  0.0992  0.8868
  115MOL    H2023048   4.899   2.067   3.652  0.2187 -0.0486  0.1444
  115MOL    H2123049   4.749   2.001   3.599  0.7805 -1.0324 -1.8424
  115MOL    C2223050   4.735   2.142   3.244  0.3239 -0.7659 -0.7161
  115MOL    C2323051   4.844   2.044   3.199 -0.0905 -0.7853 -0.4474
  115MOL    C2423052   4.836   2.043   3.045 -0.3016 -0.6880  0.6213
  115MOL    O2523053   4.792   1.950   2.976 -0.2759 -0.1192 -0.1285
  115MOL    N2623054   4.872   2.152   2.986 -0.2783  0.0228 -0.4826
  115MOL    H2723055   4.760   2.242   3.209 -0.8775 -0.3852 -0.4895
  115MOL    H2823056   4.642   2.111   3.197 -0.7580  0.6876  0.4218
  115MOL    H2923057   4.934   2.094   3.235 -0.4564 -0.3757 -0.0880
  115MOL    H3023058   4.900   2.238   3.030  1.8317 -0.2775 -1.1769
  115MOL    H3123059   4.848   2.161   2.888 -1.6292 -0.2777 -0.1961
  115MOL    C3223060   4.835   1.900   3.255 -0.3503  0.0925  0.7625
  115MOL    C3323061   4.963   1.821   3.213 -0.2179 -0.7606 -0.2956
  115MOL    C3423062   4.913   1.687   3.148  0.0539 -0.3143 -0.1275
  115MOL    O3523063   4.898   1.587   3.222  0.2851  0.9311 -0.1070
  115MOL    N3623064   4.900   1.691   3.018  0.0686  0.6812 -0.1798
  115MOL    H3723065   4.749   1.848   3.214  1.8371 -2.6228 -0.5404
  115MOL    H3823066   4.849   1.901   3.363 -0.9759 -1.7175  0.8724
  115MOL    H3923067   5.018   1.877   3.138 -1.1738 -2.7222 -2.5163
  115MOL    H4023068   4.854   1.615   2.970 -0.3374 -0.0765  1.3701
  115MOL    H4123069   4.894   1.784   2.978  1.9710  1.1062  0.4535
  115MOL    C4223070   5.063   1.783   3.333  0.2786 -0.8869 -0.0304
  115MOL    C4323071   5.212   1.742   3.298 -0.2220 -0.3131 -0.5856
  115MOL    C4423072   5.278   1.710   3.432  0.6426 -0.3291  0.5777
  115MOL    O4523073   5.266   1.796   3.522  0.3410 -0.1057  0.5798
  115MOL    N4623074   5.348   1.595   3.453 -0.0899 -0.0313 -0.2712
  115MOL    H4723075   5.027   1.711   3.407 -0.0944 -0.1520  0.5260
  115MOL    H4823076   5.078   1.871   3.396  2.0877 -1.0212 -0.2582
  115MOL    H4923077   5.197   1.647   3.245 -1.4171 -0.5199  0.0893
  115MOL    H5023078   5.355   1.523   3.382 -1.4208 -0.4360 -0.0110
  115MOL    H5123079   5.384   1.592   3.547  1.4589  1.9289 -0.7665
  115MOL    C5223080   5.288   1.856   3.222 -0.7992  0.8804 -0.2483
  115MOL    C5323081   5.415   1.821   3.150  0.2312  0.5104  0.1468
  115MOL    C5423082   5.548   1.858   3.229  0.3512  0.4438  0.1620
  115MOL    O5523083   5.588   1.972   3.249 -0.1931  0.0121 -0.0817
  115MOL    N5623084   5.616   1.757   3.284 -0.5168  0.0227 -0.1227
  115MOL    H5723085   5.303   1.933   3.298 -0.6981 -0.3636  1.0315
  115MOL    H5823086   5.218   1.908   3.156 -2.6806  1.5231  2.1665
  115MOL    H5923087   5.404   1.714   3.133 -0.7397  0.2812  2.1000
  115MOL    H6023088   5.597   1.660   3.263  0.5663 -0.1488 -0.3767
  115MOL    H6123089   5.697   1.776   3.342 -1.2582  1.4522  0.4615
  115MOL    C6223090   5.424   1.883   3.011  0.2472 -0.0270 -0.7135
  115MOL    C6323091   5.424   2.034   2.988  0.0678  0.1284  0.0551
  115MOL    C6423092   5.283   2.079   2.961 -0.2091  0.1200  0.0175
  115MOL    O6523093   5.236   2.057   2.848 -0.1267  0.0726  0.1030
  115MOL    N6623094   5.221   2.149   3.056  0.5880 -0.2492 -0.6596
  115MOL    H6723095   5.362   1.835   2.935 -0.7539 -1.8275  1.1821
  115MOL    H6823096   5.519   1.850   2.969  0.3051  0.2125 -0.7726
  115MOL    H6923097   5.458   2.082   3.080 -0.2145 -1.3744  0.9572
  115MOL    H7023098   5.260   2.182   3.144 -0.5431  2.1571 -1.0085
  115MOL    H7123099   5.124   2.171   3.038  0.6025  2.6093  2.1815
  115MOL    C7223100   5.521   2.083   2.874 -0.1394 -0.7292  0.6220
  115MOL    C7323101   5.657   2.137   2.939  0.1506  0.3684 -0.0787
  115MOL    C7423102   5.644   2.281   2.994 -0.2715  0.2542 -0.5895
  115MOL    O7523103   5.597   2.371   2.931 -0.1386  1.2134 -0.5841
  115MOL    N7623104   5.697   2.302   3.116  0.0706  0.4531  0.4300
  115MOL    H7723105   5.478   2.158   2.807  1.9647 -0.7481 -0.7877
  115MOL    H7823106   5.543   2.003   2.803 -0.4174  0.5566 -0.9587
  115MOL    H7923107   5.682   2.070   3.021  1.4503  0.9634  0.0204
  115MOL    H8023108   5.764   2.237   3.155  1.4491  0.6203 -1.6000
  115MOL    H8123109   5.683   2.393   3.158  0.0728  0.4276  0.4866
  115MOL    C8223110   5.782   2.118   2.843  0.2897  0.1601 -0.2215
  115MOL    C8323111   5.823   2.223   2.740  0.0226 -0.3621  0.1935
  115MOL    C8423112   5.720   2.233   2.634  0.3769  0.3075 -0.1558
  115MOL    O8523113   5.723   2.160   2.539 -0.4556 -0.4048  0.4970
  115MOL    N8623114   5.627   2.329   2.653  0.0925  0.5620 -0.7173
  115MOL    H8723115   5.787   2.019   2.798  3.2874 -0.0276  0.3902
  115MOL    H8823116   5.864   2.115   2.915  1.2610  1.3514 -1.2563
  115MOL    H8923117   5.834   2.315   2.797  1.1593 -1.6560  2.1305
  115MOL    H9023118   5.601   2.355   2.747  0.6404  0.7545 -0.6140
  115MOL    H9123119   5.577   2.353   2.569  0.5116  1.4630 -0.7149
  115MOL    C9223120   5.962   2.173   2.680 -0.0864 -0.1139 -0.4032
  115MOL    C9323121   6.091   2.182   2.771 -0.5075 -0.1902 -0.3998
  115MOL    C9423122   6.129   2.320   2.819 -0.4650  0.6584 -0.5244
  115MOL    O9523123   6.198   2.394   2.750 -0.4588  0.0784 -0.5093
  115MOL    N9623124   6.098   2.358   2.939 -0.7296 -0.6143 -0.6009
  115MOL    H9723125   5.978   2.230   2.589 -0.9166  1.6130  0.4963
  115MOL    H9823126   5.944   2.068   2.657 -1.4853  0.1002 -0.3804
  115MOL    H9923127   6.066   2.130   2.864 -1.2117 -0.9004 -0.9771
  115MOL   H10023128   6.137   2.446   2.967  0.7642 -0.8976 -1.7467
  115MOL   H10123129   6.047   2.296   3.002 -1.1240 -0.0517 -0.3620
  115MOL   C10223130   6.212   2.112   2.706  0.5203  0.3889 -0.3838
  115MOL   C10323131   6.225   1.958   2.750 -0.3973 -0.5818 -0.2690
  115MOL   C10423132   6.280   1.949   2.897  0.3306 -0.6578 -0.0554
  115MOL   O10523133   6.381   2.013   2.932 -0.0282 -0.3543 -0.5280
  115MOL   N10623134   6.226   1.856   2.969 -1.3876  0.2737 -0.5905
  115MOL   H10723135   6.301   2.164   2.741  1.6930 -2.3082  0.7915
  115MOL   H10823136   6.209   2.130   2.598  2.9562  0.4615 -0.4687
  115MOL   H10923137   6.121   1.925   2.751 -1.0812  1.4991  0.5427
  115MOL   H11023138   6.278   1.822   3.049 -0.0481  0.2791 -1.4438
  115MOL   H11123139   6.175   1.788   2.915 -0.5483 -1.6051  0.8801
  115MOL   C11223140   6.305   1.878   2.650  0.0441  0.0246 -0.2544
  115MOL   C11323141   6.444   1.935   2.606  0.6316  0.0636 -0.2742
  115MOL   C11423142   6.433   2.017   2.470  0.1500 -0.2910  0.4545
  115MOL   O11523143   6.375   1.967   2.377  0.5336  0.3475  0.1348
  115MOL   N11623144   6.499   2.131   2.461  0.1117 -0.2602  0.2934
  115MOL   H11723145   6.245   1.869   2.559  0.0240 -0.8146 -0.1693
  115MOL   H11823146   6.318   1.778   2.692 -0.3113  0.0754 -0.0229
  115MOL   H11923147   6.486   1.999   2.684  1.8326  0.2094 -1.0114
  115MOL   H12023148   6.465   2.196   2.392  0.0868  0.0840  0.6306
  115MOL   H12123149   6.556   2.170   2.534  0.9628 -0.0768 -0.4543
  115MOL   C12223150   6.542   1.817   2.586 -0.8433  0.5961  0.4730
  115MOL   C12323151   6.594   1.765   2.726 -0.6654  0.0245 -0.1984
  115MOL   C12423152   6.688   1.861   2.787 -0.2973 -0.6468 -0.2380
  115MOL   O12523153   6.798   1.887   2.738  0.0036 -0.3905  0.0174
  115MOL   N12623154   6.656   1.930   2.897 -0.4512 -0.5425  0.1849
  115MOL   H12723155   6.637   1.840   2.537 -0.1591 -0.9195  1.0510
  115MOL   H12823156   6.492   1.746   2.520 -1.7991  1.9484 -0.2875
  115MOL   H12923157   6.502   1.766   2.784 -1.6256 -1.5742 -1.6466
  115MOL   H13023158   6.729   1.992   2.928 -0.9001  0.3454 -0.4954
  115MOL   H13123159   6.563   1.931   2.938 -0.4388  0.8308  0.1884
  115MOL   C13223160   6.657   1.616   2.723  0.6610 -0.0492 -0.8304
  115MOL   C13323161   6.634   1.517   2.838 -0.2515 -0.9556 -0.3428
  115MOL   C13423162   6.486   1.468   2.841  0.3387  0.2298  0.1851
  115MOL   O13523163   6.406   1.555   2.857 -0.2519  0.6901 -0.1942
  115MOL   N13623164   6.456   1.344   2.818 -0.2253 -0.3962 -0.1229
  115MOL   H13723165   6.765   1.623   2.706  0.7374  1.2190  0.0831
  115MOL   H13823166   6.623   1.576   2.627  1.1495 -0.3893 -0.8618
  115MOL   H13923167   6.704   1.437   2.815 -0.5174 -1.3921  0.3436
  115MOL   H14023168   6.527   1.273   2.829  0.2417 -0.2053 -1.7781
  115MOL   H14123169   6.360   1.316   2.809  0.0723 -0.9646 -1.6038
  115MOL   C14223170   6.679   1.594   2.965 -0.2953 -0.1612  0.5499
  115MOL   C14323171   6.665   1.505   3.090  0.1033 -0.0524  0.4607
  115MOL   C14423172   6.718   1.590   3.201 -0.3125  0.3340  0.1621
  115MOL   O14523173   6.826   1.654   3.190 -0.1476  0.3509 -0.0859
  115MOL   N14623174   6.653   1.579   3.315 -0.9441  0.4578 -0.4585
  115MOL   H14723175   6.636   1.694   2.973  1.5486  0.8250 -1.2016
  115MOL   H14823176   6.785   1.609   2.944  0.1092 -2.6288  0.7183
  115MOL   H14923177   6.556   1.494   3.093  0.0132  1.1643  1.8813
  115MOL   H15023178   6.554   1.557   3.321 -1.1354  1.2355 -0.8228
  115MOL   H15123179   6.698   1.622   3.394  1.5437 -0.9891 -1.0421
  115MOL   C15223180   6.735   1.363   3.077 -0.4225  0.3624 -0.3381
  115MOL   C15323181   6.731   1.277   3.212  0.5521  0.0018 -0.0559
  115MOL   C15423182   6.823   1.158   3.197  0.8594 -0.6906  0.1576
  115MOL   O15523183   6.937   1.158   3.233  0.5140  0.0117 -0.5208
  115MOL   N15623184   6.777   1.051   3.136  0.1456 -0.4933  0.4966
  115MOL   H15723185   6.831   1.378   3.028 -0.0155 -1.4749 -0.1602
  115MOL   H15823186   6.678   1.304   3.005  2.3306 -1.2511 -1.2517
  115MOL   H15923187   6.769   1.338   3.294  0.7350  0.1199 -0.2278
  115MOL   H16023188   6.681   1.041   3.107 -0.8622  2.5095  2.6148
  115MOL   H16123189   6.836   0.969   3.123 -1.7148 -1.6102 -1.1665
  115MOL   C16223190   6.578   1.233   3.244 -0.5599 -0.2465 -0.1658
  115MOL   C16323191   6.546   1.166   3.383  0.3801 -0.1725  0.0687
  115MOL   C16423192   6.408   1.112   3.379  0.3815 -0.6062 -0.4494
  115MOL   O16523193   6.388   0.994   3.392  0.3713  0.1809 -0.1589
  115MOL   N16623194   6.314   1.199   3.366 -0.4628  0.5614  0.3986
  115MOL   H16723195   6.532   1.173   3.164  0.8302 -1.2339 -0.2462
  115MOL   H16823196   6.516   1.322   3.238 -1.0374 -0.6460 -1.4674
  115MOL   H16923197   6.612   1.080   3.387 -0.8337 -1.1171  0.0141
  115MOL   H17023198   6.221   1.171   3.395 -0.3914 -0.6517 -0.5228
  115MOL   H17123199   6.346   1.294   3.357  2.4676 -0.5242 -1.3174
  115MOL   C17223200   6.571   1.257   3.508 -0.2997  0.4681  0.2683
  115MOL   C17323201   6.589   1.189   3.645  0.6444 -0.1721 -0.6062
  115MOL   C17423202   6.579   1.292   3.760  0.5725 -0.0366  0.1929
  115MOL   O17523203   6.613   1.407   3.760 -0.2911 -0.3115 -0.0930
  115MOL   N17623204   6.516   1.242   3.869 -0.2742 -0.4610 -0.0606
  115MOL   H17723205   6.506   1.345   3.508 -0.2820  0.4815  0.2882
  115MOL   H17823206   6.663   1.315   3.500  0.7488 -1.4384 -1.8754
  115MOL   H17923207   6.506   1.118   3.645  0.2930  0.2334 -1.3049
  115MOL   H18023208   6.463   1.157   3.878  0.4177 -1.0842 -1.6759
  115MOL   H18123209   6.514   1.312   3.942  1.3045  1.0496 -1.3858
  115MOL   C18223210   6.725   1.118   3.652  0.4062 -0.0312  0.2904
  115MOL   C18323211   6.724   0.974   3.716 -0.5660  0.0723  0.0467
  115MOL   C18423212   6.722   0.985   3.870  0.1651  0.5693  0.1552
  115MOL   O18523213   6.811   1.043   3.930  0.1715 -0.7087  0.0947
  115MOL   N18623214   6.625   0.929   3.941  1.0789  0.5789 -0.2900
  115MOL   H18723215   6.801   1.172   3.708  1.3929 -2.2309  1.1475
  115MOL   H18823216   6.774   1.120   3.555  0.2380  0.1538  0.2095
  115MOL   H18923217   6.638   0.922   3.674 -0.8037 -0.0457  0.6784
  115MOL   H19023218   6.557   0.875   3.888  1.3842  0.7115 -0.8144
  115MOL   H19123219   6.618   0.924   4.042 -1.5158  1.6565 -0.3719
  115MOL   C19223220   6.846   0.898   3.665  0.1287  0.1107 -0.5242
  115MOL   C19323221   6.856   0.747   3.707  0.2231  0.7758  0.3542
  115MOL   C19423222   6.747   0.655   3.655 -0.0036 -0.8154 -0.1323
  115MOL   O19523223   6.630   0.696   3.628  0.1346 -0.1159 -0.3220
  115MOL   N19623224   6.784   0.530   3.629 -0.0062 -0.1983  0.0067
  115MOL   H19723225   6.935   0.951   3.699  0.8994 -0.1794 -2.0755
  115MOL   H19823226   6.841   0.908   3.557 -1.7614 -1.3268 -0.6078
  115MOL   H19923227   6.942   0.717   3.648 -0.7362  3.6366 -2.6275
  115MOL   H20023228   6.719   0.464   3.588 -0.4131 -1.6266  2.8570
  115MOL   H20123229   6.881   0.508   3.648 -0.0092  0.8686  1.3550
  115MOL   H20223230   6.887   0.729   3.810 -0.7928  0.7134  0.6497
  116MOL     C123231   1.507   6.381   4.326  0.7746 -0.2812  0.6369
  116MOL     C223232   1.639   6.344   4.255  0.0123 -0.2314 -0.3402
  116MOL     C323233   1.648   6.373   4.103  0.1733 -0.3552  0.0479
  116MOL     O423234   1.638   6.282   4.017 -0.1258 -0.3936  0.0291
  116MOL     N523235   1.669   6.499   4.079 -0.1014  0.0447 -0.1973
  116MOL     H623236   1.427   6.313   4.298 -0.4812  1.7764 -0.9232
  116MOL     H723237   1.516   6.381   4.435  1.1519 -2.9791  0.6495
  116MOL     H823238   1.720   6.400   4.302 -0.5100 -1.5538  2.2106
  116MOL     H923239   1.706   6.552   4.157 -0.0948  0.0350 -0.1940
  116MOL    H1023240   1.681   6.535   3.985 -4.5071 -1.4708 -1.4246
  116MOL    H1123241   1.468   6.476   4.291 -1.2188 -1.4771 -0.4237
  116MOL    C1223242   1.692   6.205   4.298  0.3547  0.1919  0.1925
  116MOL    C1323243   1.581   6.088   4.298  0.2108  0.8018  0.0520
  116MOL    C1423244   1.502   6.061   4.427  0.3641 -0.3864 -0.8125
  116MOL    O1523245   1.384   6.096   4.449  0.3124 -0.6409  0.5396
  116MOL    N1623246   1.564   6.011   4.532 -0.5927  0.0950 -0.5148
  116MOL    H1723247   1.734   6.217   4.397  2.1042 -0.0872 -0.4967
  116MOL    H1823248   1.775   6.183   4.231  0.2290  0.6762 -0.1289
  116MOL    H1923249   1.498   6.120   4.235 -0.2159 -0.8644 -0.2661
  116MOL    H2023250   1.522   6.000   4.623 -0.6379  0.0835 -0.5378
  116MOL    H2123251   1.665   6.019   4.532 -0.5091 -0.7983 -2.0250
  116MOL    C2223252   1.636   5.953   4.242  0.2649  0.2393 -0.0080
  116MOL    C2323253   1.523   5.873   4.164 -0.2001 -0.9294 -0.4168
  116MOL    C2423254   1.458   5.769   4.260 -0.3359  0.2669  0.6285
  116MOL    O2523255   1.515   5.714   4.355 -0.3688  0.0188 -0.1268
  116MOL    N2623256   1.329   5.747   4.235  0.0938 -0.4653  0.4017
  116MOL    H2723257   1.697   5.891   4.308 -2.0953 -1.1889  0.8828
  116MOL    H2823258   1.723   5.974   4.180  0.2531 -0.9056 -0.4264
  116MOL    H2923259   1.450   5.941   4.120  1.6866  0.6336 -1.2170
  116MOL    H3023260   1.296   5.661   4.277 -0.7096 -0.3032  0.1047
  116MOL    H3123261   1.268   5.775   4.160  0.8021 -1.9962 -0.7781
  116MOL    C3223262   1.578   5.798   4.041 -0.1043  0.1054  0.0484
  116MOL    C3323263   1.625   5.889   3.922  1.0976 -0.1720 -0.5913
  116MOL    C3423264   1.496   5.956   3.873  0.0561 -0.9976  0.0865
  116MOL    O3523265   1.417   5.903   3.794 -0.5439 -0.2532 -0.4406
  116MOL    N3623266   1.477   6.085   3.914 -0.3362  0.1980  0.0567
  116MOL    H3723267   1.498   5.739   3.996  0.5940 -0.2810 -0.7094
  116MOL    H3823268   1.664   5.738   4.069  0.7899  1.0356 -0.6677
  116MOL    H3923269   1.687   5.964   3.971 -1.5838  1.0798  0.9804
  116MOL    H4023270   1.382   6.119   3.904 -0.4937  0.6310  2.7169
  116MOL    H4123271   1.548   6.130   3.970 -2.1829 -0.0318  2.6889
  116MOL    C4223272   1.697   5.817   3.811 -0.4910 -0.4690 -0.1606
  116MOL    C4323273   1.786   5.901   3.723 -0.7717  0.4365  0.1262
  116MOL    C4423274   1.784   5.857   3.578 -0.0020 -0.7040  0.1764
  116MOL    O4523275   1.754   5.750   3.549  0.3541  0.5711 -0.0314
  116MOL    N4623276   1.812   5.940   3.476 -0.7284 -0.0519 -0.0448
  116MOL    H4723277   1.621   5.769   3.749 -0.9230  1.0693 -0.8355
  116MOL    H4823278   1.756   5.732   3.847  0.2544 -0.3846 -1.1666
  116MOL    H4923279   1.731   5.995   3.724 -0.2967  0.7596 -2.5168
  116MOL    H5023280   1.836   6.035   3.499 -1.5293  0.2270 -0.3379
  116MOL    H5123281   1.796   5.925   3.378  1.6748 -1.4239 -0.2602
  116MOL    C5223282   1.931   5.919   3.779 -0.4722 -0.1116 -0.1902
  116MOL    C5323283   2.007   6.055   3.739 -0.4619  0.0879  0.5210
  116MOL    C5423284   2.155   6.019   3.760 -0.6571 -0.9419  0.0293
  116MOL    O5523285   2.210   6.004   3.873 -0.1256  0.5593  0.2698
  116MOL    N5623286   2.230   6.003   3.651  1.0424 -0.0032  0.0150
  116MOL    H5723287   1.989   5.833   3.745  0.3712  0.9912 -1.6025
  116MOL    H5823288   1.921   5.908   3.887  0.7683  0.1453 -0.0396
  116MOL    H5923289   1.994   6.073   3.633  3.1568 -0.5194 -0.1188
  116MOL    H6023290   2.328   5.978   3.652  2.2705  4.3371  2.1574
  116MOL    H6123291   2.195   6.005   3.557 -0.9762 -2.4913  0.6720
  116MOL    C6223292   1.957   6.173   3.831 -0.3244  0.3867  0.0043
  116MOL    C6323293   1.901   6.303   3.770  0.5087  0.3806  0.7582
  116MOL    C6423294   1.803   6.271   3.654 -0.3082 -0.3289  0.4394
  116MOL    O6523295   1.836   6.281   3.540  0.1071  0.1096 -0.2770
  116MOL    N6623296   1.675   6.244   3.684 -0.9432 -0.4665  0.5985
  116MOL    H6723297   2.042   6.202   3.893  0.0992  0.6176 -0.6817
  116MOL    H6823298   1.895   6.132   3.911  0.5850 -1.3714 -0.1857
  116MOL    H6923299   1.835   6.349   3.844 -0.0565 -2.0374  1.7928
  116MOL    H7023300   1.609   6.219   3.612 -0.2299 -0.5697 -0.0278
  116MOL    H7123301   1.640   6.257   3.778 -0.9948  0.2872  0.4773
  116MOL    C7223302   1.997   6.422   3.736  0.2815  0.0241 -0.1655
  116MOL    C7323303   2.101   6.396   3.625  0.6368 -0.1248  0.0075
  116MOL    C7423304   2.238   6.433   3.690 -0.5792 -0.6036  0.5339
  116MOL    O7523305   2.264   6.544   3.736 -0.0512 -0.4309 -0.7128
  116MOL    N7623306   2.325   6.335   3.689 -0.6250  0.5004 -0.3365
  116MOL    H7723307   2.041   6.445   3.834 -0.9317 -1.5570  0.7783
  116MOL    H7823308   1.946   6.518   3.730 -0.5888 -0.2645  1.9468
  116MOL    H7923309   2.116   6.289   3.610  2.2201  0.4087 -2.4938
  116MOL    H8023310   2.285   6.248   3.655  0.8110  0.1427 -1.1199
  116MOL    H8123311   2.408   6.341   3.746 -0.3020  0.7124 -0.8363
  116MOL    C8223312   2.086   6.480   3.491  1.2069  0.8964  0.3580
  116MOL    C8323313   2.050   6.632   3.506  0.4903 -0.2808  0.1304
  116MOL    C8423314   1.898   6.658   3.479  0.0154 -0.5670  0.8989
  116MOL    O8523315   1.858   6.669   3.364  0.0768 -0.2027  0.5771
  116MOL    N8623316   1.811   6.663   3.579 -0.3810  0.2346 -0.1089
  116MOL    H8723317   2.026   6.432   3.414  0.9160 -0.3752  1.3569
  116MOL    H8823318   2.185   6.475   3.446  1.2890 -3.3745  0.8531
  116MOL    H8923319   2.069   6.651   3.612 -1.4418 -1.1515  0.6704
  116MOL    H9023320   1.852   6.653   3.671 -0.9363 -0.6523  0.0485
  116MOL    H9123321   1.710   6.666   3.570 -0.2527  1.9544 -1.2237
  116MOL    C9223322   2.134   6.729   3.411 -0.0255  1.3899 -0.5142
  116MOL    C9323323   2.175   6.865   3.467  0.2382 -0.4497  0.2105
  116MOL    C9423324   2.192   6.978   3.358  0.0822 -0.6810 -0.2162
  116MOL    O9523325   2.257   6.957   3.258 -0.3217 -0.0874  0.4088
  116MOL    N9623326   2.132   7.094   3.374 -0.9329 -0.8276  0.4521
  116MOL    H9723327   2.094   6.725   3.310  0.4051 -2.2256 -0.6200
  116MOL    H9823328   2.228   6.674   3.396 -1.4210 -0.4033 -3.0459
  116MOL    H9923329   2.090   6.902   3.524  0.8400  0.8646  0.2717
  116MOL   H10023330   2.064   7.136   3.436  0.6321  0.8235  1.0945
  116MOL   H10123331   2.166   7.161   3.306  1.2430 -2.4327 -0.0881
  116MOL   C10223332   2.304   6.868   3.543 -0.2311 -0.3702 -0.3009
  116MOL   C10323333   2.296   6.989   3.646  0.6464  0.5826  0.0330
  116MOL   C10423334   2.437   7.040   3.687  0.2238  0.3215  0.7933
  116MOL   O10523335   2.532   6.960   3.703 -0.0460  0.2070 -1.0773
  116MOL   N10623336   2.466   7.167   3.687  0.0373 -0.4720 -0.1831
  116MOL   H10723337   2.389   6.883   3.476 -0.2125 -0.6846 -0.3464
  116MOL   H10823338   2.334   6.774   3.590 -1.9416 -1.7153 -1.8398
  116MOL   H10923339   2.245   7.076   3.605 -1.3600  0.4248  2.0576
  116MOL   H11023340   2.559   7.192   3.718  0.2901 -0.1273 -1.2039
  116MOL   H11123341   2.403   7.242   3.664  1.9932  1.4152  0.4794
  116MOL   C11223342   2.224   6.932   3.771 -0.2946  0.1455 -0.0645
  116MOL   C11323343   2.102   7.009   3.814  0.3401  0.3615  0.7157
  116MOL   C11423344   2.137   7.092   3.945 -0.1824  0.2298 -0.2034
  116MOL   O11523345   2.143   7.045   4.058  0.1341 -0.4407 -0.8325
  116MOL   N11623346   2.154   7.221   3.924  0.3073  0.4370  0.6707
  116MOL   H11723347   2.297   6.934   3.852  0.7097 -0.4068 -0.9230
  116MOL   H11823348   2.210   6.824   3.764  2.5538 -0.2877  0.0797
  116MOL   H11923349   2.068   7.069   3.729  1.9146 -0.5686 -0.6021
  116MOL   H12023350   2.169   7.281   4.003  1.0862  0.4136  0.5456
  116MOL   H12123351   2.169   7.265   3.834 -1.6047 -1.3763 -0.5796
  116MOL   C12223352   1.994   6.905   3.837  0.4567 -0.5894  0.4109
  116MOL   C12323353   1.850   6.960   3.868 -0.0176 -0.2981  0.8978
  116MOL   C12423354   1.786   6.847   3.948 -0.2016 -0.3898 -0.5221
  116MOL   O12523355   1.793   6.731   3.911  0.0062  0.1432  0.3908
  116MOL   N12623356   1.719   6.888   4.053 -0.0235  0.2964  0.1374
  116MOL   H12723357   2.027   6.829   3.908  1.0490  0.2666  1.0635
  116MOL   H12823358   1.991   6.844   3.746 -0.4293  0.5906 -0.3684
  116MOL   H12923359   1.857   7.049   3.931  2.6113  0.2852 -0.1562
  116MOL   H13023360   1.728   6.984   4.085  0.2334  0.8403 -1.5042
  116MOL   H13123361   1.660   6.828   4.108 -0.2940  1.0139  0.6407
  116MOL   C13223362   1.781   7.000   3.739  0.4418 -0.1794  0.2916
  116MOL   C13323363   1.633   7.030   3.737  0.4295 -0.1487  0.2213
  116MOL   C13423364   1.583   7.024   3.591 -0.9466  0.8014 -0.2266
  116MOL   O13523365   1.655   7.072   3.499 -0.3060 -0.7936  0.5591
  116MOL   N13623366   1.464   6.974   3.562 -0.0532  0.1622  1.2830
  116MOL   H13723367   1.794   6.920   3.665 -3.6772 -0.2371 -0.4659
  116MOL   H13823368   1.833   7.079   3.684 -0.0490  0.9099  1.3757
  116MOL   H13923369   1.585   6.944   3.783 -1.3068  0.3577 -0.6037
  116MOL   H14023370   1.407   6.937   3.636 -0.0062  0.5603  1.5212
  116MOL   H14123371   1.434   6.959   3.466  3.8489  0.6821 -0.0918
  116MOL   C14223372   1.600   7.158   3.818 -0.1255  0.5379  0.0484
  116MOL   C14323373   1.451   7.206   3.816  0.7023  0.4723  0.0656
  116MOL   C14423374   1.434   7.311   3.702 -0.0528  0.5804  0.7813
  116MOL   O14523375   1.513   7.398   3.676  0.3122 -0.0927 -0.1468
  116MOL   N14623376   1.327   7.305   3.627  0.5256 -0.8815 -0.0907
  116MOL   H14723377   1.657   7.244   3.782 -0.4221  0.9692  0.5911
  116MOL   H14823378   1.627   7.144   3.922 -2.1586 -0.8253  0.4290
  116MOL   H14923379   1.394   7.116   3.792  0.1574  0.3124  1.9285
  116MOL   H15023380   1.248   7.246   3.651  0.7390  0.3363  3.9304
  116MOL   H15123381   1.306   7.356   3.543  0.5373 -1.1915 -0.2814
  116MOL   C15223382   1.406   7.279   3.945  0.7191 -0.3032 -0.4148
  116MOL   C15323383   1.377   7.199   4.070 -0.0117 -0.1208 -0.6523
  116MOL   C15423384   1.236   7.140   4.077  0.3087 -0.0897  0.4056
  116MOL   O15523385   1.140   7.194   4.137  0.3503  0.2528  0.3123
  116MOL   N15623386   1.197   7.032   4.011  0.0099  0.1867  0.1372
  116MOL   H15723387   1.316   7.337   3.925 -0.8806 -2.2122  0.9981
  116MOL   H15823388   1.484   7.350   3.969  1.5901 -2.1540  2.5421
  116MOL   H15923389   1.456   7.124   4.064 -0.3535 -0.5223 -0.0575
  116MOL   H16023390   1.269   6.973   3.971 -2.2726 -1.8440 -1.0590
  116MOL   H16123391   1.099   7.020   3.990 -0.0506  1.0351 -0.0954
  116MOL   C16223392   1.407   7.284   4.197  0.2304 -1.0883  0.6782
  116MOL   C16323393   1.394   7.201   4.334 -0.1134 -0.1469  0.0440
  116MOL   C16423394   1.285   7.254   4.431 -1.1228  0.1037 -0.0070
  116MOL   O16523395   1.310   7.350   4.507 -0.1310  0.8307  0.0666
  116MOL   N16623396   1.162   7.210   4.425 -0.5583  0.3719 -0.3239
  116MOL   H16723397   1.335   7.365   4.206 -0.5864 -1.6031 -0.9356
  116MOL   H16823398   1.506   7.326   4.181 -0.7796  0.6930 -1.1910
  116MOL   H16923399   1.382   7.095   4.313  0.6811 -0.4968  1.2958
  116MOL   H17023400   1.102   7.248   4.497 -0.2437  1.6448 -0.7155
  116MOL   H17123401   1.130   7.142   4.358 -1.2088 -0.8949  1.2356
  116MOL   C17223402   1.531   7.199   4.406 -0.7697 -0.4422  0.3703
  116MOL   C17323403   1.580   7.057   4.452  0.1216 -0.3092 -0.7778
  116MOL   C17423404   1.486   6.987   4.556  0.0205 -0.4276  0.2649
  116MOL   O17523405   1.463   6.869   4.545 -0.0943 -0.0515  0.3361
  116MOL   N17623406   1.433   7.056   4.651  0.1934 -0.4416  0.1513
  116MOL   H17723407   1.537   7.270   4.488  1.2184  0.7401 -0.7579
  116MOL   H17823408   1.606   7.236   4.336 -1.6809  2.0358  0.6580
  116MOL   H17923409   1.574   6.993   4.364  0.8668 -1.1834 -0.2104
  116MOL   H18023410   1.374   7.017   4.723  0.9233 -0.4241  0.7628
  116MOL   H18123411   1.450   7.155   4.640 -0.2320 -0.3247  0.5276
  116MOL   C18223412   1.723   7.062   4.507 -0.6712  0.6183  1.1826
  116MOL   C18323413   1.786   6.923   4.563  0.2940  0.6911  0.0230
  116MOL   C18423414   1.767   6.899   4.714  0.2759 -0.5421  0.3184
  116MOL   O18523415   1.802   6.975   4.796  0.0476  0.0660  0.2175
  116MOL   N18623416   1.719   6.784   4.746 -0.2580  0.2449 -0.2727
  116MOL   H18723417   1.723   7.134   4.589  0.0586 -0.1530  1.8753
  116MOL   H18823418   1.796   7.092   4.432  0.1565  1.4165  2.2882
  116MOL   H18923419   1.726   6.843   4.519 -0.3672  1.6712 -0.8879
  116MOL   H19023420   1.684   6.726   4.670 -0.5593  0.2566 -0.1450
  116MOL   H19123421   1.698   6.771   4.844 -1.3838  2.4648 -0.2089
  116MOL   C19223422   1.936   6.903   4.520  0.0760  0.5087  0.1454
  116MOL   C19323423   1.968   6.871   4.368  0.5381  0.5232  0.7476
  116MOL   C19423424   1.908   6.740   4.321 -0.1663 -0.5874  0.5108
  116MOL   O19523425   1.793   6.706   4.347  0.5691 -0.4309  0.0268
  116MOL   N19623426   1.978   6.654   4.241  0.7146  0.4684 -0.1313
  116MOL   H19723427   1.969   6.816   4.579  1.3020 -1.6635 -3.5870
  116MOL   H19823428   2.001   6.983   4.556  2.5102 -0.1747 -2.5597
  116MOL   H19923429   1.941   6.958   4.308  0.6451  1.1739  1.6119
  116MOL   H20023430   2.077   6.670   4.226  0.5235  1.6483 -0.1633
  116MOL   H20123431   1.952   6.563   4.204 -1.4447 -0.9319  4.5354
  116MOL   H20223432   2.073   6.859   4.345  0.2284 -2.8200  0.8504
  117MOL     C123433   4.250   2.661   0.105 -1.0014 -0.0428 -0.0755
  117MOL     C223434   4.097   2.646   0.126 -0.0862 -0.4918 -0.5760
  117MOL     C323435   4.054   2.564   0.002 -0.1889 -1.1006  0.1390
  117MOL     O423436   4.044   2.609   7.544  0.2464  0.3177 -0.5289
  117MOL     N523437   4.035   2.435   0.018  0.4293  0.5502  0.4273
  117MOL     H623438   4.311   2.592   0.164  1.5128  1.4718 -0.8285
  117MOL     H723439   4.287   2.660   0.002  1.7479 -0.1859  0.8901
  117MOL     H823440   4.077   2.593   0.219  1.0321 -0.2704 -0.2036
  117MOL     H923441   4.034   2.391   0.109 -4.4635  0.6550  0.5706
  117MOL    H1023442   4.019   2.375   7.596  1.1482  0.1881  0.5572
  117MOL    H1123443   4.280   2.760   0.138 -1.4469  0.0547  0.0354
  117MOL    C1223444   4.035   2.788   0.149  0.2672  0.2809  0.0577
  117MOL    C1323445   3.897   2.807   0.217  0.4967  0.4361 -0.4456
  117MOL    C1423446   3.902   2.765   0.365 -0.2613  0.2287  0.4740
  117MOL    O1523447   3.872   2.655   0.399 -0.2713  0.5798 -0.2765
  117MOL    N1623448   3.923   2.865   0.450  0.2256 -0.0761  0.1949
  117MOL    H1723449   4.021   2.839   0.054 -0.0079  0.0646 -0.0195
  117MOL    H1823450   4.102   2.860   0.195 -0.8570  0.9672  0.6445
  117MOL    H1923451   3.879   2.914   0.218 -0.9735  0.2116  2.8301
  117MOL    H2023452   3.892   2.861   0.547  2.7681 -0.7815  1.0156
  117MOL    H2123453   3.966   2.947   0.412  0.2222 -0.8011 -1.3992
  117MOL    C2223454   3.782   2.743   0.137  0.7203  0.0771  0.5539
  117MOL    C2323455   3.738   2.804   0.008 -0.4977  0.5926 -0.1691
  117MOL    C2423456   3.709   2.957   0.012  0.2350  0.0521  0.1634
  117MOL    O2523457   3.631   3.007   0.094  0.3778 -0.4483  0.0872
  117MOL    N2623458   3.763   3.034   7.579 -0.3832 -0.0878  0.3630
  117MOL    H2723459   3.696   2.758   0.203  0.5383 -3.0702  1.1288
  117MOL    H2823460   3.787   2.634   0.134 -3.9657 -0.1672 -2.7196
  117MOL    H2923461   3.820   2.789   7.595 -1.0319  0.0988 -0.6993
  117MOL    H3023462   3.819   2.994   7.506 -4.0004 -1.6009 -1.6934
  117MOL    H3123463   3.726   3.127   7.562 -0.4468 -0.0602  0.6453
  117MOL    C3223464   3.611   2.732   7.620 -0.0996  0.4886  0.2067
  117MOL    C3323465   3.634   2.601   7.547  0.3610 -0.3124  0.3419
  117MOL    C3423466   3.576   2.623   7.407  0.0320 -0.4523  0.0753
  117MOL    O3523467   3.646   2.638   7.307 -0.6417  0.1210 -0.6729
  117MOL    N3623468   3.444   2.617   7.400  0.6387  0.5775  0.4572
  117MOL    H3723469   3.556   2.800   7.555  1.4525 -0.2139 -1.8960
  117MOL    H3823470   3.542   2.716   0.046 -1.2572  1.3505 -0.5699
  117MOL    H3923471   3.741   2.602   7.524 -0.2171 -1.3515 -2.5922
  117MOL    H4023472   3.403   2.614   7.308 -0.2865 -1.7646  0.9174
  117MOL    H4123473   3.397   2.604   7.489  1.5132  0.5071  0.9118
  117MOL    C4223474   3.590   2.474   7.628 -0.0465 -0.1987  0.0589
  117MOL    C4323475   3.603   2.346   7.541  0.5188 -0.7766  0.9417
  117MOL    C4423476   3.558   2.232   7.629  0.0492  0.9168  0.0132
  117MOL    O4523477   3.586   2.226   0.092 -0.5428  0.2346  0.5704
  117MOL    N4623478   3.493   2.127   7.573  0.0153 -0.0578  0.1229
  117MOL    H4723479   3.486   2.488   7.656  0.0296  2.4966 -0.8758
  117MOL    H4823480   3.650   2.468   0.062  0.4352  2.7509 -0.0237
  117MOL    H4923481   3.538   2.335   7.455 -1.2031  0.6274  2.0129
  117MOL    H5023482   3.519   2.037   7.610 -0.1465 -0.0023  0.3711
  117MOL    H5123483   3.464   2.128   7.476  2.5559  0.5549 -0.6879
  117MOL    C5223484   3.748   2.314   7.500  0.6862 -0.1270 -0.0496
  117MOL    C5323485   3.764   2.183   7.402 -0.0239  0.4566  0.0622
  117MOL    C5423486   3.818   2.064   7.482 -0.2055  0.8060 -0.6451
  117MOL    O5523487   3.906   2.089   7.562 -0.3826 -0.4970  0.5153
  117MOL    N5623488   3.769   1.944   7.465  0.0263 -0.6155 -0.3883
  117MOL    H5723489   3.801   2.308   7.595 -0.7918  1.3418  0.8814
  117MOL    H5823490   3.786   2.405   7.453 -2.6150  1.2160 -0.2464
  117MOL    H5923491   3.667   2.165   7.355  0.4283  0.8970 -1.0522
  117MOL    H6023492   3.713   1.923   7.384 -1.1771  0.4706  0.1510
  117MOL    H6123493   3.796   1.877   7.536 -1.9836 -0.6601  0.3574
  117MOL    C6223494   3.860   2.224   7.287  0.3135  0.1669 -0.6899
  117MOL    C6323495   3.893   2.131   7.160 -0.4270 -0.8684  0.5097
  117MOL    C6423496   3.765   2.054   7.112  0.0673 -0.6672 -0.4033
  117MOL    O6523497   3.726   1.959   7.179 -0.1689  0.8669  0.2407
  117MOL    N6623498   3.700   2.088   7.001  0.0925 -0.4366 -0.0112
  117MOL    H6723499   3.954   2.266   7.324  0.6233 -1.3481  0.2663
  117MOL    H6823500   3.810   2.310   7.242 -3.2840 -2.3664 -1.7477
  117MOL    H6923501   3.920   2.197   7.078 -1.1562 -0.2736  0.7412
  117MOL    H7023502   3.716   2.179   6.961 -0.8788 -1.0836 -1.9443
  117MOL    H7123503   3.609   2.045   6.986 -0.5495  1.2093 -0.9665
  117MOL    C7223504   4.015   2.048   7.200  0.3608  0.4710 -0.3430
  117MOL    C7323505   4.063   1.940   7.100 -0.8631  0.0911 -0.2130
  117MOL    C7423506   4.155   1.841   7.163 -0.3416 -0.9284  0.3508
  117MOL    O7523507   4.280   1.855   7.155  0.6812 -0.7253  0.1155
  117MOL    N7623508   4.098   1.745   7.234  0.0696 -0.2459  0.0856
  117MOL    H7723509   4.005   2.004   7.299 -2.3794 -1.3903 -1.3940
  117MOL    H7823510   4.097   2.118   7.216  0.1453  0.4574  0.9153
  117MOL    H7923511   3.972   1.887   7.072 -1.0503  0.1148  0.3483
  117MOL    H8023512   4.159   1.666   7.246  1.1429  0.7223  1.1625
  117MOL    H8123513   3.998   1.728   7.238  0.4210 -2.0604  2.3169
  117MOL    C8223514   4.125   1.999   6.972  0.5428  0.7431 -0.0949
  117MOL    C8323515   4.029   2.000   6.850  0.1245  0.3233  0.0530
  117MOL    C8423516   3.965   1.862   6.818 -0.0596 -0.3624  0.6517
  117MOL    O8523517   4.039   1.769   6.795 -0.1423  0.7059 -0.3461
  117MOL    N8623518   3.834   1.849   6.827 -0.5313  0.5819 -0.1162
  117MOL    H8723519   4.205   1.934   6.938  0.3648 -0.3669  1.5419
  117MOL    H8823520   4.183   2.089   6.991  0.0638  0.9185  0.5589
  117MOL    H8923521   3.951   2.073   6.867 -0.2950  0.2406 -1.5005
  117MOL    H9023522   3.793   1.760   6.805  0.0384 -0.0001  1.1552
  117MOL    H9123523   3.785   1.934   6.853 -1.9868 -0.4637  0.6202
  117MOL    C9223524   4.104   2.040   6.720  0.2572 -0.5208  0.8911
  117MOL    C9323525   4.196   2.172   6.724 -0.7814  0.0848  0.2814
  117MOL    C9423526   4.133   2.305   6.772 -0.3271  1.1833 -0.5061
  117MOL    O9523527   4.050   2.362   6.709  0.4605  0.0205  0.3622
  117MOL    N9623528   4.194   2.364   6.874 -0.2523  0.1072  0.1251
  117MOL    H9723529   4.025   2.046   6.646  1.7979 -0.6775 -0.8108
  117MOL    H9823530   4.172   1.964   6.681  0.9993  1.2337 -1.4104
  117MOL    H9923531   4.276   2.155   6.796  0.3723  4.0589  0.0882
  117MOL   H10023532   4.280   2.322   6.904 -0.0372  0.7371  0.3910
  117MOL   H10123533   4.133   2.424   6.929  0.2940 -0.8214  1.7712
  117MOL   C10223534   4.261   2.178   6.585  0.0247 -0.0564 -0.6034
  117MOL   C10323535   4.408   2.196   6.584  0.0218  0.6466 -0.0803
  117MOL   C10423536   4.488   2.070   6.631  0.5696  0.5763  0.1244
  117MOL   O10523537   4.493   2.032   6.745  0.1459  0.3841 -0.0852
  117MOL   N10623538   4.557   2.009   6.537 -0.4312 -0.4643  0.7459
  117MOL   H10723539   4.223   2.259   6.522  1.0040 -0.1104 -1.2761
  117MOL   H10823540   4.243   2.089   6.525 -0.6926 -0.3951  0.1019
  117MOL   H10923541   4.425   2.215   6.478  0.1105 -0.5496 -0.2867
  117MOL   H11023542   4.561   2.044   6.442  0.7285 -0.3197  0.8447
  117MOL   H11123543   4.618   1.932   6.562  1.0999  0.7557  0.8375
  117MOL   C11223544   4.464   2.326   6.658  0.4768  0.5151  0.1240
  117MOL   C11323545   4.603   2.379   6.609 -0.1054 -0.2539 -0.8006
  117MOL   C11423546   4.672   2.451   6.720  0.2171 -0.1721  0.6121
  117MOL   O11523547   4.647   2.567   6.737 -0.4141 -0.5725 -0.1443
  117MOL   N11623548   4.752   2.381   6.804 -0.2948 -0.6054  0.5542
  117MOL   H11723549   4.454   2.305   6.764  1.5779 -1.8084 -0.1861
  117MOL   H11823550   4.397   2.410   6.641  0.2791  0.3325 -0.0099
  117MOL   H11923551   4.661   2.290   6.585 -0.8951 -1.1137  0.4234
  117MOL   H12023552   4.766   2.283   6.783 -2.9112 -1.3468  2.0033
  117MOL   H12123553   4.776   2.430   6.889 -0.5342 -0.5902  0.6141
  117MOL   C12223554   4.591   2.452   6.474 -0.0817 -0.0164 -0.7695
  117MOL   C12323555   4.694   2.428   6.358  0.4630  0.0823 -0.3540
  117MOL   C12423556   4.665   2.294   6.301  0.3100 -0.9241  0.4726
  117MOL   O12523557   4.715   2.192   6.348 -0.2748 -0.4756 -0.0843
  117MOL   N12623558   4.587   2.291   6.199 -1.0099 -0.7643 -0.2790
  117MOL   H12723559   4.580   2.560   6.471 -0.6607  0.0056  1.3593
  117MOL   H12823560   4.497   2.424   6.427 -0.7953  0.8613  0.1192
  117MOL   H12923561   4.683   2.504   6.280 -0.8802 -1.0030 -1.2486
  117MOL   H13023562   4.547   2.203   6.169 -1.5166 -1.0217  1.1278
  117MOL   H13123563   4.534   2.371   6.167  1.6084  0.1538 -2.4680
  117MOL   C13223564   4.841   2.453   6.394 -0.1314  0.1425 -0.7648
  117MOL   C13323565   4.892   2.604   6.409 -0.1948 -0.0270 -0.2154
  117MOL   C13423566   4.913   2.680   6.279 -0.1651  0.5679 -0.1140
  117MOL   O13523567   4.894   2.802   6.276 -0.7259 -0.4929  0.3171
  117MOL   N13623568   4.950   2.609   6.164 -0.1230  0.1470 -0.3068
  117MOL   H13723569   4.912   2.405   6.325 -0.0868 -0.7957 -0.0794
  117MOL   H13823570   4.860   2.407   6.491 -0.8728 -0.0354 -0.7080
  117MOL   H13923571   4.806   2.652   6.455 -0.9123 -0.6299 -0.8980
  117MOL   H14023572   4.934   2.651   6.074  2.7010  0.7181 -0.5751
  117MOL   H14123573   4.949   2.508   6.160  1.1972  0.1710 -1.5379
  117MOL   C14223574   5.021   2.603   6.506  0.3849  0.5264 -0.2526
  117MOL   C14323575   5.053   2.738   6.573 -0.1559  0.2987  0.6493
  117MOL   C14423576   5.192   2.722   6.633  0.3689  0.9877 -0.7127
  117MOL   O14523577   5.196   2.686   6.755 -0.0215 -0.1168  0.2238
  117MOL   N14623578   5.296   2.725   6.547  0.1368 -0.5754  0.3954
  117MOL   H14723579   5.112   2.575   6.454  0.7803  0.2086  0.6115
  117MOL   H14823580   5.015   2.531   6.588  1.0677  1.0084  0.2218
  117MOL   H14923581   5.076   2.817   6.501  0.7757 -1.4720 -1.0394
  117MOL   H15023582   5.393   2.717   6.574  0.2986  1.0792  0.3688
  117MOL   H15123583   5.277   2.741   6.449 -0.2276  0.0134  0.5566
  117MOL   C15223584   4.948   2.800   6.673 -0.2199  0.2393 -0.2660
  117MOL   C15323585   4.982   2.932   6.746  0.1959 -0.0104 -0.5402
  117MOL   C15423586   4.909   2.938   6.879 -0.1878 -0.1603  0.2926
  117MOL   O15523587   4.794   2.904   6.900  0.5881  0.2817  0.3609
  117MOL   N15623588   4.982   2.972   6.981  0.5321 -0.1760  0.2815
  117MOL   H15723589   4.922   2.719   6.741  3.0565  1.1945  2.2823
  117MOL   H15823590   4.851   2.807   6.623  0.0626  0.7749 -0.7431
  117MOL   H15923591   5.089   2.946   6.758  0.1955 -0.5096  0.0143
  117MOL   H16023592   4.966   2.953   7.079  1.9182  1.2279  0.8130
  117MOL   H16123593   5.079   2.993   6.959 -0.3415  2.9006 -0.9002
  117MOL   C16223594   4.936   3.064   6.667 -0.0485 -0.1927 -1.1835
  117MOL   C16323595   5.001   3.091   6.529  0.4809 -0.2339  0.0233
  117MOL   C16423596   5.155   3.100   6.542  0.5416 -0.9225  0.4770
  117MOL   O16523597   5.209   3.170   6.629 -0.6140  0.1683  0.0224
  117MOL   N16623598   5.228   3.028   6.458 -0.2119  0.1709 -0.1529
  117MOL   H16723599   4.956   3.145   6.737  1.0571 -2.2262  0.8893
  117MOL   H16823600   4.828   3.056   6.657 -0.1142 -3.5846  1.5736
  117MOL   H16923601   4.969   3.020   6.453 -1.1685 -1.3758  1.7366
  117MOL   H17023602   5.185   2.962   6.394 -1.0412 -0.6991  1.2587
  117MOL   H17123603   5.328   3.028   6.460 -0.2060 -0.9089  0.0350
  117MOL   C17223604   4.944   3.228   6.479  0.5965  0.1652  0.2720
  117MOL   C17323605   4.801   3.237   6.427 -0.4232  0.1544 -0.4940
  117MOL   C17423606   4.793   3.148   6.304  0.1029  0.2073 -0.7001
  117MOL   O17523607   4.814   3.192   6.193  0.5141  0.1331  0.3623
  117MOL   N17623608   4.749   3.022   6.325  0.1656 -0.1592 -0.2289
  117MOL   H17723609   5.003   3.253   6.391  0.1374  0.6073  0.0909
  117MOL   H17823610   4.960   3.312   6.546  1.3388  0.9174 -0.8416
  117MOL   H17923611   4.724   3.198   6.494  0.5060  1.2939  1.2881
  117MOL   H18023612   4.777   2.961   6.249 -3.8020 -1.5598 -0.6855
  117MOL   H18123613   4.779   2.990   6.416  1.0696  1.3915  0.0345
  117MOL   C18223614   4.773   3.390   6.393  1.0151  0.2626 -0.3934
  117MOL   C18323615   4.634   3.437   6.361  0.0709 -0.3826  0.3852
  117MOL   C18423616   4.625   3.483   6.217  0.2795  0.9536  0.0250
  117MOL   O18523617   4.686   3.586   6.184  0.1442  0.4340 -0.2472
  117MOL   N18623618   4.564   3.402   6.126  0.3926  0.1248 -0.4787
  117MOL   H18723619   4.837   3.415   6.309  0.0859  0.6481 -0.9945
  117MOL   H18823620   4.812   3.449   6.476  0.5060 -0.5368  0.4298
  117MOL   H18923621   4.564   3.354   6.369 -0.8537  0.2934 -0.4394
  117MOL   H19023622   4.507   3.322   6.148  1.6695 -0.4675  0.7750
  117MOL   H19123623   4.548   3.447   6.037 -3.2376 -0.6422 -0.2560
  117MOL   C19223624   4.572   3.532   6.462 -0.1404 -0.2543  0.1689
  117MOL   C19323625   4.416   3.531   6.469 -0.4684  0.7470 -0.0538
  117MOL   C19423626   4.356   3.648   6.553  0.6403  0.0171  0.0423
  117MOL   O19523627   4.393   3.674   6.669  0.3353  0.3493  0.1732
  117MOL   N19623628   4.251   3.713   6.503 -0.1367 -0.9496  0.8176
  117MOL   H19723629   4.607   3.632   6.437 -1.3427 -0.4905 -2.5673
  117MOL   H19823630   4.612   3.511   6.561 -2.0043 -0.0074  0.9929
  117MOL   H19923631   4.380   3.529   6.366 -0.9126  2.2051  0.0616
  117MOL   H20023632   4.209   3.685   6.415 -1.2440 -0.9763  1.3483
  117MOL   H20123633   4.199   3.777   6.562  0.5864  0.3430  0.0618
  117MOL   H20223634   4.376   3.438   6.510  0.6333  0.2151 -0.1604
  118MOL     C123635   5.836   2.007   5.094 -0.3932  0.4899 -0.1026
  118MOL     C223636   5.746   1.897   5.022  0.8192  0.3386  0.2424
  118MOL     C323637   5.837   1.815   4.927 -0.2116 -0.0019 -0.5527
  118MOL     O423638   5.888   1.857   4.824  0.2041 -0.4016  0.4582
  118MOL     N523639   5.868   1.693   4.967 -0.2249  0.5489 -0.3713
  118MOL     H623640   5.867   2.088   5.029  0.3392  0.1080 -0.2336
  118MOL     H723641   5.779   2.059   5.172  2.4364 -0.9799  3.0842
  118MOL     H823642   5.701   1.826   5.091 -0.5172  0.7846 -0.1587
  118MOL     H923643   5.918   1.629   4.906 -0.0479 -1.3500  1.6886
  118MOL    H1023644   5.850   1.659   5.060  0.0965  0.4133 -0.3560
  118MOL    H1123645   5.914   1.942   5.135 -0.8630  0.0856  0.1516
  118MOL    C1223646   5.638   1.973   4.940  0.4846  0.0987 -0.4017
  118MOL    C1323647   5.494   1.982   4.999  0.2037 -0.1206  0.2365
  118MOL    C1423648   5.417   1.846   4.994  0.5359  0.0478 -0.3695
  118MOL    O1523649   5.405   1.794   4.884  0.9622 -0.1707  0.0742
  118MOL    N1623650   5.389   1.775   5.107 -0.2479  0.5663  0.6103
  118MOL    H1723651   5.617   1.923   4.845 -0.0995 -2.4652  1.0329
  118MOL    H1823652   5.674   2.073   4.916 -1.0578  0.3305 -1.8294
  118MOL    H1923653   5.509   1.988   5.107 -0.6646 -0.4262  0.3759
  118MOL    H2023654   5.419   1.816   5.195  0.8351 -0.2807  0.6439
  118MOL    H2123655   5.346   1.684   5.100  0.4274  0.1329  1.8380
  118MOL    C2223656   5.422   2.100   4.933  0.1669 -0.3085 -0.0320
  118MOL    C2323657   5.329   2.183   5.031 -0.1705  0.2094  0.0053
  118MOL    C2423658   5.218   2.100   5.085 -0.0293 -0.3648  0.1334
  118MOL    O2523659   5.199   2.079   5.205  0.3035  0.2401  0.4129
  118MOL    N2623660   5.122   2.068   4.996 -0.2176 -0.4392  0.1129
  118MOL    H2723661   5.361   2.063   4.851  0.7395 -2.0712  0.3056
  118MOL    H2823662   5.486   2.176   4.887 -0.8421  1.8570  2.0422
  118MOL    H2923663   5.395   2.207   5.114  0.4545 -1.0483 -0.1167
  118MOL    H3023664   5.127   2.094   4.899 -0.1263 -0.9308 -0.0127
  118MOL    H3123665   5.042   2.018   5.033 -1.5861  2.8299  1.7865
  118MOL    C3223666   5.270   2.310   4.966  0.4876 -0.0417 -0.0079
  118MOL    C3323667   5.206   2.410   5.063 -1.1668  0.1401  0.5666
  118MOL    C3423668   5.063   2.428   5.023 -0.2160 -0.6494  0.1966
  118MOL    O3523669   5.021   2.519   4.952  0.0683  0.5252 -0.2045
  118MOL    N3623670   4.977   2.334   5.068  0.0861  0.0098 -0.1904
  118MOL    H3723671   5.202   2.291   4.883 -0.1245 -1.2022  0.7499
  118MOL    H3823672   5.352   2.358   4.912 -1.0519  0.9339 -1.5019
  118MOL    H3923673   5.203   2.373   5.166  1.4244  1.2346  1.0822
  118MOL    H4023674   5.004   2.278   5.147  0.7665  1.1537  0.4097
  118MOL    H4123675   4.885   2.336   5.026 -0.4196  2.8183  0.9200
  118MOL    C4223676   5.284   2.546   5.057  1.0106 -0.7213 -0.0735
  118MOL    C4323677   5.411   2.557   5.147  0.4360 -0.4123  0.2407
  118MOL    C4423678   5.527   2.487   5.080 -0.7264  0.0108 -0.3159
  118MOL    O4523679   5.591   2.392   5.126  0.2313 -0.7864  0.6394
  118MOL    N4623680   5.563   2.549   4.967  0.2033 -0.4007  0.0829
  118MOL    H4723681   5.224   2.628   5.095  1.1962 -0.4133 -0.4480
  118MOL    H4823682   5.302   2.589   4.959  2.0591 -1.0727 -0.0352
  118MOL    H4923683   5.435   2.663   5.140 -0.4337 -0.3108 -1.9367
  118MOL    H5023684   5.646   2.512   4.923  1.6807  2.1686  0.5910
  118MOL    H5123685   5.530   2.641   4.940 -0.4367 -1.3694 -2.5751
  118MOL    C5223686   5.394   2.512   5.289  0.1749 -0.3388  0.1111
  118MOL    C5323687   5.282   2.580   5.376  0.2386 -0.2259 -0.2297
  118MOL    C5423688   5.305   2.734   5.400  0.3335 -0.0267  0.5975
  118MOL    O5523689   5.215   2.813   5.379 -0.0651  0.2271  0.5539
  118MOL    N5623690   5.424   2.775   5.448  0.2338  0.0911  0.3409
  118MOL    H5723691   5.489   2.523   5.340 -0.9426  0.7134  2.0110
  118MOL    H5823692   5.377   2.404   5.281 -1.2722 -0.0429 -1.0867
  118MOL    H5923693   5.192   2.570   5.316 -1.0651 -0.1402  1.6557
  118MOL    H6023694   5.490   2.699   5.456 -0.8841 -1.2165 -2.2622
  118MOL    H6123695   5.453   2.866   5.482  1.9199  0.5857 -2.3038
  118MOL    C6223696   5.258   2.519   5.513 -0.4825 -0.3142 -0.2354
  118MOL    C6323697   5.222   2.368   5.523  0.5227  0.0586 -0.0213
  118MOL    C6423698   5.079   2.346   5.468  0.6271  0.0667 -0.2738
  118MOL    O6523699   4.991   2.430   5.495 -0.7957 -0.5643  0.3673
  118MOL    N6623700   5.057   2.240   5.387  0.1746 -0.0608  0.5415
  118MOL    H6723701   5.175   2.569   5.564  0.2692 -3.0884  3.9531
  118MOL    H6823702   5.339   2.548   5.580 -0.3405 -0.1247 -0.4878
  118MOL    H6923703   5.299   2.311   5.471  0.8946  1.3942 -0.9565
  118MOL    H7023704   5.130   2.175   5.363 -0.2009 -0.3961  0.3009
  118MOL    H7123705   4.963   2.214   5.362  0.0590  2.4305 -1.8548
  118MOL    C7223706   5.228   2.326   5.674 -0.4657 -0.0578 -0.4441
  118MOL    C7323707   5.300   2.198   5.710  0.5911 -0.0548 -0.4347
  118MOL    C7423708   5.241   2.078   5.643 -0.8152 -0.2098  0.3530
  118MOL    O7523709   5.125   2.046   5.655  0.6160  0.0083 -0.2483
  118MOL    N7623710   5.324   2.006   5.572 -0.3804 -0.3127  0.3785
  118MOL    H7723711   5.129   2.326   5.719  0.2868  0.7614  1.2186
  118MOL    H7823712   5.281   2.404   5.727 -1.2165 -0.2660  0.6188
  118MOL    H7923713   5.398   2.219   5.668  0.5312  2.3802  0.5581
  118MOL    H8023714   5.413   2.049   5.554 -1.5158  2.4940  1.3011
  118MOL    H8123715   5.286   1.929   5.518  0.4714 -0.2903 -0.2596
  118MOL    C8223716   5.338   2.167   5.858 -0.1300  0.5300 -0.6029
  118MOL    C8323717   5.229   2.187   5.968 -0.9300 -0.0709 -0.2047
  118MOL    C8423718   5.214   2.340   6.001 -0.7817  0.0808  0.6366
  118MOL    O8523719   5.308   2.416   6.018  0.2561 -0.5408 -0.2791
  118MOL    N8623720   5.089   2.389   5.991  0.1125 -0.4978  0.0893
  118MOL    H8723721   5.415   2.238   5.890 -0.5484  1.2861 -1.2837
  118MOL    H8823722   5.395   2.074   5.870 -2.0440 -0.9924 -2.8244
  118MOL    H8923723   5.139   2.161   5.912  1.1362 -2.5612 -2.5468
  118MOL    H9023724   5.007   2.333   5.978  0.8386 -1.2507 -1.2719
  118MOL    H9123725   5.065   2.487   5.987 -0.1867 -0.4590  2.2107
  118MOL    C9223726   5.250   2.092   6.094 -0.3152 -0.6747  0.1809
  118MOL    C9323727   5.110   2.024   6.137 -0.1132  0.1255  0.0930
  118MOL    C9423728   5.023   2.120   6.212 -0.4522  0.9310  0.0550
  118MOL    O9523729   5.033   2.127   6.334 -0.3343 -0.7269 -0.1185
  118MOL    N9623730   4.933   2.187   6.143 -0.3436 -0.5287 -0.7056
  118MOL    H9723731   5.292   2.143   6.181  0.3279 -1.5533  0.3836
  118MOL    H9823732   5.336   2.028   6.078  0.9560  1.5908 -2.3406
  118MOL    H9923733   5.050   1.992   6.052  1.5465 -0.4801 -0.8695
  118MOL   H10023734   4.911   2.166   6.047  2.7102 -0.8282 -1.3677
  118MOL   H10123735   4.874   2.250   6.196 -0.5478 -1.4935  0.2418
  118MOL   C10223736   5.142   1.896   6.209  0.6360 -0.2148  0.1699
  118MOL   C10323737   5.136   1.768   6.120 -0.1364  0.4643 -0.0421
  118MOL   C10423738   5.003   1.690   6.121 -0.3156 -0.3756  0.0370
  118MOL   O10523739   4.953   1.662   6.016 -0.0308 -0.1022  0.0677
  118MOL   N10623740   4.950   1.664   6.235  0.1648 -0.2831 -0.4176
  118MOL   H10723741   5.070   1.880   6.290 -0.2819 -0.0916 -0.6168
  118MOL   H10823742   5.233   1.908   6.268  0.5802  4.0750 -0.4640
  118MOL   H10923743   5.163   1.800   6.019 -0.6688  1.9748  0.2839
  118MOL   H11023744   4.998   1.710   6.311 -0.5565  1.4074 -0.9515
  118MOL   H11123745   4.876   1.596   6.251  0.3129 -0.1635  0.7919
  118MOL   C11223746   5.257   1.678   6.145  0.1521 -0.4073 -0.3370
  118MOL   C11323747   5.263   1.543   6.061  0.6392 -0.2630  0.3344
  118MOL   C11423748   5.364   1.444   6.116  0.4755 -0.3896  0.2159
  118MOL   O11523749   5.347   1.325   6.104  0.1142 -0.0261  0.6703
  118MOL   N11623750   5.467   1.494   6.184  0.3444  0.2041  0.0111
  118MOL   H11723751   5.261   1.656   6.251  0.0566  0.4708 -0.1429
  118MOL   H11823752   5.349   1.734   6.126  1.7232 -3.0375 -0.7917
  118MOL   H11923753   5.170   1.492   6.085  0.7105 -2.2894 -3.4140
  118MOL   H12023754   5.492   1.591   6.172 -0.3044  0.6389  1.9452
  118MOL   H12123755   5.534   1.427   6.219  2.5428  1.3105 -1.9208
  118MOL   C12223756   5.258   1.555   5.908  0.1801 -0.4442  0.3095
  118MOL   C12323757   5.387   1.593   5.824  0.2154 -0.0442  0.0922
  118MOL   C12423758   5.475   1.707   5.881  0.6650 -0.5236 -0.2587
  118MOL   O12523759   5.441   1.828   5.868  0.7880  0.6380 -0.4774
  118MOL   N12623760   5.584   1.664   5.947  0.1757  0.4899  0.3805
  118MOL   H12723761   5.189   1.637   5.891  1.0289  0.3178  0.5316
  118MOL   H12823762   5.217   1.462   5.867  0.0787  0.6052 -2.0187
  118MOL   H12923763   5.450   1.504   5.830  1.1268  0.6774  1.6314
  118MOL   H13023764   5.634   1.736   5.997  1.9150 -0.3647 -0.0540
  118MOL   H13123765   5.614   1.568   5.959 -0.4964  0.5203  2.5151
  118MOL   C13223766   5.344   1.612   5.678 -0.0841 -0.1265 -0.2953
  118MOL   C13323767   5.429   1.551   5.567 -0.1221  0.3358  0.4527
  118MOL   C13423768   5.397   1.396   5.566  0.2915 -0.8883  0.6501
  118MOL   O13523769   5.480   1.317   5.581 -0.1275 -0.7691 -0.0697
  118MOL   N13623770   5.274   1.360   5.549  0.1705  0.1805  0.0280
  118MOL   H13723771   5.344   1.719   5.658  2.3483 -0.3939 -1.8994
  118MOL   H13823772   5.239   1.586   5.665 -0.4320  1.0889 -0.0175
  118MOL   H13923773   5.396   1.601   5.476  2.5159  1.1768 -0.0875
  118MOL   H14023774   5.200   1.426   5.529 -2.0855 -2.3439 -0.3902
  118MOL   H14123775   5.248   1.263   5.562 -0.9491  0.3735 -0.6944
  118MOL   C14223776   5.573   1.590   5.580 -0.1450  0.0004  0.3915
  118MOL   C14323777   5.636   1.654   5.455 -0.5784  0.7112  0.4423
  118MOL   C14423778   5.585   1.791   5.420 -0.3942  0.1510  0.2322
  118MOL   O14523779   5.464   1.811   5.389  0.1359 -0.1990 -0.2413
  118MOL   N14623780   5.668   1.891   5.436  0.7376 -0.6458 -0.2121
  118MOL   H14723781   5.630   1.511   5.629 -1.0889 -0.5462  0.6448
  118MOL   H14823782   5.583   1.675   5.647 -1.3437 -0.9149  1.7576
  118MOL   H14923783   5.741   1.667   5.482 -0.2123 -2.1803  0.5986
  118MOL   H15023784   5.766   1.873   5.447  0.9754  0.5870 -0.2118
  118MOL   H15123785   5.635   1.986   5.449 -1.9014 -1.6360  0.6941
  118MOL   C15223786   5.630   1.548   5.342  0.8256 -0.3115  0.0763
  118MOL   C15323787   5.732   1.434   5.348  0.5136  0.4738 -0.8091
  118MOL   C15423788   5.862   1.485   5.290  0.2305 -0.3948 -0.1025
  118MOL   O15523789   5.863   1.537   5.179 -0.6977 -0.0869  0.2989
  118MOL   N15623790   5.971   1.482   5.364  0.2162  0.1036 -0.7296
  118MOL   H15723791   5.646   1.599   5.247  1.1747 -0.7319 -0.1000
  118MOL   H15823792   5.528   1.509   5.341  0.5898  0.3192 -0.2529
  118MOL   H15923793   5.744   1.423   5.455 -1.8108  0.6397 -0.5193
  118MOL   H16023794   5.965   1.441   5.456  0.0233 -0.5754 -1.0447
  118MOL   H16123795   6.052   1.488   5.304 -0.0201  3.9175 -0.8165
  118MOL   C16223796   5.687   1.308   5.273  1.2169  0.3420  0.6715
  118MOL   C16323797   5.777   1.187   5.300 -0.6050  0.0729  0.0545
  118MOL   C16423798   5.738   1.075   5.199 -0.6514  0.0423 -0.1584
  118MOL   O16523799   5.645   0.993   5.196 -0.3622 -0.2097 -0.3285
  118MOL   N16623800   5.819   1.080   5.094  0.5121  0.1270  0.4130
  118MOL   H16723801   5.695   1.330   5.167  1.4098  2.0466  1.0255
  118MOL   H16823802   5.585   1.272   5.287  1.3036  0.7991  2.6210
  118MOL   H16923803   5.879   1.220   5.278  0.2362 -3.3038 -1.4227
  118MOL   H17023804   5.893   1.146   5.071  0.4083 -0.2008 -0.8877
  118MOL   H17123805   5.807   1.007   5.025  2.6857 -0.5429  0.7094
  118MOL   C17223806   5.763   1.127   5.448 -0.3473  0.0714  0.2467
  118MOL   C17323807   5.876   1.015   5.488  0.2646 -0.0000 -0.1881
  118MOL   C17423808   5.824   0.955   5.620  0.3555 -0.1834  0.0136
  118MOL   O17523809   5.774   1.025   5.710 -0.2023 -0.4679  0.4296
  118MOL   N17623810   5.831   0.820   5.629  0.0791 -0.1232 -0.0488
  118MOL   H17723811   5.661   1.089   5.448  0.5835 -2.7147 -2.7358
  118MOL   H17823812   5.770   1.204   5.524  1.3447 -0.8322  1.0361
  118MOL   H17923813   5.878   0.944   5.405  1.5541 -0.5312  0.2711
  118MOL   H18023814   5.804   0.781   5.719 -0.0806  1.6456  0.6883
  118MOL   H18123815   5.869   0.761   5.557  1.0906 -1.1775  1.3063
  118MOL   C18223816   6.011   1.077   5.506  0.1357 -0.8621 -0.7086
  118MOL   C18323817   6.136   0.998   5.466  0.0356  0.0598 -0.0023
  118MOL   C18423818   6.152   0.869   5.555  0.4247  0.3493  0.2236
  118MOL   O18523819   6.178   0.895   5.676 -0.1181 -0.1798 -0.1668
  118MOL   N18623820   6.149   0.747   5.508  0.3097  0.4973 -0.0140
  118MOL   H18723821   6.027   1.109   5.609 -1.4880  1.1433 -1.0464
  118MOL   H18823822   6.007   1.168   5.446  1.4190 -1.6684 -2.0493
  118MOL   H18923823   6.124   0.962   5.364 -2.3236  0.3095  0.1668
  118MOL   H19023824   6.170   0.679   5.580 -1.0756  0.2832  0.1914
  118MOL   H19123825   6.132   0.724   5.411  0.8216  2.2310 -0.5486
  118MOL   C19223826   6.271   1.084   5.454  0.2066  0.5670 -0.1977
  118MOL   C19323827   6.320   1.125   5.313 -0.6445  0.2806  0.0299
  118MOL   C19423828   6.244   1.254   5.270 -0.1657  0.0409 -0.5615
  118MOL   O19523829   6.139   1.240   5.210  0.5598 -0.1292 -0.5976
  118MOL   N19623830   6.308   1.369   5.297  0.1279  0.1804  0.2181
  118MOL   H19723831   6.348   1.011   5.480  0.5450  1.3942  1.1809
  118MOL   H19823832   6.288   1.160   5.530  0.0906  0.1838  0.2171
  118MOL   H19923833   6.425   1.151   5.314 -0.9821  1.7115  2.0452
  118MOL   H20023834   6.403   1.359   5.332  0.4389 -1.3606 -1.0342
  118MOL   H20123835   6.267   1.460   5.279 -1.5088 -0.6884 -0.5072
  118MOL   H20223836   6.310   1.041   5.243  0.6733  1.8632 -2.1156
  119MOL     C123837   6.946   4.315   1.899  0.2845 -0.5350 -0.1698
  119MOL     C223838   7.074   4.395   1.872  0.0784  0.4130  0.0843
  119MOL     C323839   7.145   4.436   2.001  0.0932 -0.5427  0.0928
  119MOL     O423840   7.080   4.457   2.097  0.4688  0.4895 -0.5359
  119MOL     N523841   7.274   4.463   2.006 -0.0605  0.1000 -0.0528
  119MOL     H623842   6.891   4.290   1.808 -1.8603  0.3829  0.8345
  119MOL     H723843   6.970   4.236   1.970  1.3211  0.1338  0.2326
  119MOL     H823844   7.144   4.325   1.827  1.7553  0.0334  3.1117
  119MOL     H923845   7.324   4.456   1.918 -1.7130 -0.6911 -0.9709
  119MOL    H1023846   7.332   4.485   2.085  0.8925 -1.3267 -0.3331
  119MOL    H1123847   6.877   4.374   1.960  0.3617 -0.7502  0.1257
  119MOL    C1223848   7.049   4.515   1.774 -0.2386  0.0888 -0.6259
  119MOL    C1323849   6.943   4.619   1.830 -0.3143 -0.1722  0.7592
  119MOL    C1423850   6.808   4.611   1.755  0.4790  0.0714  0.2599
  119MOL    O1523851   6.776   4.680   1.656  0.0261  0.0002  0.3444
  119MOL    N1623852   6.713   4.559   1.820 -0.1288  0.1040 -0.1026
  119MOL    H1723853   7.020   4.482   1.674  0.9183  0.3326 -1.0453
  119MOL    H1823854   7.136   4.572   1.743 -0.4051  0.3193 -0.6689
  119MOL    H1923855   6.929   4.600   1.937 -0.5525 -0.0049  0.7593
  119MOL    H2023856   6.623   4.547   1.776  0.1884  1.7827 -1.2436
  119MOL    H2123857   6.738   4.519   1.910 -1.7405 -2.5211 -0.7712
  119MOL    C2223858   7.000   4.762   1.822  0.2240 -0.6704  0.9070
  119MOL    C2323859   6.921   4.864   1.903  0.1604 -0.1859  0.1567
  119MOL    C2423860   6.971   5.002   1.859  0.1661  0.0036  0.6311
  119MOL    O2523861   7.080   5.044   1.900  0.1950  0.5676 -0.5879
  119MOL    N2623862   6.893   5.073   1.780 -0.0239  0.2460 -0.0682
  119MOL    H2723863   6.998   4.797   1.719 -0.4487  0.7173  1.3863
  119MOL    H2823864   7.104   4.767   1.855 -0.2830 -2.1515  2.8579
  119MOL    H2923865   6.817   4.872   1.872  0.1487 -1.3944 -0.1269
  119MOL    H3023866   6.930   5.146   1.721  0.4285  1.6174  1.8647
  119MOL    H3123867   6.797   5.044   1.768  0.5210 -1.0811 -1.3338
  119MOL    C3223868   6.928   4.851   2.056 -0.6002  0.4972  0.4567
  119MOL    C3323869   6.818   4.763   2.132  0.3240 -0.3557 -0.0152
  119MOL    C3423870   6.683   4.827   2.151  0.8776 -0.0307 -0.0291
  119MOL    O3523871   6.660   4.944   2.170  0.1191 -0.4111 -0.0324
  119MOL    N3623872   6.583   4.738   2.156  0.4975  0.2856 -0.1090
  119MOL    H3723873   6.934   4.947   2.109  1.0378  1.1441 -0.8446
  119MOL    H3823874   7.020   4.797   2.076 -0.2509  0.1774 -1.9678
  119MOL    H3923875   6.798   4.671   2.077 -0.4850  0.6886 -1.5140
  119MOL    H4023876   6.603   4.641   2.140 -1.2229  0.0700 -1.1020
  119MOL    H4123877   6.487   4.767   2.142  0.8725  1.1938 -0.9092
  119MOL    C4223878   6.869   4.701   2.264  0.6660 -0.1720 -0.7698
  119MOL    C4323879   6.872   4.792   2.395  0.4925  0.6097 -0.0110
  119MOL    C4423880   6.950   4.922   2.381 -0.1194 -0.6129  0.1888
  119MOL    O4523881   7.065   4.923   2.347 -0.5722 -0.2877  0.5140
  119MOL    N4623882   6.882   5.034   2.400  0.6456 -0.0603 -0.2380
  119MOL    H4723883   6.966   4.657   2.238  1.4507  0.8535  0.3268
  119MOL    H4823884   6.809   4.612   2.281 -0.4285  0.1746 -2.7383
  119MOL    H4923885   6.769   4.811   2.423  0.3760 -0.2310  0.1476
  119MOL    H5023886   6.936   5.119   2.396 -0.8637  0.9516  0.8080
  119MOL    H5123887   6.789   5.035   2.438  1.1906 -0.5869  1.1544
  119MOL    C5223888   6.928   4.705   2.510 -0.0900 -0.1362 -0.0270
  119MOL    C5323889   6.837   4.581   2.559  0.1991  0.0865 -0.1290
  119MOL    C5423890   6.733   4.633   2.655 -1.1272  0.1031  0.0025
  119MOL    O5523891   6.760   4.633   2.773 -0.4645 -0.4609  0.9337
  119MOL    N5623892   6.622   4.672   2.601  0.4018  0.4043 -0.1015
  119MOL    H5723893   6.951   4.770   2.595 -0.1833 -0.7347  0.4573
  119MOL    H5823894   7.029   4.673   2.481 -0.2894 -1.7019  0.9895
  119MOL    H5923895   6.779   4.545   2.474  1.0863  1.6673 -1.4528
  119MOL    H6023896   6.540   4.694   2.655 -0.5682 -2.2418 -0.4176
  119MOL    H6123897   6.615   4.674   2.500  0.7614  0.8429 -0.1193
  119MOL    C6223898   6.913   4.460   2.612  0.2520 -0.8416 -0.4558
  119MOL    C6323899   6.996   4.379   2.515 -0.6995 -0.1253  0.0350
  119MOL    C6423900   6.898   4.302   2.427  0.4378 -0.9184  0.0725
  119MOL    O6523901   6.823   4.220   2.471  0.0146  0.0056  0.5677
  119MOL    N6623902   6.917   4.320   2.299 -0.3016 -0.0773  0.0861
  119MOL    H6723903   6.850   4.395   2.672  1.3149  0.1421  1.8323
  119MOL    H6823904   6.983   4.497   2.688 -1.4678  0.3596  0.5776
  119MOL    H6923905   7.052   4.449   2.453  0.8592 -1.1909  0.1852
  119MOL    H7023906   6.853   4.279   2.233 -0.2599  1.1092 -0.7057
  119MOL    H7123907   6.994   4.377   2.267  0.6846 -1.1971  0.3779
  119MOL    C7223908   7.100   4.288   2.592  0.3640 -0.0925 -1.1227
  119MOL    C7323909   7.215   4.227   2.509 -0.4847  0.7530 -0.3429
  119MOL    C7423910   7.170   4.115   2.413 -0.4253 -0.7792 -0.5172
  119MOL    O7523911   7.090   4.031   2.450 -0.5523  0.3380 -0.0694
  119MOL    N7623912   7.218   4.115   2.292  0.5186  0.1516  0.2159
  119MOL    H7723913   7.045   4.210   2.644  1.2777  0.2707  0.4110
  119MOL    H7823914   7.135   4.338   2.682  1.6417 -0.3115 -1.5006
  119MOL    H7923915   7.265   4.301   2.447 -1.7757  1.6612 -0.3207
  119MOL    H8023916   7.279   4.190   2.263 -0.2627  0.9764  0.6687
  119MOL    H8123917   7.196   4.037   2.232 -1.7452  1.3877 -0.6138
  119MOL    C8223918   7.324   4.168   2.598  0.1619  0.2252  0.0286
  119MOL    C8323919   7.424   4.265   2.670  0.7429  0.4450 -0.7236
  119MOL    C8423920   7.490   4.380   2.592  0.2445  0.5298 -0.1182
  119MOL    O8523921   7.517   4.485   2.647 -0.1779  0.3770 -0.1633
  119MOL    N8623922   7.522   4.359   2.465 -0.7984 -0.0561 -0.0305
  119MOL    H8723923   7.379   4.093   2.540  0.5765 -0.3994  1.2189
  119MOL    H8823924   7.279   4.102   2.672 -1.2080 -0.2862 -1.2366
  119MOL    H8923925   7.365   4.321   2.742  1.7576 -0.7779  1.1150
  119MOL    H9023926   7.513   4.271   2.417  1.4219  0.0777 -0.7514
  119MOL    H9123927   7.527   4.446   2.414 -1.6992 -0.5442 -0.9705
  119MOL    C9223928   7.529   4.174   2.751 -0.4358  0.2474 -0.2409
  119MOL    C9323929   7.576   4.228   2.887 -0.3519 -0.2873  0.4189
  119MOL    C9423930   0.015   4.351   2.879 -0.3903  0.2075  0.2695
  119MOL    O9523931   0.132   4.335   2.853  0.7501 -0.3562  0.9779
  119MOL    N9623932   7.620   4.462   2.922 -0.7089  0.2995 -0.3361
  119MOL    H9723933   7.619   4.158   2.691  0.2446 -0.2026  0.8989
  119MOL    H9823934   7.491   4.073   2.767 -0.1836 -0.1416 -1.9741
  119MOL    H9923935   7.482   4.253   2.935  0.2396  4.8955 -0.7634
  119MOL   H10023936   0.015   4.546   2.941  0.4308 -0.4974  0.1214
  119MOL   H10123937   7.521   4.453   2.941 -0.9113  1.4018 -0.8485
  119MOL   C10223938   7.630   4.114   2.978 -0.0633 -0.0683 -0.4316
  119MOL   C10323939   7.631   4.139   3.139 -0.0484 -0.2567  0.0196
  119MOL   C10423940   0.069   4.037   3.205  0.1576 -0.1560 -0.3005
  119MOL   O10523941   0.179   4.060   3.249  0.2521 -0.4452 -0.0972
  119MOL   N10623942   0.026   3.913   3.197  0.4730 -0.6530  0.0631
  119MOL   H10723943   0.074   4.088   2.946  0.7565 -0.5037  2.3641
  119MOL   H10823944   7.567   4.028   2.958 -0.1514  0.0918 -0.8357
  119MOL   H10923945   0.022   4.234   3.161  0.8477 -0.4706 -0.9748
  119MOL   H11023946   0.085   3.834   3.218  0.1627 -0.9651 -0.2297
  119MOL   H11123947   7.596   3.892   3.149 -0.1424  1.1292  0.3595
  119MOL   C11223948   7.485   4.143   3.198  0.3240  0.4246  0.2140
  119MOL   C11323949   7.478   4.202   3.342  0.1874  0.7765 -0.4800
  119MOL   C11423950   7.405   4.097   3.427 -0.1581 -0.0424  0.1517
  119MOL   O11523951   7.287   4.109   3.437  0.6122  0.4379 -0.0017
  119MOL   N11623952   7.467   4.004   3.495  0.3098  0.1638 -0.6971
  119MOL   H11723953   7.444   4.043   3.195  1.1638  0.0577  0.8256
  119MOL   H11823954   7.422   4.198   3.128  0.0197 -2.8520 -2.2046
  119MOL   H11923955   7.581   4.213   3.375  0.9081 -1.1117 -1.9671
  119MOL   H12023956   7.567   4.000   3.504  0.1133 -0.9683  1.4803
  119MOL   H12123957   7.417   3.964   3.574  1.2074 -2.0313 -1.2215
  119MOL   C12223958   7.408   4.342   3.353 -0.2621  0.0478 -0.1767
  119MOL   C12323959   7.467   4.460   3.276  0.2277 -0.0031  0.1593
  119MOL   C12423960   7.607   4.490   3.316  0.2632 -0.2796  0.4533
  119MOL   O12523961   7.628   4.528   3.428  0.3855 -0.3882 -0.5869
  119MOL   N12623962   0.042   4.476   3.221 -0.4228  0.5104 -0.5094
  119MOL   H12723963   7.425   4.370   3.457  2.0816 -2.9460  0.2806
  119MOL   H12823964   7.300   4.335   3.338 -0.0089 -2.0589 -1.1110
  119MOL   H12923965   7.467   4.416   3.176 -1.0128 -0.0974  0.1895
  119MOL   H13023966   0.013   4.466   3.125  1.4856  0.3542 -1.0828
  119MOL   H13123967   0.134   4.500   3.254 -0.9546  1.4613  0.3080
  119MOL   C13223968   7.367   4.576   3.267  0.1760 -0.0428 -0.5854
  119MOL   C13323969   7.396   4.693   3.165 -0.6956  0.0926  0.1008
  119MOL   C13423970   7.469   4.808   3.243  0.3867  0.3259  0.3795
  119MOL   O13523971   7.400   4.869   3.324  0.4048 -0.4419 -0.2521
  119MOL   N13623972   7.598   4.841   3.221 -0.2268  0.2313  0.2480
  119MOL   H13723973   7.356   4.626   3.364  0.4050 -0.0569 -0.5512
  119MOL   H13823974   7.265   4.545   3.249  0.3317 -0.0377 -1.4959
  119MOL   H13923975   7.474   4.658   3.097  0.2180  0.6393  0.8557
  119MOL   H14023976   7.642   4.921   3.264  1.3626 -1.2590  1.4543
  119MOL   H14123977   7.654   4.779   3.163 -1.7443 -0.4370 -0.5391
  119MOL   C14223978   7.274   4.752   3.084 -0.2585 -0.3042 -0.2592
  119MOL   C14323979   7.187   4.649   2.996  0.0516 -0.0306  0.0453
  119MOL   C14423980   7.267   4.564   2.900 -0.1819  0.2257  0.9163
  119MOL   O14523981   7.341   4.480   2.949  0.3832 -0.5190 -0.1790
  119MOL   N14623982   7.261   4.586   2.769  0.1406  0.1907  0.1034
  119MOL   H14723983   7.312   4.833   3.022  1.2999 -1.0952 -0.3558
  119MOL   H14823984   7.206   4.801   3.153  0.5747  0.3848  0.0693
  119MOL   H14923985   7.142   4.570   3.056  1.2916 -0.2358  0.7358
  119MOL   H15023986   7.341   4.551   2.717 -2.6029 -2.6650 -2.4115
  119MOL   H15123987   7.210   4.658   2.722 -0.5482  0.8470  1.8215
  119MOL   C15223988   7.080   4.730   2.915 -0.3825 -0.5571  0.0186
  119MOL   C15323989   6.972   4.806   2.993  0.6078  0.1290  0.1737
  119MOL   C15423990   6.890   4.708   3.086  0.1118 -0.3260 -0.4421
  119MOL   O15523991   6.918   4.708   3.208 -0.6095  0.3146 -0.4009
  119MOL   N15623992   6.799   4.615   3.039  0.3662  0.0585  0.0445
  119MOL   H15723993   7.025   4.672   2.841  0.5464 -0.7030 -0.5674
  119MOL   H15823994   7.138   4.792   2.846  0.6756 -0.7780  0.7024
  119MOL   H15923995   7.026   4.863   3.068  0.5051 -0.0219  0.3634
  119MOL   H16023996   6.787   4.602   2.940  1.5795 -1.0162  0.0192
  119MOL   H16123997   6.740   4.567   3.105  0.7988 -0.1874  0.2557
  119MOL   C16223998   6.891   4.904   2.901 -1.0363 -0.6097  0.1651
  119MOL   C16323999   6.974   5.026   2.849 -0.3515 -0.4294  0.5494
  119MOL   C16424000   7.025   5.120   2.968  0.3995 -0.5293  0.0185
  119MOL   O16524001   6.958   5.132   3.071 -0.2859  0.0415  0.1810
  119MOL   N16624002   7.137   5.176   2.950 -0.0278 -0.4158 -0.4684
  119MOL   H16724003   6.807   4.938   2.962 -0.2757  2.6804 -0.5299
  119MOL   H16824004   6.844   4.853   2.817 -0.3121 -2.2035  0.7119
  119MOL   H16924005   7.068   4.997   2.803  0.2171  1.8752  0.2164
  119MOL   H17024006   7.183   5.225   3.025 -0.1497 -0.1249 -0.5827
  119MOL   H17124007   7.154   5.184   2.851 -1.1985 -0.4526 -0.6830
  119MOL   C17224008   6.912   5.110   2.734 -0.5680 -0.2249 -1.1546
  119MOL   C17324009   6.775   5.182   2.751  0.2662 -1.1593  0.3732
  119MOL   C17424010   6.659   5.125   2.672  0.2535  0.6274  0.0402
  119MOL   O17524011   6.669   5.109   2.550 -0.0187 -0.3867  0.2535
  119MOL   N17624012   6.553   5.095   2.742 -0.6887  0.4538  0.2343
  119MOL   H17724013   6.905   5.043   2.648  3.0845  0.2342 -1.8617
  119MOL   H17824014   6.987   5.180   2.698  1.9648 -1.3321  1.7724
  119MOL   H17924015   6.761   5.187   2.859 -1.5523  0.6119  0.0816
  119MOL   H18024016   6.468   5.053   2.709  0.0099 -0.8552  0.1011
  119MOL   H18124017   6.561   5.108   2.842 -0.0686 -1.5478  0.4516
  119MOL   C18224018   6.791   5.336   2.716 -0.3787 -0.0124 -0.7234
  119MOL   C18324019   6.688   5.439   2.763  0.6325 -0.0301  0.3259
  119MOL   C18424020   6.561   5.449   2.676  0.0429 -0.4946 -0.3085
  119MOL   O18524021   6.448   5.457   2.730 -0.4302 -0.5184 -0.0806
  119MOL   N18624022   6.567   5.453   2.543 -0.3557  0.9366 -0.5025
  119MOL   H18724023   6.803   5.341   2.608  1.5413  0.1845 -0.5296
  119MOL   H18824024   6.888   5.373   2.751 -1.7155  2.6309  0.3026
  119MOL   H18924025   6.646   5.406   2.857 -0.5492  2.1443  0.6007
  119MOL   H19024026   6.483   5.465   2.489  0.4876  1.8447 -1.6244
  119MOL   H19124027   6.661   5.448   2.506 -0.6459  0.3714 -1.1843
  119MOL   C19224028   6.751   5.582   2.792  0.1986 -0.4366  0.7651
  119MOL   C19324029   6.672   5.685   2.884 -0.4683 -0.7692 -0.4664
  119MOL   C19424030   6.676   5.644   3.035  0.0273  0.0915  0.1485
  119MOL   O19524031   6.782   5.625   3.090  0.5181 -0.1890  0.3445
  119MOL   N19624032   6.562   5.651   3.104  0.2175  0.3272  0.0992
  119MOL   H19724033   6.755   5.641   2.700 -1.3617  2.5496  2.5600
  119MOL   H19824034   6.857   5.587   2.817  0.4991 -0.5785 -0.4535
  119MOL   H19924035   6.724   5.779   2.866 -0.6383 -0.3514  1.1034
  119MOL   H20024036   6.484   5.708   3.073  0.8091  0.6199 -0.8595
  119MOL   H20124037   6.568   5.629   3.203 -0.4770  3.4588  0.8960
  119MOL   H20224038   6.569   5.704   2.851 -0.2932  0.1982 -0.4892
  120MOL     C124039   2.479   3.046   5.248  0.2679  0.0536 -0.2450
  120MOL     C224040   2.612   3.038   5.173  0.2556  0.3661  0.8565
  120MOL     C324041   2.721   2.980   5.268 -0.6337  0.0401  0.9203
  120MOL     O424042   2.719   2.991   5.390  0.3947 -0.2838  0.1543
  120MOL     N524043   2.803   2.900   5.207 -0.2828 -0.1331 -0.3831
  120MOL     H624044   2.494   3.121   5.326 -0.6623 -0.5776  0.5400
  120MOL     H724045   2.405   3.078   5.174  1.1824  0.8966 -0.8145
  120MOL     H824046   2.604   2.982   5.081  1.5184  1.8022 -0.1558
  120MOL     H924047   2.868   2.848   5.265  1.0252 -1.7709 -3.2189
  120MOL    H1024048   2.799   2.882   5.108 -0.9292  0.4790 -0.4668
  120MOL    H1124049   2.442   2.954   5.293 -3.0833  0.5315 -1.8314
  120MOL    C1224050   2.635   3.187   5.137 -0.1212  0.1811 -0.2541
  120MOL    C1324051   2.751   3.193   5.036 -0.8693 -0.3203  0.3339
  120MOL    C1424052   2.880   3.263   5.089  0.4732 -0.6781 -0.2149
  120MOL    O1524053   2.897   3.389   5.079  0.5192  0.1024  0.3468
  120MOL    N1624054   2.978   3.183   5.128 -0.2366 -0.1370  0.0841
  120MOL    H1724055   2.661   3.250   5.222  0.1411  0.3445 -0.4540
  120MOL    H1824056   2.551   3.233   5.085 -2.1588 -3.6347 -0.5035
  120MOL    H1924057   2.795   3.096   5.015 -0.8505  0.0560 -1.3788
  120MOL    H2024058   3.064   3.222   5.164  0.6016 -1.0110 -0.9286
  120MOL    H2124059   2.960   3.085   5.145  0.6553 -0.1065  1.2214
  120MOL    C2224060   2.707   3.223   4.891 -0.0313 -0.0971 -0.8033
  120MOL    C2324061   2.630   3.120   4.814 -0.8182 -0.8159  0.0203
  120MOL    C2424062   2.727   3.015   4.756 -0.5353  0.1064  0.1002
  120MOL    O2524063   2.815   3.047   4.681 -0.0750  0.8310 -0.0990
  120MOL    N2624064   2.698   2.888   4.774 -0.7146 -0.5041 -0.4830
  120MOL    H2724065   2.801   3.241   4.840 -1.5563  3.2737 -2.6308
  120MOL    H2824066   2.658   3.320   4.881 -1.1175 -0.3688  1.4654
  120MOL    H2924067   2.565   3.074   4.888 -2.2585  1.0333 -0.0555
  120MOL    H3024068   2.764   2.818   4.743 -1.9184 -2.2603  0.8109
  120MOL    H3124069   2.606   2.861   4.807 -0.9491  0.4989 -0.2915
  120MOL    C3224070   2.550   3.162   4.688  0.0332  0.1216  0.0763
  120MOL    C3324071   2.414   3.231   4.719  0.5022  0.0879  0.0539
  120MOL    C3424072   2.320   3.133   4.791  0.0644  0.9789 -0.5115
  120MOL    O3524073   2.303   3.023   4.740 -0.3569  0.4716  0.2689
  120MOL    N3624074   2.258   3.167   4.908 -0.0927 -0.3467 -0.2341
  120MOL    H3724075   2.523   3.076   4.626  0.6778 -0.2217  0.2687
  120MOL    H3824076   2.614   3.226   4.627  1.1395 -2.4511 -1.5284
  120MOL    H3924077   2.453   3.312   4.781  2.0914  0.6360 -1.6002
  120MOL    H4024078   2.251   3.259   4.949  1.3291 -0.5821  0.5979
  120MOL    H4124079   2.211   3.096   4.963 -0.8521  0.7565  0.5694
  120MOL    C4224080   2.350   3.280   4.590 -0.1038  0.3777  0.4734
  120MOL    C4324081   2.399   3.423   4.541 -0.6210  0.3824  0.8023
  120MOL    C4424082   2.379   3.539   4.645  1.1881  0.1183 -1.0501
  120MOL    O4524083   2.282   3.532   4.721 -0.1565 -0.1969  0.1483
  120MOL    N4624084   2.478   3.630   4.642 -0.1516 -0.2786  0.4874
  120MOL    H4724085   2.243   3.295   4.596 -0.7609 -2.5755 -2.0716
  120MOL    H4824086   2.355   3.211   4.506  0.4716  0.4243  0.4614
  120MOL    H4924087   2.507   3.425   4.530 -0.5617 -0.6540  1.1141
  120MOL    H5024088   2.476   3.718   4.692  1.7640 -0.5291  1.0258
  120MOL    H5124089   2.545   3.615   4.568 -1.2194 -0.5562 -0.4448
  120MOL    C5224090   2.334   3.473   4.412  0.4796  0.0699  0.3956
  120MOL    C5324091   2.180   3.498   4.418  0.2310 -0.5496 -0.0763
  120MOL    C5424092   2.107   3.437   4.301  0.6560  0.2777 -0.1544
  120MOL    O5524093   2.127   3.477   4.188 -0.3286  0.4830 -0.0051
  120MOL    N5624094   2.017   3.340   4.322 -0.1488  0.6743 -0.4033
  120MOL    H5724095   2.339   3.393   4.337 -4.0261  0.5697 -0.6097
  120MOL    H5824096   2.375   3.563   4.367  0.7687 -0.2689 -0.0287
  120MOL    H5924097   2.136   3.446   4.503  0.8440  0.2526  0.7257
  120MOL    H6024098   1.988   3.321   4.416 -0.4170 -1.2957 -0.8584
  120MOL    H6124099   1.969   3.301   4.242 -1.9056  1.2341  0.3569
  120MOL    C6224100   2.142   3.644   4.431  0.0525  0.1438 -0.4180
  120MOL    C6324101   2.009   3.671   4.500 -0.3079 -0.8260 -0.4725
  120MOL    C6424102   1.888   3.654   4.406  0.0054  0.0321 -0.5973
  120MOL    O6524103   1.894   3.691   4.286 -0.3571 -0.4755  0.8716
  120MOL    N6624104   1.782   3.598   4.455  0.2188  0.4248 -0.2887
  120MOL    H6724105   2.148   3.694   4.335  0.8576  1.2033  0.1761
  120MOL    H6824106   2.211   3.700   4.494 -1.0318  2.2230 -1.0288
  120MOL    H6924107   1.991   3.599   4.579 -0.6196  0.5775  0.7454
  120MOL    H7024108   1.760   3.578   4.552 -0.9426  0.9935 -0.4314
  120MOL    H7124109   1.713   3.582   4.383 -1.1358 -0.8968  1.2541
  120MOL    C7224110   1.993   3.820   4.564  0.0240  0.3035 -0.9609
  120MOL    C7324111   2.096   3.831   4.680 -0.4510 -0.3361 -0.9298
  120MOL    C7424112   2.037   3.779   4.813  0.4187 -0.1582  0.1230
  120MOL    O7524113   1.967   3.853   4.891 -0.0685 -0.1080  0.0928
  120MOL    N7624114   2.069   3.655   4.842  0.3686 -0.1930 -0.8901
  120MOL    H7724115   1.895   3.853   4.599  0.1601 -0.6013  0.3171
  120MOL    H7824116   2.020   3.883   4.479 -0.3456  1.4306 -0.2588
  120MOL    H7924117   2.193   3.780   4.675 -0.0280  0.1641  1.4932
  120MOL    H8024118   2.033   3.623   4.931  0.2445 -1.1047 -1.2619
  120MOL    H8124119   2.138   3.603   4.790  1.4216  1.2131 -0.9166
  120MOL    C8224120   2.131   3.981   4.702 -0.1091 -0.4641 -0.0614
  120MOL    C8324121   2.277   4.012   4.753 -0.0545  0.1825 -0.0289
  120MOL    C8424122   2.379   3.975   4.640 -0.3629  0.4014 -0.2161
  120MOL    O8524123   2.473   3.904   4.667 -0.1847  0.3734 -0.4047
  120MOL    N8624124   2.365   4.029   4.522  0.3025 -0.1959 -0.0753
  120MOL    H8724125   2.068   4.035   4.773 -0.0954 -1.4168  0.6829
  120MOL    H8824126   2.112   4.039   4.611 -1.9475  0.5310  0.9209
  120MOL    H8924127   2.288   4.119   4.765 -1.4953  0.2440  0.8547
  120MOL    H9024128   2.447   4.020   4.463  0.1233 -2.0106 -0.0957
  120MOL    H9124129   2.283   4.078   4.490 -0.2117 -0.1498  1.2997
  120MOL    C9224130   2.310   3.958   4.896 -0.5639 -0.1683  0.5108
  120MOL    C9324131   2.239   4.031   5.016  0.2972 -0.2875 -0.4123
  120MOL    C9424132   2.323   4.144   5.070  0.1028  0.1187 -0.3580
  120MOL    O9524133   2.438   4.123   5.116  0.1031 -0.2232  0.5265
  120MOL    N9624134   2.276   4.269   5.059  0.1081 -0.1577 -0.4730
  120MOL    H9724135   2.417   3.954   4.914 -0.5252 -0.0830  0.2955
  120MOL    H9824136   2.285   3.852   4.903  0.9927 -0.6894 -1.3817
  120MOL    H9924137   2.137   4.062   4.992  0.0365 -1.0647 -0.3364
  120MOL   H10024138   2.340   4.339   5.094 -0.9213  1.3734 -1.5573
  120MOL   H10124139   2.193   4.297   5.008  0.2785 -1.0771 -1.2664
  120MOL   C10224140   2.211   3.923   5.127  0.2066  0.3324 -0.9295
  120MOL   C10324141   2.139   3.974   5.255 -0.1455  0.6867  0.0855
  120MOL   C10424142   2.228   4.019   5.367  0.5423 -0.3123  0.9061
  120MOL   O10524143   2.202   4.125   5.428  0.3363  0.2006  0.0985
  120MOL   N10624144   2.335   3.952   5.388  0.3436 -0.3322 -0.3870
  120MOL   H10724145   2.306   3.872   5.141 -0.4186 -0.4449  0.6266
  120MOL   H10824146   2.154   3.841   5.082  0.5949 -0.2427 -0.3869
  120MOL   H10924147   2.074   4.054   5.220  0.1892  0.7464 -0.3968
  120MOL   H11024148   2.414   3.985   5.442  1.5861  0.5014 -2.6193
  120MOL   H11124149   2.332   3.857   5.352 -1.8487 -0.4833  0.1776
  120MOL   C11224150   2.044   3.867   5.317 -0.2690  0.8219  0.1214
  120MOL   C11324151   1.942   3.904   5.437  1.1970  0.7731  0.3057
  120MOL   C11424152   1.953   3.787   5.549 -0.3821  0.5568 -0.1365
  120MOL   O11524153   1.882   3.691   5.545  0.0238 -0.0133 -0.3870
  120MOL   N11624154   2.034   3.819   5.651 -0.5297  0.4764 -0.2846
  120MOL   H11724155   2.112   3.788   5.352  0.9014  1.7545 -0.0084
  120MOL   H11824156   1.988   3.822   5.235 -1.0916  1.8400  0.1206
  120MOL   H11924157   1.964   3.998   5.488  2.2448  1.0359 -0.6161
  120MOL   H12024158   2.037   3.750   5.724 -0.5066  0.2182 -0.5289
  120MOL   H12124159   2.074   3.912   5.656  1.3404 -0.4323  2.5205
  120MOL   C12224160   1.798   3.910   5.378  0.0909 -0.1363 -0.2975
  120MOL   C12324161   1.772   4.040   5.297  0.3733 -0.0882  0.0154
  120MOL   C12424162   1.746   4.168   5.387  0.2045 -0.2556 -0.2548
  120MOL   O12524163   1.654   4.186   5.470  0.0593 -0.5736  0.2765
  120MOL   N12624164   1.835   4.266   5.373  0.1637 -0.4676 -0.2276
  120MOL   H12724165   1.720   3.897   5.453 -1.9190  0.8552 -2.1679
  120MOL   H12824166   1.775   3.818   5.323 -1.7162  0.2791 -0.2902
  120MOL   H12924167   1.862   4.050   5.237 -1.2610  1.8571 -2.2418
  120MOL   H13024168   1.912   4.244   5.311  0.3222  4.1095 -1.7962
  120MOL   H13124169   1.838   4.348   5.431 -3.5618  0.4033 -1.1589
  120MOL   C13224170   1.648   4.022   5.199 -0.2396  0.6849  0.9293
  120MOL   C13324171   1.678   4.001   5.052 -0.0947 -0.0707 -0.4006
  120MOL   C13424172   1.751   4.126   5.001  0.0940  0.3999 -0.0195
  120MOL   O13524173   1.717   4.236   5.023 -0.0262  0.1358 -0.2505
  120MOL   N13624174   1.868   4.095   4.936 -0.2928  0.5425  0.3248
  120MOL   H13724175   1.578   4.104   5.212  1.7577  2.5583  0.2535
  120MOL   H13824176   1.589   3.942   5.244 -0.5865 -1.2264 -2.7380
  120MOL   H13924177   1.750   3.919   5.045  1.2254  0.9928  0.3673
  120MOL   H14024178   1.899   3.999   4.927  0.8720  0.9657 -0.2198
  120MOL   H14124179   1.926   4.175   4.916  2.4823 -1.5973 -0.5636
  120MOL   C14224180   1.549   3.966   4.965 -0.2598 -0.4064  0.0313
  120MOL   C14324181   1.474   4.077   4.888  0.3486 -1.0767 -0.0646
  120MOL   C14424182   1.371   4.164   4.972 -0.1165  0.0075  0.6357
  120MOL   O14524183   1.250   4.159   4.965  0.9471 -0.3021 -0.1276
  120MOL   N14624184   1.421   4.265   5.047  0.5521  0.0125  0.1441
  120MOL   H14724185   1.477   3.916   5.029 -1.9379 -0.5537 -1.9480
  120MOL   H14824186   1.583   3.885   4.901 -1.0745 -0.7157 -0.0049
  120MOL   H14924187   1.547   4.150   4.851  0.9589 -0.5819  2.0654
  120MOL   H15024188   1.520   4.282   5.037  0.2761  1.1031 -0.8978
  120MOL   H15124189   1.359   4.330   5.094 -0.4982 -2.1914  1.9535
  120MOL   C15224190   1.408   4.006   4.767  0.1589  0.9683  0.4662
  120MOL   C15324191   1.501   3.964   4.656  0.4039 -0.2240  1.0467
  120MOL   C15424192   1.554   4.089   4.579 -0.3596 -0.0521  0.6187
  120MOL   O15524193   1.484   4.179   4.539 -0.1153  0.0084  0.0757
  120MOL   N15624194   1.682   4.093   4.550  0.0923 -0.1773  0.1741
  120MOL   H15724195   1.334   4.080   4.737 -0.8258 -0.6413 -1.1537
  120MOL   H15824196   1.349   3.923   4.804  1.2291 -0.5284 -1.1575
  120MOL   H15924197   1.585   3.907   4.696  0.0017 -1.6408 -0.1104
  120MOL   H16024198   1.724   4.176   4.511 -1.2911 -0.4859 -2.0283
  120MOL   H16124199   1.739   4.011   4.561 -1.1531 -0.8901  1.4456
  120MOL   C16224200   1.426   3.865   4.567 -0.6868  0.4315 -0.5947
  120MOL   C16324201   1.289   3.906   4.512 -0.1472  0.3210  0.3988
  120MOL   C16424202   1.180   3.818   4.572 -0.0696 -0.3738  0.0882
  120MOL   O16524203   1.195   3.696   4.571 -0.0525  0.0990  0.1709
  120MOL   N16624204   1.077   3.883   4.622  0.3276 -0.4985  0.5062
  120MOL   H16724205   1.426   3.769   4.619 -2.6000  0.8919  0.2952
  120MOL   H16824206   1.488   3.840   4.481 -0.5868  0.6442 -0.5847
  120MOL   H16924207   1.262   4.008   4.536  0.3863  0.2165  1.4797
  120MOL   H17024208   1.066   3.981   4.602 -2.5909 -0.8457  0.1204
  120MOL   H17124209   0.994   3.835   4.654  1.1966 -2.0809  0.4551
  120MOL   C17224210   1.286   3.895   4.363  0.4147 -0.0278 -0.5880
  120MOL   C17324211   1.161   3.954   4.293  0.5080  0.4345  0.4152
  120MOL   C17424212   1.105   3.834   4.209 -0.1168 -0.6142  0.0941
  120MOL   O17524213   1.138   3.804   4.093 -0.1650 -0.1815  0.0165
  120MOL   N17624214   1.029   3.754   4.277  0.3305 -0.6558 -0.0772
  120MOL   H17724215   1.303   3.788   4.356 -0.7400 -0.3969  1.6414
  120MOL   H17824216   1.374   3.949   4.328  2.4911 -1.1903  2.5702
  120MOL   H17924217   1.091   3.979   4.373  1.0060 -1.2784  1.4294
  120MOL   H18024218   1.012   3.780   4.373  2.1094 -1.6339  0.5213
  120MOL   H18124219   1.012   3.660   4.243  1.6386 -1.2537  0.8663
  120MOL   C18224220   1.198   4.072   4.200  0.0753  1.1935 -0.2753
  120MOL   C18324221   1.111   4.193   4.207 -0.6070  0.3873 -0.0319
  120MOL   C18424222   0.970   4.160   4.166  0.5225 -0.8042  0.0239
  120MOL   O18524223   0.938   4.158   4.049  0.1279  0.2644  0.4431
  120MOL   N18624224   0.879   4.147   4.262 -1.0705 -0.1701  0.0555
  120MOL   H18724225   1.202   4.039   4.097  1.5561 -0.9946  0.4514
  120MOL   H18824226   1.304   4.099   4.203  0.8677 -1.8785  0.3469
  120MOL   H18924227   1.115   4.210   4.315 -1.9877  0.1435  0.0675
  120MOL   H19024228   0.782   4.134   4.235 -1.2815 -0.6956  1.0326
  120MOL   H19124229   0.901   4.147   4.361 -1.3747  0.5267  0.1208
  120MOL   C19224230   1.162   4.321   4.151 -0.1303 -0.6694 -0.0733
  120MOL   C19324231   1.305   4.362   4.211 -0.0607  0.4522  0.2265
  120MOL   C19424232   1.288   4.441   4.340 -0.6204  0.0897  0.4446
  120MOL   O19524233   1.244   4.555   4.343  0.3547  0.4137 -0.1665
  120MOL   N19624234   1.328   4.389   4.452  0.1243  0.1027 -0.1623
  120MOL   H19724235   1.095   4.406   4.160 -0.3018 -0.7302 -0.7385
  120MOL   H19824236   1.175   4.312   4.043 -1.4736  1.2490 -0.4237
  120MOL   H19924237   1.377   4.284   4.231  1.3125  1.6230 -0.0663
  120MOL   H20024238   1.308   4.434   4.540  1.5631  0.7144 -0.1424
  120MOL   H20124239   1.385   4.306   4.456 -0.2687 -0.1066  1.4056
  120MOL   H20224240   1.349   4.418   4.128 -0.5093 -1.5674 -1.4019
  121MOL     C124241   2.885   1.192   1.174  0.2159 -0.1046 -0.1751
  121MOL     C224242   2.750   1.219   1.096 -0.1600 -0.3773 -0.0059
  121MOL     C324243   2.631   1.218   1.196  0.0194 -0.3297 -0.1290
  121MOL     O424244   2.575   1.117   1.217  0.3529 -0.0679 -0.2172
  121MOL     N524245   2.582   1.329   1.254 -0.5121 -0.5905 -0.5088
  121MOL     H624246   2.866   1.119   1.252 -2.4192  0.3985 -0.2978
  121MOL     H724247   2.959   1.150   1.106  1.5461  2.0660 -0.1410
  121MOL     H824248   2.763   1.314   1.044 -1.5359 -0.3260 -0.2886
  121MOL     H924249   2.613   1.417   1.214 -1.8547  0.7575  1.3289
  121MOL    H1024250   2.515   1.330   1.329  0.3409  0.2696  0.2647
  121MOL    H1124251   2.930   1.283   1.215 -0.0329 -0.4679  0.9105
  121MOL    C1224252   2.736   1.114   0.979  0.1972  0.1777 -0.0599
  121MOL    C1324253   2.757   1.174   0.835  0.2668  0.1582 -0.7957
  121MOL    C1424254   2.649   1.279   0.799 -0.2168  0.2166 -0.4164
  121MOL    O1524255   2.672   1.379   0.733  0.1901 -0.2781  0.5292
  121MOL    N1624256   2.530   1.259   0.845  0.3357  0.4509  0.0041
  121MOL    H1724257   2.637   1.068   0.979  0.2169  0.1361  0.3663
  121MOL    H1824258   2.807   1.032   0.989 -0.8935 -0.7587  0.1002
  121MOL    H1924259   2.853   1.225   0.836  1.4836 -1.9834 -2.8418
  121MOL    H2024260   2.462   1.329   0.818 -1.0879 -1.2388 -0.8929
  121MOL    H2124261   2.485   1.190   0.904 -2.9445 -1.0291 -4.0332
  121MOL    C2224262   2.765   1.050   0.736 -0.2284 -0.4766 -0.5475
  121MOL    C2324263   2.804   1.085   0.586  0.6167  0.2014  0.2045
  121MOL    C2424264   2.769   0.972   0.495  0.5819 -0.3218 -0.1102
  121MOL    O2524265   2.820   0.859   0.519  0.6081  0.5859  0.7608
  121MOL    N2624266   2.691   0.999   0.388  0.0714  0.0290  0.0690
  121MOL    H2724267   2.670   0.997   0.745  0.0243 -0.6404  1.1837
  121MOL    H2824268   2.836   0.975   0.772  0.5075  0.7128  0.5075
  121MOL    H2924269   2.750   1.175   0.556  1.8696  0.4181 -1.5559
  121MOL    H3024270   2.657   1.092   0.371 -0.7930 -0.6480 -2.0128
  121MOL    H3124271   2.658   0.929   0.324  1.8092 -0.3324 -0.4584
  121MOL    C3224272   2.953   1.125   0.570  0.3837  0.3285 -0.1517
  121MOL    C3324273   2.961   1.274   0.528 -0.0280 -0.6476 -0.6773
  121MOL    C3424274   2.887   1.311   0.400 -0.1196 -0.0008 -0.5454
  121MOL    O3524275   2.779   1.365   0.406  0.6884  0.2389 -0.3438
  121MOL    N3624276   2.945   1.281   0.286 -0.5015  0.2862  0.1221
  121MOL    H3724277   3.000   1.072   0.488  0.1421 -0.3592  0.1515
  121MOL    H3824278   3.007   1.114   0.664 -2.1579 -0.0202  1.3309
  121MOL    H3924279   2.915   1.334   0.607 -1.4079 -1.4251 -0.8636
  121MOL    H4024280   3.030   1.227   0.289 -0.3903  0.4514 -0.0497
  121MOL    H4124281   2.901   1.316   0.202 -1.1437 -0.7110  0.0380
  121MOL    C4224282   3.109   1.330   0.517 -0.0602  0.1005  0.0496
  121MOL    C4324283   3.199   1.312   0.641 -0.1146 -0.2877 -0.6826
  121MOL    C4424284   3.137   1.391   0.759  0.3538 -0.4432 -0.1002
  121MOL    O4524285   3.113   1.504   0.749  0.3926 -0.3041 -0.5215
  121MOL    N4624286   3.110   1.318   0.867 -0.4129  0.3796  0.7727
  121MOL    H4724287   3.098   1.436   0.495 -0.4290  0.1695  0.5641
  121MOL    H4824288   3.160   1.287   0.430  2.2943  0.7890  1.0520
  121MOL    H4924289   3.218   1.208   0.667  0.9256 -0.4359 -2.0069
  121MOL    H5024290   3.152   1.227   0.859  0.7694  0.8473  1.4899
  121MOL    H5124291   3.093   1.356   0.959 -0.3107  0.8197  0.6106
  121MOL    C5224292   3.338   1.368   0.609 -0.5884  0.0443 -0.2240
  121MOL    C5324293   3.447   1.325   0.706 -0.4787 -0.5108  1.0683
  121MOL    C5424294   3.548   1.434   0.739  0.5100 -0.6193  0.1674
  121MOL    O5524295   3.613   1.491   0.650 -0.1209 -0.0591  0.1490
  121MOL    N5624296   3.545   1.479   0.863 -0.2293 -1.1451 -0.1011
  121MOL    H5724297   3.335   1.477   0.616 -0.6227  0.0609 -0.5044
  121MOL    H5824298   3.371   1.336   0.511  0.1241 -1.6064  0.5300
  121MOL    H5924299   3.395   1.299   0.798 -1.3262 -0.1389  0.7022
  121MOL    H6024300   3.607   1.552   0.897  0.0115 -0.7254 -1.3919
  121MOL    H6124301   3.496   1.447   0.945 -1.1609  0.0022 -0.1918
  121MOL    C6224302   3.526   1.206   0.649  0.4562  0.5399 -0.5517
  121MOL    C6324303   3.571   1.102   0.748  0.0195  0.8266 -0.2900
  121MOL    C6424304   3.692   1.149   0.828  1.0305  0.1622 -0.4011
  121MOL    O6524305   3.688   1.148   0.954 -0.0930 -0.2819  0.3253
  121MOL    N6624306   3.803   1.179   0.760  0.3444 -0.0065  0.1879
  121MOL    H6724307   3.619   1.222   0.595  0.7060 -1.0808 -0.6392
  121MOL    H6824308   3.457   1.162   0.577  1.3597 -2.3054  0.2514
  121MOL    H6924309   3.484   1.094   0.812  0.2419  1.4688  0.0998
  121MOL    H7024310   3.810   1.153   0.663  0.7848  0.5740  0.0599
  121MOL    H7124311   3.882   1.197   0.821 -0.3130  2.2244  0.4273
  121MOL    C7224312   3.573   0.953   0.694 -0.2657  0.0896 -0.6098
  121MOL    C7324313   3.634   0.844   0.787  0.4750  0.2120 -0.2651
  121MOL    C7424314   3.682   0.729   0.700  0.7527  0.5847  0.5585
  121MOL    O7524315   3.596   0.658   0.644 -0.1993 -0.2784 -0.4175
  121MOL    N7624316   3.813   0.718   0.692  0.4219  0.3273  0.0188
  121MOL    H7724317   3.638   0.968   0.608  0.4778 -1.1955 -0.2794
  121MOL    H7824318   3.481   0.913   0.652 -0.8611  1.1289 -0.3184
  121MOL    H7924319   3.719   0.883   0.843  0.3672 -1.2856  0.9650
  121MOL    H8024320   3.849   0.651   0.625  0.4321 -1.4173  1.7405
  121MOL    H8124321   3.867   0.795   0.729  2.3764 -1.9318  2.0474
  121MOL    C8224322   3.536   0.795   0.898 -0.6962 -0.9970  0.6523
  121MOL    C8324323   3.580   0.673   0.977  0.0328 -0.4877  0.2515
  121MOL    C8424324   3.486   0.553   0.950  0.2483 -0.0468 -0.5875
  121MOL    O8524325   3.368   0.555   0.962  0.4126 -0.4157 -0.6221
  121MOL    N8624326   3.548   0.443   0.922 -0.3775 -0.4515  0.2273
  121MOL    H8724327   3.442   0.778   0.845 -1.5205 -0.3716  1.9067
  121MOL    H8824328   3.513   0.882   0.959 -3.3388 -1.9745  1.1300
  121MOL    H8924329   3.682   0.652   0.947 -0.0206 -3.5761  2.0068
  121MOL    H9024330   3.486   0.364   0.916 -0.3679 -0.2607 -3.7085
  121MOL    H9124331   3.648   0.447   0.903 -0.2190  2.4751  1.4145
  121MOL    C9224332   3.600   0.702   1.122 -0.7756 -0.0145 -0.0624
  121MOL    C9324333   3.698   0.609   1.207  0.6643  0.5000 -0.0434
  121MOL    C9424334   3.633   0.587   1.349  0.2979  0.0670 -0.0569
  121MOL    O9524335   3.685   0.625   1.450 -0.1019 -0.7424 -0.3099
  121MOL    N9624336   3.528   0.504   1.346  0.1377  0.0485  0.2005
  121MOL    H9724337   3.500   0.708   1.164 -0.4954 -0.7726  0.7459
  121MOL    H9824338   3.646   0.801   1.127 -0.9441 -0.0143  2.0928
  121MOL    H9924339   3.689   0.510   1.162 -2.9185  1.1971 -1.0139
  121MOL   H10024340   3.487   0.500   1.438 -3.0738  1.6632 -1.0809
  121MOL   H10124341   3.474   0.497   1.260  0.5290  0.6183 -0.0944
  121MOL   C10224342   3.853   0.650   1.216 -0.5734  0.1398 -0.5468
  121MOL   C10324343   3.922   0.627   1.081  0.1128 -0.0120 -0.6677
  121MOL   C10424344   3.936   0.476   1.042 -0.0208  0.0505  0.5084
  121MOL   O10524345   3.854   0.420   0.969  0.8860  0.4224 -0.4097
  121MOL   N10624346   4.041   0.404   1.077 -0.0174  0.3377  0.1231
  121MOL   H10724347   3.911   0.594   1.288  1.1978  0.9651 -1.3119
  121MOL   H10824348   3.868   0.751   1.254  0.1191 -0.2722  0.2781
  121MOL   H10924349   3.861   0.670   1.001  0.2196 -0.3445 -0.9265
  121MOL   H11024350   4.048   0.327   1.012 -0.0541 -2.5979  3.5038
  121MOL   H11124351   4.115   0.449   1.129 -1.3030  0.9311  1.4452
  121MOL   C11224352   4.065   0.694   1.077 -1.3718  0.4187  0.4231
  121MOL   C11324353   4.072   0.850   1.081  0.6258 -0.3947  0.7033
  121MOL   C11424354   3.974   0.919   0.987 -0.0449  0.3936  0.0558
  121MOL   O11524355   3.988   0.921   0.864  0.3457  0.0088 -0.2945
  121MOL   N11624356   3.871   0.977   1.045 -0.3762  0.1704 -0.1827
  121MOL   H11724357   4.128   0.673   0.990 -1.1856  1.3062  0.3400
  121MOL   H11824358   4.116   0.648   1.162 -2.4032 -0.2703  0.6748
  121MOL   H11924359   4.051   0.879   1.185 -2.7771  1.5472 -0.4463
  121MOL   H12024360   3.849   0.968   1.144 -1.6294 -0.1380 -0.4741
  121MOL   H12124361   3.801   1.027   0.992 -0.9117  1.5198  1.7304
  121MOL   C12224362   4.217   0.905   1.059  0.1060  0.1329 -0.7197
  121MOL   C12324363   4.282   0.995   1.174 -0.6099 -0.1714 -0.2050
  121MOL   C12424364   4.207   1.132   1.179 -0.6719 -0.0275 -0.3637
  121MOL   O12524365   4.227   1.219   1.095 -0.0658 -0.5450 -0.1833
  121MOL   N12624366   4.129   1.156   1.278  0.0278  0.2998 -0.2455
  121MOL   H12724367   4.222   0.963   0.967 -0.3603  0.8576 -0.2863
  121MOL   H12824368   4.282   0.819   1.042 -0.2380 -0.0115 -1.3038
  121MOL   H12924369   4.259   0.938   1.264  1.4005  0.7312  0.9216
  121MOL   H13024370   4.095   1.251   1.288  1.2123  0.5708  1.3872
  121MOL   H13124371   4.126   1.084   1.349  0.4875 -0.1056 -0.6394
  121MOL   C13224372   4.435   1.018   1.157 -0.1335  0.0965 -0.2837
  121MOL   C13324373   4.514   1.022   1.291 -0.9453  0.0818  0.1968
  121MOL   C13424374   4.549   0.882   1.337  0.0849 -0.2177 -0.8817
  121MOL   O13524375   4.474   0.786   1.320  0.2217  0.3237 -0.5682
  121MOL   N13624376   4.666   0.865   1.396  0.0542  0.1488 -0.0913
  121MOL   H13724377   4.462   1.104   1.095  0.8880  0.9876  1.3512
  121MOL   H13824378   4.480   0.935   1.104  0.1010 -1.2540  1.9552
  121MOL   H13924379   4.612   1.062   1.265 -1.1413  0.3483 -0.1375
  121MOL   H14024380   4.693   0.769   1.410 -0.3909  0.1077  0.5286
  121MOL   H14124381   4.731   0.939   1.419  2.8019 -1.8215 -1.2185
  121MOL   C14224382   4.453   1.107   1.406  0.2333  0.1920  0.5472
  121MOL   C14324383   4.478   1.256   1.394 -0.0605  0.0300  0.1169
  121MOL   C14424384   4.609   1.303   1.444  0.6363  0.2803  0.3074
  121MOL   O14524385   4.643   1.282   1.558 -0.5491 -0.7917 -0.1470
  121MOL   N14624386   4.688   1.374   1.361 -0.3725  0.3042 -0.5408
  121MOL   H14724387   4.493   1.080   1.503  2.3327 -0.1318 -0.3783
  121MOL   H14824388   4.351   1.076   1.429  1.0359 -1.9175  1.3570
  121MOL   H14924389   4.466   1.273   1.287 -0.6813  0.0553  0.1873
  121MOL   H15024390   4.777   1.404   1.398 -0.1906  0.6182 -1.2337
  121MOL   H15124391   4.670   1.393   1.264 -2.3450  1.7233  0.0780
  121MOL   C15224392   4.361   1.334   1.466  0.6726 -0.7312  0.2493
  121MOL   C15324393   4.298   1.452   1.384  0.1884  1.3322 -0.0955
  121MOL   C15424394   4.398   1.536   1.306 -0.7986 -0.7465  0.4381
  121MOL   O15524395   4.467   1.625   1.365  0.4172  0.1368  0.4259
  121MOL   N15624396   4.410   1.511   1.181 -0.2533 -0.6040  0.9471
  121MOL   H15724397   4.397   1.364   1.565 -0.7782  2.3869 -0.0809
  121MOL   H15824398   4.285   1.265   1.501  1.3230 -1.2564  0.6415
  121MOL   H15924399   4.242   1.401   1.305 -0.1506  0.8244  0.4646
  121MOL   H16024400   4.477   1.552   1.117  0.8892 -0.9429  1.8853
  121MOL   H16124401   4.337   1.451   1.145  0.0785  0.4361 -1.5447
  121MOL   C16224402   4.194   1.533   1.467  0.3144 -0.3800 -0.6731
  121MOL   C16324403   4.049   1.500   1.443 -0.4477 -0.3335  0.0709
  121MOL   C16424404   3.967   1.630   1.436 -0.8758 -0.4515  0.5656
  121MOL   O16524405   3.911   1.673   1.529 -0.3097  0.1607 -0.3091
  121MOL   N16624406   3.962   1.700   1.320  0.4330  0.3784 -0.4255
  121MOL   H16724407   4.207   1.639   1.445  0.6360 -0.9582 -3.5002
  121MOL   H16824408   4.225   1.518   1.570  1.3888 -0.7668 -1.0451
  121MOL   H16924409   4.033   1.461   1.342 -0.0871 -1.2857  0.3778
  121MOL   H17024410   3.917   1.791   1.324  0.6104  0.4458  0.0882
  121MOL   H17124411   4.016   1.676   1.238 -0.8348  2.8071 -2.0279
  121MOL   C17224412   3.990   1.406   1.552 -0.1650 -0.6824 -0.2554
  121MOL   C17324413   3.840   1.355   1.531  0.9676 -0.3573  0.6688
  121MOL   C17424414   3.747   1.400   1.647 -0.8961 -0.3974 -0.4058
  121MOL   O17524415   3.714   1.331   1.742  0.2879  0.5067 -0.3810
  121MOL   N17624416   3.710   1.523   1.638 -0.3121  0.2045  0.2752
  121MOL   H17724417   3.985   1.467   1.642  2.1234  0.0129 -0.5676
  121MOL   H17824418   4.041   1.311   1.568 -0.7840 -1.1237 -0.8627
  121MOL   H17924419   3.791   1.393   1.441 -0.1071 -1.9955  0.5278
  121MOL   H18024420   3.751   1.590   1.574 -0.6871  1.9549  1.8276
  121MOL   H18124421   3.636   1.566   1.692  0.5269  1.5510  0.3550
  121MOL   C18224422   3.825   1.204   1.493  0.0186  0.4442  0.4161
  121MOL   C18324423   3.686   1.146   1.450  0.0327 -0.5910 -0.5357
  121MOL   C18424424   3.701   0.999   1.400  0.6718  0.2536  0.5570
  121MOL   O18524425   3.736   0.980   1.285 -0.1521 -0.2724  0.1408
  121MOL   N18624426   3.673   0.898   1.476 -0.2843 -0.1454 -0.4107
  121MOL   H18724427   3.864   1.137   1.570  0.9235  0.1029 -0.3408
  121MOL   H18824428   3.892   1.207   1.408 -1.6688  3.4441 -0.9067
  121MOL   H18924429   3.629   1.144   1.543  0.0551 -1.5860 -0.5367
  121MOL   H19024430   3.669   0.918   1.575  1.9758 -0.6326 -0.1952
  121MOL   H19124431   3.676   0.803   1.442 -0.7784 -0.3564  0.1216
  121MOL   C19224432   3.598   1.233   1.359  0.4841  0.3006 -0.1986
  121MOL   C19324433   3.633   1.247   1.209 -0.3783 -0.4561  0.5803
  121MOL   C19424434   3.578   1.389   1.171  0.5755  1.2920  0.0217
  121MOL   O19524435   3.464   1.415   1.145  0.1051 -0.1292  0.6131
  121MOL   N19624436   3.670   1.483   1.168  0.5147  0.1177  0.4471
  121MOL   H19724437   3.586   1.329   1.409 -2.2427 -1.4681  2.7063
  121MOL   H19824438   3.496   1.196   1.363  1.2528 -1.7230  1.1222
  121MOL   H19924439   3.740   1.236   1.195 -0.6420 -3.1572  0.4983
  121MOL   H20024440   3.765   1.459   1.193  0.0762 -1.2892  0.8092
  121MOL   H20124441   3.657   1.580   1.143 -0.0443  0.0538  0.4945
  121MOL   H20224442   3.582   1.166   1.157 -2.1110 -0.4688  2.2557
  122MOL     C124443   5.560   1.205   3.780  0.0109 -0.1052  0.3253
  122MOL     C224444   5.496   1.084   3.849 -0.1149 -0.1532 -0.1525
  122MOL     C324445   5.411   1.013   3.747  0.2854 -0.0065  0.4095
  122MOL     O424446   5.465   0.936   3.671  0.0811  0.0734  0.4779
  122MOL     N524447   5.276   1.025   3.745  0.4297  0.1337  0.0402
  122MOL     H624448   5.490   1.255   3.713 -1.5844 -0.7395  1.4978
  122MOL     H724449   5.591   1.276   3.857  1.6904 -0.6712  0.1728
  122MOL     H824450   5.579   1.020   3.877 -0.4293 -0.8192 -0.7234
  122MOL     H924451   5.224   1.061   3.824 -0.9501  1.7125 -1.5279
  122MOL    H1024452   5.231   0.966   3.675 -0.3210  1.1908 -0.3866
  122MOL    H1124453   5.651   1.171   3.731 -0.1093  0.7764 -0.5263
  122MOL    C1224454   5.432   1.118   3.983 -0.6520  0.0447  0.1424
  122MOL    C1324455   5.396   0.992   4.077  0.1148 -0.1571 -0.8325
  122MOL    C1424456   5.250   0.950   4.068  0.6637  0.0989  0.2914
  122MOL    O1524457   5.173   1.010   3.993  0.2773  0.4662 -0.2866
  122MOL    N1624458   5.217   0.853   4.142 -0.2222 -0.0423 -0.2523
  122MOL    H1724459   5.347   1.185   3.970 -1.2257 -0.6869  0.0930
  122MOL    H1824460   5.496   1.184   4.041  0.4940 -0.6839 -0.2778
  122MOL    H1924461   5.455   0.905   4.047  1.9419  0.8131 -0.1776
  122MOL    H2024462   5.282   0.803   4.202  1.3225  3.8768  1.5096
  122MOL    H2124463   5.120   0.825   4.132 -0.4355  1.2975 -2.0483
  122MOL    C2224464   5.435   1.018   4.227  0.4781 -0.0321  0.0717
  122MOL    C2324465   5.362   1.135   4.305  0.7782  0.1601 -0.4852
  122MOL    C2424466   5.442   1.264   4.304  0.0648  0.4123 -0.7451
  122MOL    O2524467   5.557   1.256   4.335 -0.0243  0.0466  0.4494
  122MOL    N2624468   5.381   1.379   4.280  0.7182  0.1757 -0.0549
  122MOL    H2724469   5.544   1.024   4.230  0.5540 -1.6604  0.6667
  122MOL    H2824470   5.423   0.925   4.282  0.6473 -1.2659 -1.9020
  122MOL    H2924471   5.272   1.163   4.250  0.3247 -1.0704 -0.3801
  122MOL    H3024472   5.427   1.469   4.278  0.1438  0.6437  4.4088
  122MOL    H3124473   5.285   1.371   4.252  0.4935  2.1398  0.1105
  122MOL    C3224474   5.345   1.086   4.452  0.4278 -0.5791 -0.4939
  122MOL    C3324475   5.226   1.001   4.487  0.8018  0.0020  0.5907
  122MOL    C3424476   5.093   1.078   4.501  0.1265  0.1489 -0.6906
  122MOL    O3524477   5.061   1.136   4.608 -0.4547  0.0536 -0.1460
  122MOL    N3624478   5.023   1.102   4.394  0.3432 -0.0697  0.1147
  122MOL    H3724479   5.338   1.178   4.510  1.3473  0.1339 -1.4938
  122MOL    H3824480   5.435   1.037   4.491 -0.9073 -1.8398  1.0535
  122MOL    H3924481   5.219   0.932   4.404  1.8664  0.5851  0.0048
  122MOL    H4024482   5.059   1.073   4.304  0.3888 -2.1531  0.7849
  122MOL    H4124483   4.941   1.162   4.394  0.3829 -0.0155  0.1279
  122MOL    C4224484   5.252   0.908   4.613  0.4706 -0.5552 -0.2285
  122MOL    C4324485   5.133   0.801   4.644 -0.5614 -0.8297  0.6367
  122MOL    C4424486   5.144   0.746   4.782 -0.0616 -0.1151 -0.6893
  122MOL    O4524487   5.250   0.702   4.829  0.0560 -0.6721 -0.1840
  122MOL    N4624488   5.037   0.752   4.857 -0.2834  0.2885  0.5342
  122MOL    H4724489   5.259   0.971   4.701 -0.2751  2.0311 -1.9380
  122MOL    H4824490   5.350   0.861   4.610 -0.1170 -1.9572  1.3621
  122MOL    H4924491   5.041   0.859   4.641 -2.4059 -3.7175 -0.4990
  122MOL    H5024492   4.950   0.777   4.813 -0.7776 -1.2066  0.6288
  122MOL    H5124493   5.036   0.703   4.946  0.2670 -3.5390 -1.4438
  122MOL    C5224494   5.125   0.692   4.537 -0.2532 -0.0294 -0.2893
  122MOL    C5324495   5.245   0.593   4.514 -0.0068  0.2028  0.1510
  122MOL    C5424496   5.353   0.649   4.428  0.0464 -0.1192 -0.8962
  122MOL    O5524497   5.330   0.710   4.324 -0.1216  0.0619 -0.1203
  122MOL    N5624498   5.478   0.636   4.471 -0.0496  0.2722  0.6007
  122MOL    H5724499   5.097   0.747   4.447 -2.1249  0.2834  0.4685
  122MOL    H5824500   5.030   0.647   4.567  1.2225 -3.0475  0.0452
  122MOL    H5924501   5.283   0.558   4.610  0.6054  0.2573 -0.0743
  122MOL    H6024502   5.503   0.552   4.521  0.1131  1.0697  1.8772
  122MOL    H6124503   5.551   0.686   4.423 -0.3136 -1.8355 -2.1053
  122MOL    C6224504   5.207   0.465   4.432 -0.9501 -0.6236  0.5151
  122MOL    C6324505   5.115   0.364   4.502 -0.2433 -0.7791  0.1461
  122MOL    C6424506   5.158   0.316   4.647 -0.4040 -0.7369  0.3868
  122MOL    O6524507   5.261   0.254   4.671 -0.4920 -0.0000 -0.0305
  122MOL    N6624508   5.071   0.347   4.742 -0.1705  0.9766 -0.0727
  122MOL    H6724509   5.298   0.413   4.401  0.5360  1.2732  1.5506
  122MOL    H6824510   5.169   0.494   4.334  1.6103  1.2263  0.0027
  122MOL    H6924511   5.019   0.415   4.502  0.1752  0.0270 -0.9421
  122MOL    H7024512   5.100   0.335   4.838  1.2911 -1.2822 -0.7574
  122MOL    H7124513   4.997   0.416   4.744 -1.6879 -0.5650 -1.0252
  122MOL    C7224514   5.111   0.238   4.405  0.4514 -0.5811 -0.3700
  122MOL    C7324515   4.999   0.132   4.413 -0.1903 -0.4101 -0.9411
  122MOL    C7424516   4.855   0.190   4.422  0.7699 -0.2060  0.0903
  122MOL    O7524517   4.790   0.184   4.528 -0.1692 -0.4659  0.1274
  122MOL    N7624518   4.811   0.247   4.308 -0.4739  0.5453 -0.0152
  122MOL    H7724519   5.211   0.197   4.407  0.6719  0.0018  1.0221
  122MOL    H7824520   5.110   0.284   4.306 -0.6519  0.7025  0.2127
  122MOL    H7924521   5.010   0.091   4.312 -0.6983 -0.8530 -0.8179
  122MOL    H8024522   4.726   0.299   4.321  0.3083  1.4444  1.8635
  122MOL    H8124523   4.857   0.238   4.219 -1.9431 -0.1992 -0.7104
  122MOL    C8224524   5.025   0.016   4.514  0.5771  0.2804  0.6321
  122MOL    C8324525   4.990   7.528   4.473  0.1907  0.2915  0.1819
  122MOL    C8424526   4.836   7.504   4.472  1.3467 -0.1453  0.1240
  122MOL    O8524527   4.778   7.447   4.567  0.0635 -0.0337 -0.0333
  122MOL    N8624528   4.759   7.525   4.361  0.1651 -0.0507  0.6880
  122MOL    H8724529   4.975   0.036   4.608 -0.2036 -2.7537  0.9086
  122MOL    H8824530   5.128   0.031   4.547  0.8717  0.7732 -0.4909
  122MOL    H8924531   5.027   7.491   4.377 -2.4955 -1.2564 -0.3254
  122MOL    H9024532   4.661   7.506   4.377 -1.4381  2.1862 -5.1712
  122MOL    H9124533   4.797   7.543   4.269 -0.2505 -0.8048  0.3567
  122MOL    C9224534   5.048   7.433   4.578 -0.6237  0.1408  0.4097
  122MOL    C9324535   5.205   7.397   4.567 -1.0355  0.3076  0.2826
  122MOL    C9424536   5.225   7.267   4.486 -0.4713 -0.1247  0.5702
  122MOL    O9524537   5.154   7.171   4.508 -0.5282  0.0916  0.1357
  122MOL    N9624538   5.320   7.254   4.395  0.5105 -0.2777  0.8537
  122MOL    H9724539   4.992   7.339   4.573  0.2292 -0.3172 -1.1372
  122MOL    H9824540   5.016   7.469   4.675 -0.8993  2.6612 -0.5809
  122MOL    H9924541   5.242   7.481   4.508 -1.0113 -1.5703 -2.4941
  122MOL   H10024542   5.374   7.333   4.362 -0.8943  0.3943  0.1053
  122MOL   H10124543   5.333   7.167   4.346 -0.6304  1.5587 -2.9119
  122MOL   C10224544   5.285   7.382   4.705 -0.3974  0.4421 -0.0701
  122MOL   C10324545   5.322   7.514   4.777 -0.5098  0.9012  0.3585
  122MOL   C10424546   5.207   7.575   4.861  0.2298 -0.4858 -0.3683
  122MOL   O10524547   5.116   7.505   4.903  0.1470  0.0123 -0.6385
  122MOL   N10624548   5.198   0.044   4.892 -0.4358  0.3494 -0.1009
  122MOL   H10724549   5.377   7.323   4.703 -0.0875  0.9400 -1.9109
  122MOL   H10824550   5.225   7.327   4.777 -0.5555  1.4109  0.5412
  122MOL   H10924551   5.388   7.481   4.857 -0.2992  2.2160  0.7370
  122MOL   H11024552   5.243   0.121   4.845  0.4040 -1.2407 -1.9587
  122MOL   H11124553   5.137   0.055   4.973  0.7797 -0.6386  0.9658
  122MOL   C11224554   5.403   7.619   4.705 -0.8700 -0.1716  0.1301
  122MOL   C11324555   5.549   7.581   4.668  0.7313 -0.3989 -0.4233
  122MOL   C11424556   5.640   7.584   4.792  0.2056 -0.7116  0.9521
  122MOL   O11524557   5.681   0.034   4.843  0.1105 -0.0388  0.2888
  122MOL   N11624558   5.685   7.468   4.830 -0.3086 -0.1953  0.3774
  122MOL   H11724559   5.400   0.056   4.760  0.4003 -0.0704  0.0555
  122MOL   H11824560   5.354   7.628   4.608 -1.1480 -0.8725  0.2025
  122MOL   H11924561   5.548   7.483   4.622 -0.7148 -2.9033  4.5485
  122MOL   H12024562   5.767   7.456   4.889 -0.4849 -1.4387  0.3806
  122MOL   H12124563   5.654   7.380   4.794  1.9332 -1.2651  0.9726
  122MOL   C12224564   5.608   0.030   4.568  0.1940 -0.3530 -0.6006
  122MOL   C12324565   5.535   0.053   4.434  0.1146 -0.1474 -0.1026
  122MOL   C12424566   5.522   7.579   4.364  0.0254  0.0783  0.2188
  122MOL   O12524567   5.410   7.543   4.333  0.0102 -0.0538 -0.0840
  122MOL   N12624568   5.630   7.518   4.333 -0.2257  0.4143  0.1232
  122MOL   H12724569   5.710   0.004   4.542  1.0121  3.3600 -1.3719
  122MOL   H12824570   5.610   0.124   4.623 -0.5430 -0.7188  0.0684
  122MOL   H12924571   5.432   0.077   4.461  0.2308  0.2825 -0.0416
  122MOL   H13024572   5.722   7.554   4.354  0.3420 -0.9794  0.1397
  122MOL   H13124573   5.617   7.437   4.274  0.4415  0.0294  0.4879
  122MOL   C13224574   5.601   0.165   4.351  0.2128  0.2656  0.8238
  122MOL   C13324575   5.557   0.189   4.204 -0.5181 -1.1948  0.2271
  122MOL   C13424576   5.643   0.101   4.114  0.6358 -0.5927 -0.6993
  122MOL   O13524577   5.758   0.112   4.120  0.3952  0.3325  0.1184
  122MOL   N13624578   5.589   0.011   4.036  0.8487  0.1193 -0.1539
  122MOL   H13724579   5.708   0.140   4.351  0.4979  1.4731  1.1679
  122MOL   H13824580   5.598   0.253   4.416 -1.3857  1.7483 -1.1946
  122MOL   H13924581   5.449   0.175   4.202 -0.9798  1.2757  3.3989
  122MOL   H14024582   5.493   7.638   4.042  0.3656  1.8105  0.7635
  122MOL   H14124583   5.642   7.626   3.961  0.6936 -1.6166  0.6872
  122MOL   C14224584   5.572   0.343   4.184  0.8883  1.0383 -0.5823
  122MOL   C14324585   5.531   0.404   4.046 -0.3745  0.7104  0.2134
  122MOL   C14424586   5.584   0.548   4.042  0.2219 -0.2334 -0.0901
  122MOL   O14524587   5.532   0.642   4.101  0.1618 -0.1101 -0.1662
  122MOL   N14624588   5.707   0.565   3.988 -0.7136  0.1529  0.3455
  122MOL   H14724589   5.674   0.375   4.203  1.2197 -0.2671 -0.1442
  122MOL   H14824590   5.517   0.398   4.261  1.7012  1.2073 -0.1175
  122MOL   H14924591   5.573   0.346   3.964 -0.6746  1.5739 -0.5566
  122MOL   H15024592   5.759   0.650   4.005 -1.5674  0.9394 -0.8760
  122MOL   H15124593   5.760   0.487   3.952  0.1779  0.9476 -0.0750
  122MOL   C15224594   5.371   0.411   4.037  0.8251  0.7500  0.6851
  122MOL   C15324595   5.318   0.422   3.893 -0.0108  0.0743 -0.7169
  122MOL   C15424596   5.274   0.565   3.882 -0.5232  0.2014 -0.1536
  122MOL   O15524597   5.161   0.601   3.893 -0.1559  0.5381 -0.1973
  122MOL   N15624598   5.356   0.659   3.838 -0.3200 -0.8382  0.0067
  122MOL   H15724599   5.331   0.491   4.099  0.3738  1.6779 -0.7975
  122MOL   H15824600   5.319   0.322   4.074 -0.3311 -0.3734 -3.4653
  122MOL   H15924601   5.393   0.393   3.820 -1.3270  0.3856 -2.2114
  122MOL   H16024602   5.454   0.645   3.820 -0.2029  1.7467 -1.5804
  122MOL   H16124603   5.325   0.754   3.823  0.0070 -0.3019  2.4729
  122MOL   C16224604   5.205   0.325   3.864 -0.2745  0.0812  0.0863
  122MOL   C16324605   5.242   0.178   3.852 -0.4365  0.0704  0.8223
  122MOL   C16424606   5.325   0.140   3.731  0.2366 -0.1534  0.2764
  122MOL   O16524607   5.268   0.134   3.621 -0.3887 -0.0147  0.2972
  122MOL   N16624608   5.450   0.101   3.750 -0.3892 -0.2822  0.9282
  122MOL   H16724609   5.157   0.349   3.769 -0.2040  2.2077  0.5808
  122MOL   H16824610   5.124   0.324   3.937  0.4949  2.3408  1.0081
  122MOL   H16924611   5.309   0.164   3.937 -1.3213 -0.9962  1.3592
  122MOL   H17024612   5.481   0.081   3.844  1.4672 -0.8757  0.2158
  122MOL   H17124613   5.515   0.069   3.679  0.2122 -0.9749  1.7924
  122MOL   C17224614   5.118   0.083   3.874  0.5014  0.2502  0.5403
  122MOL   C17324615   5.137   7.585   3.902  0.0386  0.3073  0.1689
  122MOL   C17424616   5.223   7.568   4.032  0.4437 -0.1779 -0.0550
  122MOL   O17524617   5.343   7.582   4.035  0.5073  0.4708 -0.0479
  122MOL   N17624618   5.166   7.548   4.150 -0.5122  0.0413 -0.2323
  122MOL   H17724619   5.052   0.085   3.787  0.6252  1.7643  0.4647
  122MOL   H17824620   5.061   0.122   3.958 -1.3563  0.6043 -0.8615
  122MOL   H17924621   5.039   7.543   3.926  0.8437 -1.4067  0.5989
  122MOL   H18024622   5.236   7.537   4.222 -1.5875 -1.0061  0.6756
  122MOL   H18124623   5.068   7.527   4.160 -0.4266 -0.2206  0.1069
  122MOL   C18224624   5.189   7.496   3.790 -0.3889  0.4402  0.7511
  122MOL   C18324625   5.150   7.345   3.800 -0.5267 -0.3151 -0.2442
  122MOL   C18424626   5.247   7.260   3.711  0.5542 -1.0940  1.0265
  122MOL   O18524627   5.312   7.306   3.622 -0.4201 -0.1167  0.0984
  122MOL   N18624628   5.263   7.133   3.741  0.1170 -0.0405  0.2209
  122MOL   H18724629   5.296   7.516   3.791  0.1137 -2.0435 -0.4711
  122MOL   H18824630   5.164   7.540   3.693  1.3154 -0.9987 -0.3754
  122MOL   H18924631   5.174   7.311   3.900 -0.1760 -0.0456 -0.2365
  122MOL   H19024632   5.319   7.072   3.684  2.2466 -0.7047  2.9062
  122MOL   H19124633   5.188   7.087   3.791  1.9998  0.9979  4.2772
  122MOL   C19224634   5.000   7.315   3.761  0.0509  0.8757 -0.1673
  122MOL   C19324635   4.923   7.246   3.871  0.1839  0.3291 -0.0502
  122MOL   C19424636   4.947   7.099   3.908  0.3855 -0.2654 -0.3108
  122MOL   O19524637   5.061   7.060   3.942  0.1905 -0.1670  0.7211
  122MOL   N19624638   4.850   7.017   3.874 -0.2180  0.2719 -0.3190
  122MOL   H19724639   4.991   7.248   3.675 -2.5437 -0.5810  1.1674
  122MOL   H19824640   4.955   7.404   3.718 -0.4608  1.3167  1.2295
  122MOL   H19924641   4.940   7.297   3.965 -2.5862  1.3304 -0.0420
  122MOL   H20024642   4.864   6.918   3.892 -0.2892  0.2198 -0.5535
  122MOL   H20124643   4.769   7.048   3.822 -1.4049 -0.8978  0.7979
  122MOL   H20224644   4.817   7.256   3.849 -0.3104 -1.0106  1.6545
  123MOL     C124645   5.342   7.403   3.260 -0.6104  0.7850  1.0853
  123MOL     C224646   5.318   7.548   3.296 -0.0371 -0.2403 -0.1463
  123MOL     C324647   5.436   7.602   3.378 -0.0886 -0.2698 -0.0119
  123MOL     O424648   5.469   7.544   3.486  0.0129  0.0132 -0.1057
  123MOL     N524649   5.497   0.054   3.331  0.5169 -0.2402 -0.5670
  123MOL     H624650   5.259   7.372   3.197  2.3160 -1.3622 -1.8559
  123MOL     H724651   5.427   7.393   3.193  0.2658 -2.3571  2.5877
  123MOL     H824652   5.316   7.606   3.204 -0.6667 -0.5645 -0.3422
  123MOL     H924653   5.558   0.111   3.388  0.5860 -0.8625 -0.0167
  123MOL    H1024654   5.457   0.096   3.248 -0.3745  0.9817  0.4627
  123MOL    H1124655   5.356   7.338   3.347  1.0600  0.1397  0.3562
  123MOL    C1224656   5.184   7.558   3.369 -0.3894 -0.1037 -0.3020
  123MOL    C1324657   5.043   7.543   3.298 -0.9485  0.1222 -0.4495
  123MOL    C1424658   5.026   7.639   3.187 -0.0552  0.4451  0.1311
  123MOL    O1524659   5.035   0.104   3.215 -0.4459  0.2933  0.1542
  123MOL    N1624660   5.009   7.602   3.061  1.4119  0.6219 -0.1272
  123MOL    H1724661   5.195   7.647   3.432 -0.3227  0.0340 -0.5105
  123MOL    H1824662   5.188   7.478   3.444 -0.8076  1.6167  1.6054
  123MOL    H1924663   5.049   7.441   3.258  1.2016 -0.8239  2.0948
  123MOL    H2024664   5.004   7.502   3.045  0.3848  0.9855 -2.3596
  123MOL    H2124665   5.005   0.009   2.983 -0.1441  1.0370  0.2760
  123MOL    C2224666   4.942   7.561   3.415  0.2812  0.2875 -0.1816
  123MOL    C2324667   4.792   7.536   3.378 -0.4533  0.1476 -0.7107
  123MOL    C2424668   4.690   7.604   3.482  0.0220  0.2033  0.1745
  123MOL    O2524669   4.709   7.583   3.603 -0.1018  0.1682  0.1907
  123MOL    N2624670   4.605   0.039   3.439  0.3598  0.0211  0.7378
  123MOL    H2724671   4.944   0.008   3.451 -0.0047  0.2730 -0.1216
  123MOL    H2824672   4.977   7.502   3.500 -0.6624  1.2167  0.8766
  123MOL    H2924673   4.775   7.584   3.282  0.2200 -0.5441 -1.1827
  123MOL    H3024674   4.534   0.084   3.494  0.6429  0.1353  1.0112
  123MOL    H3124675   4.599   0.064   3.341 -1.3386  3.1864  1.5649
  123MOL    C3224676   4.761   7.385   3.348 -0.4391  0.0727 -1.1281
  123MOL    C3324677   4.652   7.371   3.242 -0.5155 -0.0089 -0.0799
  123MOL    C3424678   4.515   7.376   3.310  0.5914 -0.3883 -0.1217
  123MOL    O3524679   4.470   7.275   3.362 -0.8070 -0.2731  0.7443
  123MOL    N3624680   4.434   7.485   3.305 -0.6058  0.4632  0.6571
  123MOL    H3724681   4.736   7.329   3.438 -2.1518 -0.5649 -1.9844
  123MOL    H3824682   4.852   7.333   3.316  1.8227  1.0322  3.3923
  123MOL    H3924683   4.645   7.461   3.181 -1.8183 -0.1791 -0.2069
  123MOL    H4024684   4.357   7.489   3.370  0.0233  0.0066  1.4373
  123MOL    H4124685   4.456   7.564   3.247  0.2504 -0.8770 -0.9105
  123MOL    C4224686   4.672   7.240   3.151 -0.8235  0.3355  0.0635
  123MOL    C4324687   4.766   7.245   3.027  0.0514  0.1432  0.1754
  123MOL    C4424688   4.915   7.243   3.074 -0.3091  0.1838 -0.0913
  123MOL    O4524689   4.987   7.339   3.052  0.5982 -0.2619  0.2900
  123MOL    N4624690   4.960   7.130   3.129 -0.3096 -0.8250 -0.2928
  123MOL    H4724691   4.570   7.219   3.117 -0.8737  0.3693  0.1950
  123MOL    H4824692   4.688   7.147   3.206 -2.2291 -0.5899 -1.0436
  123MOL    H4924693   4.756   7.152   2.971 -1.4468  0.2420  0.2757
  123MOL    H5024694   5.057   7.130   3.156  0.7161 -2.5761 -3.7919
  123MOL    H5124695   4.904   7.047   3.142 -0.3208 -0.4329  2.5939
  123MOL    C5224696   4.747   7.367   2.936  0.4089  0.1527 -0.3125
  123MOL    C5324697   4.611   7.378   2.866  0.0699 -0.3248 -0.1095
  123MOL    C5424698   4.568   7.245   2.801 -0.5791 -0.5880 -0.2785
  123MOL    O5524699   4.629   7.189   2.711  0.2797  0.1458  0.3073
  123MOL    N5624700   4.454   7.195   2.853  0.0198  0.1298  0.1062
  123MOL    H5724701   4.826   7.375   2.862  2.5307  1.4802  2.0227
  123MOL    H5824702   4.757   7.459   2.994  2.3555  0.9378 -1.8151
  123MOL    H5924703   4.542   7.407   2.945 -0.9787  0.8968 -1.4332
  123MOL    H6024704   4.393   7.239   2.920 -1.3715  0.2516 -1.2381
  123MOL    H6124705   4.417   7.108   2.819  1.6240  0.4067 -2.4971
  123MOL    C6224706   4.608   7.488   2.760 -0.5434  0.1925 -0.2179
  123MOL    C6324707   4.477   7.536   2.701  0.5895  0.3795  0.7004
  123MOL    C6424708   4.513   7.619   2.574 -0.1163 -0.7675 -0.4543
  123MOL    O6524709   4.559   0.072   2.588  0.1348  0.4521  0.0789
  123MOL    N6624710   4.477   7.561   2.462 -0.2215  0.2703 -0.0471
  123MOL    H6724711   4.678   7.442   2.690 -1.4350 -1.0038 -0.3364
  123MOL    H6824712   4.666   7.574   2.793 -0.0396  0.2922 -1.3156
  123MOL    H6924713   4.427   7.445   2.669  1.1008  0.7246 -1.1401
  123MOL    H7024714   4.495   7.604   2.373  0.2966 -1.5656 -0.8579
  123MOL    H7124715   4.421   7.477   2.467 -1.6323  1.1911 -0.1015
  123MOL    C7224716   4.384   7.605   2.806 -0.1284 -0.6354 -0.6404
  123MOL    C7324717   4.244   7.547   2.827  0.5661 -0.0117  0.3616
  123MOL    C7424718   4.156   7.589   2.711  0.6877  0.1019  0.9442
  123MOL    O7524719   4.168   0.042   2.650 -0.2937 -0.2160  0.0230
  123MOL    N7624720   4.069   7.501   2.665  0.2308 -0.2428  0.3896
  123MOL    H7724721   4.365   0.053   2.785 -0.5734 -0.4731  0.5285
  123MOL    H7824722   4.435   7.617   2.902 -0.4893 -0.0811 -0.5197
  123MOL    H7924723   4.253   7.439   2.812  0.1598  0.0525 -0.3658
  123MOL    H8024724   3.994   7.510   2.598  0.2310 -1.3245  0.2389
  123MOL    H8124725   4.063   7.409   2.707 -1.3347 -0.6340 -0.6697
  123MOL    C8224726   4.177   7.583   2.959  0.5046 -0.1871  0.0198
  123MOL    C8324727   4.026   7.538   2.983  0.3423  0.2891  0.5859
  123MOL    C8424728   3.969   7.583   3.116 -0.1848  0.1176 -0.3846
  123MOL    O8524729   3.849   7.563   3.139  0.1848  0.4877 -0.0119
  123MOL    N8624730   4.054   7.636   3.204 -0.1472  0.7496 -0.5126
  123MOL    H8724731   4.195   0.033   2.974 -1.7015  0.0830  0.9664
  123MOL    H8824732   4.230   7.531   3.038 -0.7313 -0.8195  0.4468
  123MOL    H8924733   3.967   7.592   2.909 -0.7293 -0.5445  0.8152
  123MOL    H9024734   4.023   7.646   3.300 -1.4548 -1.4365 -0.6706
  123MOL    H9124735   4.153   7.638   3.184 -0.2906  1.2963 -1.1967
  123MOL    C9224736   4.009   7.382   2.956  0.1636  0.1003  0.4520
  123MOL    C9324737   4.028   7.293   3.085  0.0689 -0.3973  0.2550
  123MOL    C9424738   4.177   7.273   3.121  0.5220 -0.1114  0.9265
  123MOL    O9524739   4.264   7.279   3.029 -1.0136 -0.0587  0.0328
  123MOL    N9624740   4.205   7.265   3.251  0.4379 -0.4494 -0.4743
  123MOL    H9724741   4.073   7.340   2.878 -1.9525 -0.2388 -1.1653
  123MOL    H9824742   3.907   7.362   2.922  0.1248  2.3646 -0.8278
  123MOL    H9924743   3.969   7.324   3.171  0.3307 -0.6045  0.5095
  123MOL   H10024744   4.294   7.248   3.295  1.3453 -0.0970 -2.1329
  123MOL   H10124745   4.130   7.256   3.318  0.7564  3.2242  0.4696
  123MOL   C10224746   3.975   7.151   3.049 -0.2377 -0.0944  0.1221
  123MOL   C10324747   3.831   7.128   3.102  0.2311 -0.8752  0.0570
  123MOL   C10424748   3.826   7.099   3.256  0.2317 -0.4843 -0.3167
  123MOL   O10524749   3.918   7.051   3.316 -0.3938 -0.3609  0.1338
  123MOL   N10624750   3.712   7.116   3.312  0.0561 -0.3242 -0.0231
  123MOL   H10724751   4.035   7.071   3.093 -0.7041 -0.7986 -0.5132
  123MOL   H10824752   3.996   7.138   2.943  3.2979  0.8804  0.6344
  123MOL   H10924753   3.776   7.221   3.091  0.3492 -1.0522 -2.1534
  123MOL   H11024754   3.626   7.125   3.261  0.4378 -1.0061 -0.8036
  123MOL   H11124755   3.713   7.082   3.407  0.7627 -0.6728 -0.1523
  123MOL   C11224756   3.755   7.027   3.011 -0.1780 -0.2631 -0.3252
  123MOL   C11324757   3.599   7.041   3.002  0.1318  0.0436  0.3226
  123MOL   C11424758   3.528   6.976   3.123  0.4217 -0.2141  0.3207
  123MOL   O11524759   3.447   7.049   3.187 -0.5524  0.0981 -0.2189
  123MOL   N11624760   3.557   6.852   3.151  0.2340 -0.1725 -0.3428
  123MOL   H11724761   3.777   6.930   3.054  0.2097 -0.2796 -0.5653
  123MOL   H11824762   3.810   7.033   2.918  3.6582 -1.5850  1.7475
  123MOL   H11924763   3.573   7.147   3.000  1.7937  0.5068  1.7076
  123MOL   H12024764   3.606   6.797   3.082  1.0300 -0.2822  0.3076
  123MOL   H12124765   3.551   6.824   3.248 -0.8563 -2.3388 -1.0059
  123MOL   C12224766   3.542   6.981   2.867  0.2765  0.3350 -0.2169
  123MOL   C12324767   3.492   7.083   2.755 -1.0443 -0.4651 -0.2404
  123MOL   C12424768   3.429   7.010   2.637  0.3704 -0.9407 -0.1476
  123MOL   O12524769   3.401   7.068   2.533 -0.0656 -0.6338  0.1921
  123MOL   N12624770   3.404   6.881   2.632 -0.2033  0.0328 -0.1642
  123MOL   H12724771   3.458   6.919   2.897  2.2162 -1.7261  1.0174
  123MOL   H12824772   3.620   6.916   2.828 -0.1379 -0.3266  0.0527
  123MOL   H12924773   3.411   7.138   2.804 -1.2201  0.2045 -1.2624
  123MOL   H13024774   3.444   6.821   2.703 -1.1839 -1.0486 -0.5032
  123MOL   H13124775   3.342   6.858   2.556 -0.3046  3.7491 -1.2847
  123MOL   C13224776   3.602   7.186   2.713 -0.4980 -0.5355  0.0001
  123MOL   C13324777   3.550   7.332   2.675 -0.0513  0.2060  0.4958
  123MOL   C13424778   3.582   7.364   2.522 -0.2994 -0.5525  0.0742
  123MOL   O13524779   3.698   7.384   2.485 -0.1531 -0.0729  0.0587
  123MOL   N13624780   3.476   7.383   2.440 -0.2874 -0.1559 -0.1733
  123MOL   H13724781   3.648   7.144   2.624 -1.4324  1.5762 -1.5387
  123MOL   H13824782   3.678   7.198   2.791 -1.9972  0.7372  1.3064
  123MOL   H13924783   3.443   7.327   2.698  0.3289 -2.0210  1.8852
  123MOL   H14024784   3.382   7.375   2.476 -1.5030  0.8206 -2.9946
  123MOL   H14124785   3.491   7.395   2.341 -0.2678  1.5186  0.0178
  123MOL   C14224786   3.612   7.434   2.774  0.5669  0.2452 -0.5217
  123MOL   C14324787   3.573   7.582   2.746  0.0468  0.9593 -0.6097
  123MOL   C14424788   3.687   7.651   2.678  0.0740  0.4961 -0.0071
  123MOL   O14524789   3.801   7.631   2.719  0.1408  0.4625 -0.5601
  123MOL   N14624790   3.660   0.061   2.562 -0.1972  0.8517 -0.2738
  123MOL   H14724791   3.718   7.410   2.773  0.8799  1.3609  1.9576
  123MOL   H14824792   3.570   7.399   2.868  0.8378 -0.1004 -0.5317
  123MOL   H14924793   3.491   7.580   2.675  0.0464  0.5869 -0.6021
  123MOL   H15024794   3.563   0.050   2.535 -0.3303  1.8899 -0.2217
  123MOL   H15124795   3.731   0.105   2.505 -0.5611  0.0861 -1.3411
  123MOL   C15224796   3.545   7.653   2.879  0.1513  0.2497 -0.6712
  123MOL   C15324797   3.530   0.146   2.893 -0.8474 -0.3524 -0.6309
  123MOL   C15424798   3.515   0.171   3.048  0.1097 -0.2584  0.2137
  123MOL   O15524799   3.408   0.142   3.100 -0.7974 -0.0898 -0.4185
  123MOL   N15624800   3.613   0.230   3.116  0.0475  0.5075  0.2106
  123MOL   H15724801   3.616   7.617   2.953  0.0297  1.1104 -0.1273
  123MOL   H15824802   3.452   7.601   2.900  0.2773  1.0851  2.0673
  123MOL   H15924803   3.623   0.199   2.872 -0.9598  0.2100  0.2585
  123MOL   H16024804   3.604   0.262   3.211  0.0282  0.8009  0.1110
  123MOL   H16124805   3.698   0.248   3.064 -1.5101  0.2890 -2.4813
  123MOL   C16224806   3.413   0.213   2.815 -0.4981  0.1095  0.2035
  123MOL   C16324807   3.438   0.353   2.751 -0.3993  0.4520 -0.7365
  123MOL   C16424808   3.450   0.470   2.848 -1.0081 -0.1340  0.3777
  123MOL   O16524809   3.354   0.498   2.919  0.0588 -0.6083  0.2322
  123MOL   N16624810   3.570   0.531   2.848  0.1111 -0.2761 -0.0238
  123MOL   H16724811   3.315   0.202   2.861 -0.2780  0.2284  0.7029
  123MOL   H16824812   3.383   0.145   2.735  0.2002  0.5515 -0.4393
  123MOL   H16924813   3.534   0.341   2.701 -0.1233  1.0672 -0.3699
  123MOL   H17024814   3.643   0.495   2.789 -0.7200 -1.2268 -0.4878
  123MOL   H17124815   3.591   0.597   2.921 -1.3156 -0.0614  0.2055
  123MOL   C17224816   3.325   0.365   2.643  0.5238 -0.1863  0.2210
  123MOL   C17324817   3.296   0.501   2.568 -0.9851  0.3079  0.1446
  123MOL   C17424818   3.149   0.547   2.578  0.2708  0.2742 -0.3628
  123MOL   O17524819   3.062   0.485   2.526  0.4118  0.3232  0.0646
  123MOL   N17624820   3.117   0.653   2.648 -0.0429 -0.0575  0.9547
  123MOL   H17724821   3.230   0.348   2.694 -0.5375  0.3872 -1.5281
  123MOL   H17824822   3.343   0.291   2.565  0.7123 -0.9740  1.0084
  123MOL   H17924823   3.350   0.574   2.627 -1.5505  1.3495 -0.6126
  123MOL   H18024824   3.179   0.713   2.700  0.4756 -0.3982  0.7324
  123MOL   H18124825   3.023   0.688   2.644  0.3745  0.8430 -3.8470
  123MOL   C18224826   3.346   0.509   2.419  0.4445  0.0585  0.0365
  123MOL   C18324827   3.478   0.583   2.394 -0.3175  0.9901 -0.4808
  123MOL   C18424828   3.479   0.723   2.449 -0.7698 -0.5714  0.8365
  123MOL   O18524829   3.405   0.808   2.403  0.0479 -0.2705  0.8045
  123MOL   N18624830   3.578   0.752   2.539  0.4849  0.3557  0.1517
  123MOL   H18724831   3.273   0.555   2.353  1.1230 -1.2472 -1.6838
  123MOL   H18824832   3.352   0.411   2.372  2.0872 -0.4836  1.3121
  123MOL   H18924833   3.550   0.525   2.452  0.5060  1.2141 -1.2683
  123MOL   H19024834   3.602   0.843   2.575 -0.4552  0.7039 -0.0941
  123MOL   H19124835   3.642   0.675   2.555 -0.3296 -0.1388  1.0795
  123MOL   C19224836   3.517   0.568   2.244  0.1832 -0.7320 -0.1827
  123MOL   C19324837   3.551   0.420   2.192  0.7798 -0.3846  0.0133
  123MOL   C19424838   3.646   0.343   2.283 -1.0388 -0.6257  0.1908
  123MOL   O19524839   3.610   0.291   2.388  0.5814 -0.3394  0.1797
  123MOL   N19624840   3.773   0.333   2.246  0.5547  0.3556 -0.0762
  123MOL   H19724841   3.592   0.647   2.233 -0.5893  0.0452  0.0129
  123MOL   H19824842   3.436   0.620   2.192  0.9612  1.0866  0.3680
  123MOL   H19924843   3.460   0.361   2.192  1.5141 -1.5567  1.5910
  123MOL   H20024844   3.791   0.360   2.151  0.3204 -1.2201 -0.5923
  123MOL   H20124845   3.832   0.263   2.288  0.0254 -0.1656 -0.1916
  123MOL   H20224846   3.591   0.427   2.091 -0.7078 -1.0270 -0.6216
  124MOL     C124847   6.067   2.546   3.289 -0.0221  0.3706 -0.3966
  124MOL     C224848   6.043   2.696   3.312 -0.4522 -0.1117 -0.2263
  124MOL     C324849   6.095   2.755   3.447 -0.0004  0.4926  0.4222
  124MOL     O424850   6.139   2.675   3.531 -0.2870 -0.5050 -0.3255
  124MOL     N524851   6.125   2.886   3.455 -0.0601  0.7283 -0.1758
  124MOL     H624852   6.039   2.475   3.367  1.2399 -0.5081 -0.7345
  124MOL     H724853   6.011   2.509   3.203 -1.5888  0.3615  0.6102
  124MOL     H824854   6.114   2.743   3.243  2.0021 -1.5170  1.2654
  124MOL     H924855   6.096   2.954   3.386  0.2251  3.1082  1.9442
  124MOL    H1024856   6.178   2.913   3.537  0.1547 -0.0241 -0.0705
  124MOL    H1124857   6.171   2.527   3.263 -1.0181 -1.2812 -3.5601
  124MOL    C1224858   5.899   2.743   3.275 -0.4271  0.1777  0.0640
  124MOL    C1324859   5.781   2.716   3.371 -0.3965 -0.0747 -1.1709
  124MOL    C1424860   5.738   2.567   3.369 -0.3394  0.4727 -0.7209
  124MOL    O1524861   5.690   2.525   3.264 -0.1361 -0.3206 -0.3833
  124MOL    N1624862   5.733   2.502   3.488 -0.1015  0.4917  0.5822
  124MOL    H1724863   5.880   2.707   3.174  0.1962  2.3101 -0.8443
  124MOL    H1824864   5.917   2.847   3.248 -2.9115  0.1318 -2.0548
  124MOL    H1924865   5.828   2.728   3.469  0.0367 -1.0657 -1.2581
  124MOL    H2024866   5.707   2.405   3.481 -0.4996  0.5715  0.9538
  124MOL    H2124867   5.754   2.549   3.575 -0.3016  1.9330 -0.1327
  124MOL    C2224868   5.660   2.814   3.337 -0.6140  0.6203 -0.3600
  124MOL    C2324869   5.612   2.880   3.466 -0.8389 -0.6282  0.3848
  124MOL    C2424870   5.534   2.784   3.555 -0.3404 -0.0465  0.1912
  124MOL    O2524871   5.426   2.741   3.515 -0.0031 -0.8341  0.3435
  124MOL    N2624872   5.584   2.733   3.672  0.0024  0.1257  0.3753
  124MOL    H2724873   5.580   2.755   3.294 -1.7174  1.9356 -0.1382
  124MOL    H2824874   5.691   2.887   3.262 -1.5086 -0.2710 -1.6074
  124MOL    H2924875   5.707   2.902   3.513  1.2885 -3.0681 -2.5438
  124MOL    H3024876   5.677   2.739   3.711  0.6409 -1.7833 -0.8031
  124MOL    H3124877   5.520   2.688   3.735 -0.4787  1.7308  1.0770
  124MOL    C3224878   5.534   3.010   3.442 -0.8020 -0.0673  0.0781
  124MOL    C3324879   5.609   3.137   3.405  0.2799  0.3981  0.0569
  124MOL    C3424880   5.706   3.172   3.519 -0.3814  0.6614  0.5358
  124MOL    O3524881   5.670   3.169   3.633 -0.2901 -0.5001 -0.1413
  124MOL    N3624882   5.835   3.181   3.496  0.1323 -0.4169 -0.7532
  124MOL    H3724883   5.486   3.041   3.534 -0.1542 -0.4368  0.5452
  124MOL    H3824884   5.454   2.985   3.372  0.7191  1.3777 -2.2468
  124MOL    H3924885   5.677   3.116   3.323 -1.6853 -0.5702 -1.3598
  124MOL    H4024886   5.871   3.158   3.405  0.3589 -0.6039 -0.6149
  124MOL    H4124887   5.903   3.186   3.570 -1.4681  0.2045  0.7007
  124MOL    C4224888   5.514   3.256   3.366 -0.4241 -0.5560  0.0732
  124MOL    C4324889   5.416   3.237   3.253  0.1802  0.4139  1.3532
  124MOL    C4424890   5.494   3.180   3.131  0.3937 -0.3925  0.3405
  124MOL    O4524891   5.564   3.256   3.064 -0.1089  0.5406 -0.7370
  124MOL    N4624892   5.479   3.051   3.102  0.1573 -0.6232  0.2504
  124MOL    H4724893   5.581   3.336   3.337  0.9846 -1.6989  0.1543
  124MOL    H4824894   5.462   3.294   3.455 -0.7634  1.3550 -0.9088
  124MOL    H4924895   5.352   3.161   3.297 -1.4638  1.4229  0.7337
  124MOL    H5024896   5.523   3.004   3.023  1.4252 -0.8051  1.0374
  124MOL    H5124897   5.423   2.992   3.161  0.2515 -0.3259  0.6334
  124MOL    C5224898   5.341   3.368   3.207 -0.1178 -0.3148 -0.4929
  124MOL    C5324899   5.188   3.384   3.245  0.1423 -0.2685  0.5940
  124MOL    C5424900   5.107   3.255   3.206 -0.8385 -0.3866 -0.1745
  124MOL    O5524901   5.115   3.208   3.093 -0.1928 -0.7008 -0.0279
  124MOL    N5624902   5.030   3.195   3.297 -0.0223  0.5323 -0.1809
  124MOL    H5724903   5.350   3.372   3.099 -1.6488 -3.5326 -0.7960
  124MOL    H5824904   5.391   3.454   3.252 -1.9579  1.0096 -0.9102
  124MOL    H5924905   5.186   3.402   3.352  1.4451  1.5244  0.3332
  124MOL    H6024906   5.017   3.249   3.381 -0.7948 -0.0087  0.0566
  124MOL    H6124907   4.966   3.117   3.297 -0.5717  0.8763 -3.7684
  124MOL    C6224908   5.125   3.512   3.172  0.3777  0.6724 -0.7287
  124MOL    C6324909   4.987   3.548   3.223 -0.0223  0.0172 -0.3354
  124MOL    C6424910   4.906   3.620   3.115 -0.1984 -0.1265  0.2793
  124MOL    O6524911   4.899   3.745   3.105  1.1296  0.9562 -0.3323
  124MOL    N6624912   4.835   3.546   3.030 -0.6138  0.7390  0.2742
  124MOL    H6724913   5.123   3.472   3.071  1.6486  0.2971 -0.6197
  124MOL    H6824914   5.191   3.599   3.174  4.1161 -2.0467  1.9240
  124MOL    H6924915   4.934   3.461   3.261 -0.2760  2.2302  4.7180
  124MOL    H7024916   4.785   3.572   2.946  0.1447  0.3737 -0.3001
  124MOL    H7124917   4.848   3.446   3.033  1.2105  0.9713  0.6544
  124MOL    C7224918   4.995   3.630   3.362  0.4686 -0.6526  0.3875
  124MOL    C7324919   4.895   3.602   3.479 -0.2053  0.1165 -0.2273
  124MOL    C7424920   4.757   3.667   3.452  1.2246  0.6117  0.6755
  124MOL    O7524921   4.725   3.778   3.484 -0.4940  0.2077  0.2662
  124MOL    N7624922   4.677   3.599   3.367 -0.2279  0.1591  0.6313
  124MOL    H7724923   4.978   3.734   3.334 -0.5480  0.3473  4.4292
  124MOL    H7824924   5.099   3.630   3.396  0.9298 -0.5081 -1.0053
  124MOL    H7924925   4.866   3.496   3.474  0.9976 -0.4535  3.5303
  124MOL    H8024926   4.702   3.505   3.342  0.8915  0.2500  1.3724
  124MOL    H8124927   4.592   3.646   3.341 -0.3887 -0.0872  0.7069
  124MOL    C8224928   4.947   3.638   3.624 -0.7880 -0.1213  0.5442
  124MOL    C8324929   5.028   3.531   3.700 -0.6742  0.1184  0.5190
  124MOL    C8424930   5.173   3.508   3.659 -0.5744 -0.0603 -1.1387
  124MOL    O8524931   5.228   3.401   3.660 -0.0968 -0.1975 -0.0298
  124MOL    N8624932   5.250   3.615   3.638  0.7150 -0.0200  0.1108
  124MOL    H8724933   4.859   3.662   3.683 -2.3327 -2.0851 -0.8849
  124MOL    H8824934   5.009   3.727   3.618 -2.5383  0.9979 -1.6083
  124MOL    H8924935   5.039   3.572   3.800 -1.3462 -0.8553  0.9986
  124MOL    H9024936   5.209   3.707   3.637 -1.0409 -0.7853 -0.2016
  124MOL    H9124937   5.347   3.590   3.631 -0.0022 -2.6026 -1.5845
  124MOL    C9224938   4.948   3.399   3.723  0.2065 -1.2084  0.0990
  124MOL    C9324939   4.811   3.412   3.794  0.0429  0.4452  0.4523
  124MOL    C9424940   4.808   3.300   3.903  0.9180  0.3018  0.3663
  124MOL    O9524941   4.768   3.183   3.878 -0.2820 -0.3243  0.0033
  124MOL    N9624942   4.833   3.337   4.026  0.1796  0.8761  0.3902
  124MOL    H9724943   5.011   3.341   3.791  0.4590  1.6538  2.4292
  124MOL    H9824944   4.935   3.342   3.631  0.2105 -0.7989 -0.1529
  124MOL    H9924945   4.817   3.502   3.856 -1.4420  0.1646  1.0174
  124MOL   H10024946   4.866   3.431   4.043  0.9028  0.9282 -1.2565
  124MOL   H10124947   4.834   3.265   4.097 -0.0563  1.0129  0.5323
  124MOL   C10224948   4.674   3.426   3.719 -0.2165  0.0650  0.0823
  124MOL   C10324949   4.606   3.315   3.640 -0.1931 -0.2559  0.6549
  124MOL   C10424950   4.705   3.254   3.540  0.1369  0.0277  0.5177
  124MOL   O10524951   4.732   3.297   3.431 -0.2442 -0.3283  0.0916
  124MOL   N10624952   4.760   3.137   3.572  0.2466  0.1496 -0.0715
  124MOL   H10724953   4.661   3.519   3.664  0.8308  0.3957  0.3993
  124MOL   H10824954   4.595   3.452   3.790 -1.3162  2.1121 -1.8135
  124MOL   H10924955   4.581   3.235   3.710  0.4091 -0.9536  0.0788
  124MOL   H11024956   4.747   3.111   3.669  0.1083 -0.2899 -0.2087
  124MOL   H11124957   4.828   3.089   3.516 -0.8569 -2.4447  0.7589
  124MOL   C11224958   4.472   3.352   3.571  0.1433 -0.2795 -0.3779
  124MOL   C11324959   4.355   3.408   3.651  0.0639  0.3420  0.3399
  124MOL   C11424960   4.276   3.319   3.750 -0.1606  0.0550  0.3497
  124MOL   O11524961   4.295   3.200   3.758 -0.0600  0.3479 -0.1768
  124MOL   N11624962   4.192   3.376   3.837 -0.3227  0.1535  0.0183
  124MOL   H11724963   4.431   3.259   3.531 -2.7543  1.6252 -2.0364
  124MOL   H11824964   4.487   3.420   3.487  0.4758  0.0011 -0.0960
  124MOL   H11924965   4.398   3.487   3.712  3.0907 -0.1645 -1.0221
  124MOL   H12024966   4.174   3.476   3.832 -0.5955  0.0156 -2.5001
  124MOL   H12124967   4.158   3.319   3.913 -1.3816  1.3590  0.4614
  124MOL   C12224968   4.244   3.469   3.555  0.1493 -0.1244  0.0474
  124MOL   C12324969   4.210   3.410   3.405 -0.7253  0.7315 -0.1809
  124MOL   C12424970   4.227   3.527   3.313 -0.4022  0.0170 -0.2422
  124MOL   O12524971   4.153   3.621   3.316  0.3490 -0.0089 -0.7475
  124MOL   N12624972   4.325   3.519   3.226 -0.2336 -0.3383  0.1434
  124MOL   H12724973   4.271   3.574   3.542  0.8468 -0.0595  1.9019
  124MOL   H12824974   4.148   3.494   3.599  0.2196  1.8331 -0.8321
  124MOL   H12924975   4.274   3.325   3.382 -0.2402  0.0518  3.4534
  124MOL   H13024976   4.345   3.606   3.178 -0.0223 -0.0508  0.7415
  124MOL   H13124977   4.370   3.431   3.207  1.3507 -0.1163  2.7241
  124MOL   C13224978   4.066   3.344   3.396  0.5907 -0.5570 -0.1580
  124MOL   C13324979   4.049   3.201   3.464  0.2798 -0.5774  0.1096
  124MOL   C13424980   4.124   3.088   3.391 -0.1918 -0.2595 -0.7899
  124MOL   O13524981   4.092   3.059   3.271  0.1071  0.1752  0.2697
  124MOL   N13624982   4.217   3.028   3.459 -0.2111  0.3709 -0.0717
  124MOL   H13724983   4.032   3.342   3.293 -0.2741 -0.2310  0.1129
  124MOL   H13824984   3.996   3.419   3.433 -0.8415 -2.0256  0.1658
  124MOL   H13924985   4.090   3.218   3.564  2.3485 -0.4406 -0.7377
  124MOL   H14024986   4.270   2.950   3.425  1.1594  1.4952 -0.5386
  124MOL   H14124987   4.219   3.053   3.557 -2.1633 -0.2308  0.1591
  124MOL   C14224988   3.893   3.178   3.478 -0.2108 -0.3477 -0.2345
  124MOL   C14324989   3.843   3.055   3.560  0.2709  0.0416  0.2681
  124MOL   C14424990   3.697   3.021   3.519  0.0696 -0.1792  0.1466
  124MOL   O14524991   3.614   3.108   3.547  0.3742  0.4633  0.1954
  124MOL   N14624992   3.673   2.902   3.468  0.4454 -0.2149 -0.4318
  124MOL   H14724993   3.851   3.167   3.378 -1.8146  1.0675  0.2673
  124MOL   H14824994   3.850   3.271   3.513  1.7586 -0.3371  2.3146
  124MOL   H14924995   3.898   2.964   3.535 -0.5954 -0.1723 -0.9094
  124MOL   H15024996   3.578   2.869   3.461  1.1494 -2.8347  1.6814
  124MOL   H15124997   3.751   2.845   3.441 -0.1173 -1.6518  0.8875
  124MOL   C15224998   3.857   3.078   3.716  0.0829  0.1079  0.0890
  124MOL   C15324999   3.946   2.982   3.802 -0.3324  0.1082  0.2696
  124MOL   C15425000   3.891   2.836   3.836 -0.0779 -0.1259 -0.2821
  124MOL   O15525001   3.944   2.772   3.922  0.2584  0.2221 -0.0282
  124MOL   N15625002   3.784   2.789   3.772  0.7712  0.1201  0.0308
  124MOL   H15725003   3.760   3.083   3.766 -0.4562  0.3402 -0.9639
  124MOL   H15825004   3.894   3.180   3.722  1.2410 -0.1755 -1.7182
  124MOL   H15925005   4.043   2.967   3.755 -0.7722 -0.9207 -0.3252
  124MOL   H16025006   3.747   2.706   3.816  2.4179 -0.7736 -0.2089
  124MOL   H16125007   3.732   2.848   3.708  0.5558 -0.2208 -0.1093
  124MOL   C16225008   4.001   3.060   3.926 -0.0769 -0.1243 -0.0896
  124MOL   C16325009   3.885   3.120   4.021 -0.3182  0.4511  0.1090
  124MOL   C16425010   3.877   3.275   4.011  0.8609 -0.3881  0.1781
  124MOL   O16525011   3.979   3.346   4.009  0.0602  0.2486  0.6034
  124MOL   N16625012   3.756   3.338   4.013 -0.0083 -0.3766  0.0433
  124MOL   H16725013   4.057   3.143   3.884  0.1895 -0.8432 -1.1757
  124MOL   H16825014   4.076   2.999   3.978  1.0547  0.5452 -0.9209
  124MOL   H16925015   3.794   3.073   3.984 -0.6569  0.7762  0.5139
  124MOL   H17025016   3.670   3.285   4.015  0.7382 -1.6800 -1.1405
  124MOL   H17125017   3.755   3.438   4.004  0.9631 -0.3463  0.2517
  124MOL   C17225018   3.910   3.101   4.174  0.1441  0.1366  0.5702
  124MOL   C17325019   3.882   2.960   4.238 -0.1214 -0.6766  0.5949
  124MOL   C17425020   3.740   2.904   4.210 -0.3002 -0.1525  0.1983
  124MOL   O17525021   3.640   2.936   4.278  0.0759 -0.0634 -0.3073
  124MOL   N17625022   3.725   2.818   4.113 -0.1868  0.5444 -0.2411
  124MOL   H17725023   3.840   3.163   4.231  0.4870 -0.1007  1.2530
  124MOL   H17825024   4.012   3.127   4.202  0.8541  0.2296 -1.9949
  124MOL   H17925025   3.948   2.888   4.189  0.8877 -0.0952  1.0701
  124MOL   H18025026   3.806   2.790   4.060 -0.6535 -0.4626 -0.4346
  124MOL   H18125027   3.632   2.788   4.087 -0.3675  1.4577 -0.6763
  124MOL   C18225028   3.895   2.976   4.393 -0.6201  0.1711 -0.5419
  124MOL   C18325029   3.946   2.852   4.464  0.2521  0.6111 -0.4093
  124MOL   C18425030   3.838   2.741   4.472 -0.2417  0.3477 -0.3517
  124MOL   O18525031   3.737   2.752   4.537 -0.7305 -0.8013  0.6438
  124MOL   N18625032   3.862   2.623   4.411 -0.5988 -0.7643 -0.3960
  124MOL   H18725033   3.812   3.026   4.444 -0.2923  0.0015  0.1690
  124MOL   H18825034   3.966   3.057   4.410 -1.0676  0.7977 -1.6212
  124MOL   H18925035   4.032   2.822   4.405  0.4138  1.1261 -0.4358
  124MOL   H19025036   3.784   2.560   4.397  0.4094 -2.4369  1.3248
  124MOL   H19125037   3.949   2.615   4.361 -0.6766  1.5430 -0.9387
  124MOL   C19225038   3.994   2.884   4.605 -0.5567 -0.2512  0.0067
  124MOL   C19325039   4.069   2.770   4.667 -0.0565 -0.3125  0.0756
  124MOL   C19425040   4.144   2.795   4.793 -0.2742 -0.5099 -0.3146
  124MOL   O19525041   4.122   2.721   4.890 -0.0716  0.3198  0.1911
  124MOL   N19625042   4.221   2.902   4.800 -0.0149 -0.0194  0.9907
  124MOL   H19725043   3.901   2.898   4.660 -1.3848  0.4473 -1.5349
  124MOL   H19825044   4.057   2.973   4.611  0.8620 -1.1156 -1.6037
  124MOL   H19925045   3.997   2.692   4.692 -0.9263  0.1993 -0.8041
  124MOL   H20025046   4.241   2.953   4.715  0.5072  1.8474  2.2140
  124MOL   H20125047   4.235   2.945   4.890  1.7620  3.3681 -0.8447
  124MOL   H20225048   4.141   2.729   4.597  0.7565 -0.0978  0.7798
  125MOL     C125049   0.860   4.000   1.515 -0.5969 -0.2946 -0.3893
  125MOL     C225050   0.946   4.121   1.490  0.7679  0.3309 -0.1654
  125MOL     C325051   0.918   4.178   1.351 -0.6825 -0.6133  0.1208
  125MOL     O425052   0.971   4.135   1.254 -0.4235  0.2079 -0.5518
  125MOL     N525053   0.830   4.280   1.351  0.2185  0.2548 -0.1380
  125MOL     H625054   0.882   3.920   1.444  0.0828 -1.4401  1.0884
  125MOL     H725055   0.885   3.967   1.616  0.4993  0.1378 -0.5118
  125MOL     H825056   0.922   4.195   1.567 -0.2706 -1.6234  1.4237
  125MOL     H925057   0.787   4.316   1.435  3.6875  0.0299  1.8234
  125MOL    H1025058   0.799   4.322   1.265 -0.1226  1.2004  0.4362
  125MOL    H1125059   0.752   4.015   1.510 -0.5776  1.3429  2.8100
  125MOL    C1225060   1.094   4.087   1.520  0.9365 -0.3806 -0.7339
  125MOL    C1325061   1.198   4.206   1.505 -0.0798 -0.0644 -0.7389
  125MOL    C1425062   1.336   4.151   1.559  0.8459  0.3516  0.3451
  125MOL    O1525063   1.366   4.158   1.677  0.5225 -0.3027 -0.3339
  125MOL    N1625064   1.420   4.109   1.462  0.3436 -0.9351 -0.3399
  125MOL    H1725065   1.123   4.014   1.445  1.8099 -0.4591 -0.3250
  125MOL    H1825066   1.115   4.041   1.617  1.7291  0.4757 -0.4916
  125MOL    H1925067   1.209   4.241   1.402 -1.7810  0.9673 -0.5793
  125MOL    H2025068   1.508   4.073   1.497  1.0812  0.0060 -1.2006
  125MOL    H2125069   1.389   4.092   1.368 -1.0942  0.9684 -0.2437
  125MOL    C2225070   1.148   4.340   1.571  0.4198 -0.5112 -0.8592
  125MOL    C2325071   1.256   4.453   1.565  0.2930  0.1649  0.8580
  125MOL    C2425072   1.214   4.559   1.674  0.1315  0.4713  0.0306
  125MOL    O2525073   1.160   4.663   1.648 -0.9077  0.1807 -0.3117
  125MOL    N2625074   1.237   4.518   1.801 -0.7906 -0.3690 -0.0711
  125MOL    H2725075   1.131   4.325   1.678  1.5205  1.7523 -0.3519
  125MOL    H2825076   1.050   4.373   1.537 -0.0102 -1.0884 -0.2062
  125MOL    H2925077   1.351   4.413   1.601  0.4128  0.1705  0.5548
  125MOL    H3025078   1.255   4.425   1.836 -0.3137 -0.0182  0.6222
  125MOL    H3125079   1.205   4.579   1.875 -3.4380  0.0317 -1.5018
  125MOL    C3225080   1.264   4.506   1.420 -0.3591  0.0284  0.2245
  125MOL    C3325081   1.412   4.525   1.350  0.5466  0.2328 -0.3331
  125MOL    C3425082   1.510   4.614   1.425  0.5270  0.0427 -0.6395
  125MOL    O3525083   1.605   4.564   1.487  0.8422  0.1098 -0.0503
  125MOL    N3625084   1.493   4.746   1.417 -0.2214 -0.0658 -0.0171
  125MOL    H3725085   1.208   4.599   1.415  0.0352  0.1797 -1.9829
  125MOL    H3825086   1.210   4.442   1.349  0.9335  0.0720 -0.8216
  125MOL    H3925087   1.452   4.424   1.359 -2.4175 -0.8698  1.3193
  125MOL    H4025088   1.548   4.804   1.479 -1.2987  0.8408  0.0952
  125MOL    H4125089   1.425   4.791   1.358  1.3037 -0.3313 -2.0381
  125MOL    C4225090   1.425   4.564   1.196  0.3194  0.0677 -0.1004
  125MOL    C4325091   1.319   4.503   1.096 -0.4874  0.6632 -0.0768
  125MOL    C4425092   1.381   4.487   0.958 -0.6760 -0.1293  0.3023
  125MOL    O4525093   1.477   4.559   0.926 -0.5547  0.0452 -0.0032
  125MOL    N4625094   1.327   4.404   0.866  0.4282  0.0667  0.1804
  125MOL    H4725095   1.525   4.536   1.164  0.0266  1.1371 -2.0047
  125MOL    H4825096   1.420   4.672   1.183  3.6682  0.5060  1.8133
  125MOL    H4925097   1.297   4.400   1.123  1.8073  0.1570 -0.0124
  125MOL    H5025098   1.253   4.338   0.883 -0.3272  1.0220  0.5861
  125MOL    H5125099   1.371   4.393   0.775 -0.1471 -1.7052  0.1043
  125MOL    C5225100   1.190   4.593   1.097 -0.7436 -0.0247  0.3637
  125MOL    C5325101   1.076   4.564   0.998 -0.0445 -0.5423 -0.8744
  125MOL    C5425102   0.967   4.673   1.019 -0.4452 -0.1779  0.6275
  125MOL    O5525103   0.930   4.709   1.131 -0.6410 -0.7868  0.1272
  125MOL    N5625104   0.921   4.725   0.903  0.5189  0.2074  0.0344
  125MOL    H5725105   1.211   4.697   1.071 -1.6288 -0.0896 -0.6936
  125MOL    H5825106   1.158   4.610   1.200 -0.6869 -1.6428  0.6542
  125MOL    H5925107   1.109   4.564   0.894 -1.7586 -1.1911 -1.4311
  125MOL    H6025108   0.854   4.800   0.919 -0.5741 -0.2796 -2.0820
  125MOL    H6125109   0.966   4.702   0.816  0.9802  0.0378  0.3164
  125MOL    C6225110   1.007   4.425   1.027  0.5249  0.6809 -0.4049
  125MOL    C6325111   0.903   4.372   0.916  0.6556 -0.5506 -0.3650
  125MOL    C6425112   0.763   4.422   0.946  0.1388  0.1129  0.5583
  125MOL    O6525113   0.712   4.391   1.055  0.4194  0.0072  0.1023
  125MOL    N6625114   0.707   4.498   0.853 -0.1581 -0.2504 -0.3020
  125MOL    H6725115   0.949   4.434   1.119 -0.8486  2.4769 -1.3840
  125MOL    H6825116   1.080   4.348   1.048  0.1265 -0.2388 -2.2925
  125MOL    H6925117   0.934   4.411   0.818 -1.0487  0.5664 -0.4863
  125MOL    H7025118   0.627   4.550   0.887  1.1892  2.4244 -1.0736
  125MOL    H7125119   0.747   4.538   0.769  1.2002  1.2742  1.0360
  125MOL    C7225120   0.909   4.221   0.900  0.4048 -0.0006 -0.0500
  125MOL    C7325121   0.825   4.164   0.778  0.3034 -0.2364 -0.8507
  125MOL    C7425122   0.785   4.018   0.811  1.0196  0.2230 -0.2129
  125MOL    O7525123   0.869   3.934   0.838 -0.7076  0.3829 -0.5300
  125MOL    N7625124   0.653   3.998   0.811  0.2714  0.1593  0.2267
  125MOL    H7725125   0.885   4.181   0.999  0.4379  1.0074  0.3671
  125MOL    H7825126   1.009   4.180   0.888  0.8094  0.8789  0.2866
  125MOL    H7925127   0.734   4.222   0.765  0.7351  1.3875  2.9037
  125MOL    H8025128   0.588   4.071   0.787 -0.7220 -0.5259  0.8058
  125MOL    H8125129   0.622   3.906   0.837  1.3233 -0.7287 -1.5662
  125MOL    C8225130   0.914   4.185   0.648 -0.2945 -0.3789 -0.1166
  125MOL    C8325131   0.857   4.209   0.508 -0.0708  0.4973 -0.4297
  125MOL    C8425132   0.763   4.096   0.469  0.4454  0.2206  0.5727
  125MOL    O8525133   0.785   3.973   0.483 -0.3332  0.2052 -0.3250
  125MOL    N8625134   0.652   4.130   0.403  0.6147  0.2108  0.1527
  125MOL    H8725135   0.993   4.109   0.640  1.1984  1.3140 -2.0156
  125MOL    H8825136   0.978   4.273   0.662  1.3525 -1.3602 -1.2219
  125MOL    H8925137   0.803   4.303   0.511  1.7254  1.5456  0.2036
  125MOL    H9025138   0.595   4.052   0.373  1.2298  0.0738 -0.6736
  125MOL    H9125139   0.609   4.222   0.397 -1.2139 -0.7144 -1.5386
  125MOL    C9225140   0.957   4.235   0.389 -0.0375 -0.0500 -0.5310
  125MOL    C9325141   1.004   4.128   0.286 -0.5767 -0.1729 -0.9473
  125MOL    C9425142   1.107   4.033   0.346  0.2498 -0.3876 -0.1703
  125MOL    O9525143   1.226   4.055   0.344  0.0590  0.1542  0.3188
  125MOL    N9625144   1.063   3.921   0.396 -0.3476  0.0651 -0.5386
  125MOL    H9725145   1.047   4.287   0.424 -0.4046 -0.4721  1.0874
  125MOL    H9825146   0.903   4.304   0.324 -0.0212 -0.5682 -1.1020
  125MOL    H9925147   0.917   4.073   0.249  1.0340 -1.4226 -2.9627
  125MOL   H10025148   1.125   3.869   0.457 -1.0899 -0.4744 -0.2352
  125MOL   H10125149   0.965   3.919   0.421 -0.3720  2.5495 -0.3110
  125MOL   C10225150   1.044   4.202   0.157 -0.3268 -0.3730 -0.1013
  125MOL   C10325151   1.093   4.120   0.035 -0.4816 -0.5702  0.8023
  125MOL   C10425152   1.166   4.216   7.597 -0.1498 -0.8377 -0.6195
  125MOL   O10525153   1.128   4.334   7.593 -0.5078  0.9361 -0.2177
  125MOL   N10625154   1.266   4.165   7.529 -0.4045  0.3384 -0.6871
  125MOL   H10725155   1.109   4.284   0.189  0.2311 -0.2614 -1.4754
  125MOL   H10825156   0.959   4.261   0.123 -0.1664  0.4464  0.9057
  125MOL   H10925157   1.159   4.040   0.070  2.3812  1.4635  0.2561
  125MOL   H11025158   1.298   4.071   7.548 -0.8129  0.4381  0.5236
  125MOL   H11125159   1.332   4.218   7.474 -0.5870  0.7507 -0.5117
  125MOL   C11225160   0.974   4.045   7.628  0.5304 -0.4331  0.8508
  125MOL   C11325161   1.021   3.918   7.557  0.2378 -0.3073 -0.6417
  125MOL   C11425162   0.930   3.873   7.446 -0.0435 -0.2380 -0.5595
  125MOL   O11525163   0.958   3.790   7.358 -0.5574 -0.2769  0.0518
  125MOL   N11625164   0.807   3.913   7.456 -0.0881 -0.0607 -0.3167
  125MOL   H11725165   0.928   4.115   7.558  0.7875 -0.6779  0.4312
  125MOL   H11825166   0.899   4.021   0.047 -1.6124  0.3132 -0.9810
  125MOL   H11925167   1.109   3.954   7.503 -0.0198  1.8114  0.3066
  125MOL   H12025168   0.781   3.977   7.530 -0.0081 -1.5798  1.0516
  125MOL   H12125169   0.726   3.866   7.418 -0.6292  1.1741 -0.7411
  125MOL   C12225170   1.048   3.802   0.007  0.2964 -0.4016  0.4630
  125MOL   C12325171   1.176   3.714   7.652 -0.0237  0.2120 -0.0103
  125MOL   C12425172   1.296   3.818   0.009 -0.1807 -0.4899 -0.9205
  125MOL   O12525173   1.333   3.870   7.560 -0.0221 -0.7787  0.0486
  125MOL   N12625174   1.359   3.839   0.130 -0.0624 -0.2975  0.0102
  125MOL   H12725175   0.962   3.735   0.004 -0.1374  0.2147 -1.6363
  125MOL   H12825176   1.059   3.848   0.105 -0.1697 -1.4950  1.0360
  125MOL   H12925177   1.181   3.645   0.079 -1.3737  0.4926  0.3128
  125MOL   H13025178   1.326   3.810   0.221  0.5752  2.5121  1.2119
  125MOL   H13125179   1.437   3.903   0.136 -1.4760  1.6060 -1.4149
  125MOL   C13225180   1.183   3.631   7.525 -0.2912 -0.2835  0.4030
  125MOL   C13325181   1.263   3.504   7.535 -0.2776 -0.1146  0.1106
  125MOL   C13425182   1.312   3.457   7.398 -0.6825 -0.6483  0.2632
  125MOL   O13525183   1.240   3.452   7.302 -0.2177 -0.5056 -0.4226
  125MOL   N13625184   1.437   3.415   7.388  0.4276  0.1090 -0.0105
  125MOL   H13725185   1.204   3.696   7.440  0.5099 -0.2068  0.6465
  125MOL   H13825186   1.084   3.603   7.492  0.0360 -2.3475  1.1447
  125MOL   H13925187   1.346   3.527   7.601 -1.2553  1.2018  0.8907
  125MOL   H14025188   1.501   3.428   7.465  1.0653  0.2151 -0.5638
  125MOL   H14125189   1.479   3.393   7.299  1.1376 -1.9181  0.7873
  125MOL   C14225190   1.170   3.392   7.601  0.4139  0.0657 -0.3122
  125MOL   C14325191   1.240   3.268   0.007 -0.8355  0.3002  0.1183
  125MOL   C14425192   1.142   3.187   0.088  0.1920 -0.3067 -1.1174
  125MOL   O14525193   1.158   3.154   0.206  0.3312  0.3720 -0.5454
  125MOL   N14625194   1.028   3.158   0.030  0.3063  0.3046 -1.2257
  125MOL   H14725195   1.096   3.370   7.523  0.3989  2.7403 -1.0966
  125MOL   H14825196   1.112   3.437   0.025  1.4696  0.8916 -0.0080
  125MOL   H14925197   1.255   3.199   7.581 -0.0824  1.7204 -0.9308
  125MOL   H15025198   1.006   3.209   7.603 -0.9287  0.0649 -1.0572
  125MOL   H15125199   0.953   3.110   0.078  1.2618  0.7593  0.7506
  125MOL   C15225200   1.386   3.287   0.067  0.1502  0.9330  0.1127
  125MOL   C15325201   1.390   3.401   0.180  0.4301  0.5782 -0.6827
  125MOL   C15425202   1.524   3.466   0.189 -0.2605  0.3258 -0.1692
  125MOL   O15525203   1.628   3.407   0.158 -0.5862 -0.0277  0.0362
  125MOL   N15625204   1.530   3.587   0.237  0.5095  0.6596 -0.0935
  125MOL   H15725205   1.451   3.317   7.641  2.2080 -1.2077  0.9027
  125MOL   H15825206   1.432   3.190   0.085  1.3569  1.6552  0.9937
  125MOL   H15925207   1.324   3.479   0.143  0.3061  0.1877 -1.3010
  125MOL   H16025208   1.621   3.632   0.239  1.1540 -0.6616  2.3099
  125MOL   H16125209   1.449   3.628   0.281  0.9241  0.7696  0.5827
  125MOL   C16225210   1.344   3.360   0.321 -0.3134  0.1329  0.1605
  125MOL   C16325211   1.214   3.422   0.386  0.1190  0.6018  0.4309
  125MOL   C16425212   1.188   3.571   0.360  0.5310  0.1597  0.3851
  125MOL   O16525213   1.280   3.644   0.369 -0.1411  0.6418 -0.2349
  125MOL   N16625214   1.068   3.621   0.331 -0.0216  0.2594  0.1831
  125MOL   H16725215   1.427   3.388   0.385 -0.1418  2.1649 -0.9082
  125MOL   H16825216   1.352   3.252   0.335  1.3952  0.4450  1.8268
  125MOL   H16925217   1.124   3.378   0.343  0.4377 -0.0364  0.4044
  125MOL   H17025218   1.044   3.717   0.311 -1.3022  0.0739  0.7916
  125MOL   H17125219   1.001   3.547   0.318  0.7678 -0.8317  2.0601
  125MOL   C17225220   1.208   3.404   0.542  0.2482 -0.3469  0.5152
  125MOL   C17325221   1.130   3.276   0.583 -0.0644  0.3451  0.3664
  125MOL   C17425222   0.981   3.301   0.611 -0.1295 -0.2877 -0.4776
  125MOL   O17525223   0.945   3.372   0.705 -0.3833 -0.1160  0.2909
  125MOL   N17625224   0.896   3.242   0.533 -0.0782  0.0823  0.1367
  125MOL   H17725225   1.146   3.486   0.579  0.6269 -0.5864  1.6953
  125MOL   H17825226   1.308   3.418   0.581 -0.5127  0.1832  2.2986
  125MOL   H17925227   1.134   3.202   0.502 -0.7238  1.8220 -1.0367
  125MOL   H18025228   0.919   3.179   0.458  1.0935  0.6510  0.0072
  125MOL   H18125229   0.798   3.262   0.552 -0.2644 -0.6717 -0.0320
  125MOL   C18225230   1.190   3.217   0.707  0.3387 -0.9014  0.3279
  125MOL   C18325231   1.340   3.177   0.706 -0.5399 -0.1585 -0.0440
  125MOL   C18425232   1.359   3.066   0.593 -0.2940 -1.0215  0.1206
  125MOL   O18525233   1.301   2.959   0.601 -0.0205  0.3622  0.5185
  125MOL   N18625234   1.454   3.079   0.498 -0.3762 -0.3606  0.7264
  125MOL   H18725235   1.129   3.134   0.742 -1.1413  0.5541  1.2620
  125MOL   H18825236   1.175   3.288   0.788 -1.2605  1.4295 -1.9377
  125MOL   H18925237   1.404   3.261   0.678  1.3527 -1.8754 -1.0406
  125MOL   H19025238   1.487   3.002   0.441  2.0064  0.2656  1.1930
  125MOL   H19125239   1.508   3.164   0.502  0.3397 -0.6717 -1.4355
  125MOL   C19225240   1.374   3.132   0.850 -0.5153  0.2820  0.6259
  125MOL   C19325241   1.524   3.079   0.861  0.8275  0.4222 -0.2308
  125MOL   C19425242   1.581   3.077   1.001 -0.7777 -0.3660 -0.3258
  125MOL   O19525243   1.631   3.178   1.050  0.0872  0.3170 -0.7317
  125MOL   N19625244   1.580   2.962   1.068  0.0938  0.1559 -0.0416
  125MOL   H19725245   1.304   3.049   0.861  0.9050 -1.3668 -2.1943
  125MOL   H19825246   1.354   3.205   0.928  2.5865  1.0514  0.7585
  125MOL   H19925247   1.540   2.977   0.826  0.9550  0.9170 -1.6442
  125MOL   H20025248   1.623   2.965   1.160  0.4971 -0.1285 -0.2168
  125MOL   H20125249   1.549   2.879   1.019  1.5705 -0.0196 -0.7200
  125MOL   H20225250   1.588   3.137   0.795  2.1655  0.0768  0.7345
  126MOL     C125251   7.446   7.510   1.726 -0.2603  0.8550 -0.2754
  126MOL     C225252   7.492   7.450   1.594  0.0300 -0.4211  0.2923
  126MOL     C325253   7.462   7.544   1.479 -0.1854  0.8599  0.4948
  126MOL     O425254   7.368   7.527   1.400  0.0751  0.4220  0.0529
  126MOL     N525255   7.542   7.650   1.468 -0.4010 -0.1130  0.3395
  126MOL     H625256   7.498   7.464   1.810  0.0306  0.0566 -0.8740
  126MOL     H725257   7.469   7.616   1.738 -1.0256  0.9776  0.1387
  126MOL     H825258   7.600   7.445   1.610  0.2071  3.0736  0.4791
  126MOL     H925259   7.540   0.040   1.379  1.8723 -1.8048 -0.6558
  126MOL    H1025260   7.626   0.002   1.525  0.0220  0.0205 -0.3025
  126MOL    H1125261   7.338   7.499   1.735 -0.5192  0.7267 -3.0945
  126MOL    C1225262   7.436   7.313   1.575 -0.3726 -0.1482  0.2731
  126MOL    C1325263   7.519   7.225   1.473  0.3320  0.2223  0.0716
  126MOL    C1425264   7.436   7.111   1.401  0.0051 -0.2131  0.6826
  126MOL    O1525265   7.335   7.060   1.447  0.3075 -0.1010 -0.2432
  126MOL    N1625266   7.488   7.048   1.295 -0.2023  0.1546  0.3115
  126MOL    H1725267   7.335   7.314   1.534 -0.0072  1.0806 -0.6109
  126MOL    H1825268   7.431   7.261   1.670 -0.1627  1.0482  0.9448
  126MOL    H1925269   7.535   7.292   1.389  1.9051 -0.4467 -0.1667
  126MOL    H2025270   7.439   6.972   1.250 -0.5340 -1.2288  2.8768
  126MOL    H2125271   7.554   7.101   1.239 -1.4951  1.8915  0.3999
  126MOL    C2225272   7.644   7.168   1.522 -0.2886  0.5401  0.2348
  126MOL    C2325273   7.647   7.054   1.629  0.2409  0.5817 -0.2693
  126MOL    C2425274   7.636   7.121   1.769 -0.4967 -0.3658  0.2950
  126MOL    O2525275   0.078   7.177   1.820  0.3578  0.9485  0.3820
  126MOL    N2625276   7.524   7.101   1.840  0.0459  0.2284 -0.0213
  126MOL    H2725277   0.057   7.243   1.558 -2.0240  3.1102 -1.5307
  126MOL    H2825278   0.035   7.126   1.434 -2.2907 -1.3021 -0.0257
  126MOL    H2925279   7.563   6.985   1.618 -0.2984  0.8671  1.9580
  126MOL    H3025280   7.529   7.154   1.926  3.2735  0.0714 -0.0212
  126MOL    H3125281   7.443   7.051   1.808 -0.4490  1.5106 -0.8192
  126MOL    C3225282   0.116   6.961   1.627  0.3290  0.5364  0.8844
  126MOL    C3325283   0.123   6.869   1.508  0.2592 -1.1749 -1.0983
  126MOL    C3425284   0.005   6.768   1.518 -0.4176  0.6844  0.0552
  126MOL    O3525285   0.013   6.670   1.584 -0.4711  0.0877 -0.3324
  126MOL    N3625286   7.559   6.790   1.439 -0.4565 -0.7010  0.1215
  126MOL    H3725287   0.130   6.914   1.724  1.2658 -2.7283 -0.7643
  126MOL    H3825288   0.197   7.033   1.613  0.9078  0.0562  1.7400
  126MOL    H3925289   0.105   6.923   1.415 -2.2996  1.3916  0.8073
  126MOL    H4025290   7.570   6.862   1.369 -0.0999 -1.6842 -0.8314
  126MOL    H4125291   7.479   6.729   1.439  0.1426 -1.5072  1.1141
  126MOL    C4225292   0.262   6.808   1.502  0.7052  0.5398 -0.4913
  126MOL    C4325293   0.273   6.718   1.379 -0.6598 -0.5470  0.2977
  126MOL    C4425294   0.393   6.621   1.397 -0.6250 -0.6249 -0.0061
  126MOL    O4525295   0.472   6.624   1.487  0.0945  0.8190  0.4207
  126MOL    N4625296   0.412   6.534   1.300  0.1356 -0.0427 -0.2634
  126MOL    H4725297   0.270   6.741   1.587 -2.0487  3.0275  1.8624
  126MOL    H4825298   0.343   6.878   1.524  2.4300 -1.1877 -1.1381
  126MOL    H4925299   0.190   6.647   1.381 -1.4069  0.2378 -1.8374
  126MOL    H5025300   0.343   6.544   1.226 -0.6066 -0.7032  0.3375
  126MOL    H5125301   0.482   6.463   1.288  0.2223 -0.0409  0.2171
  126MOL    C5225302   0.269   6.793   1.246  0.5644 -0.2504 -0.0311
  126MOL    C5325303   0.145   6.779   1.151  0.4669  0.5828 -0.9002
  126MOL    C5425304   0.114   6.632   1.126  0.7035 -0.3173  0.0949
  126MOL    O5525305   0.202   6.547   1.112 -0.7955  0.1510 -0.0756
  126MOL    N5625306   7.648   6.599   1.150  0.9266 -0.0559  0.2771
  126MOL    H5725307   0.360   6.786   1.186  0.9500 -1.7799  0.7161
  126MOL    H5825308   0.270   6.899   1.272 -0.2058 -0.9574  3.0855
  126MOL    H5925309   0.060   6.816   1.208  1.5581 -1.1472  1.9922
  126MOL    H6025310   7.642   6.499   1.159 -0.6553 -0.3298 -3.0695
  126MOL    H6125311   7.571   6.664   1.157 -0.6429 -1.7922 -0.6825
  126MOL    C6225312   0.158   6.865   1.022  0.0379  0.0443 -0.1566
  126MOL    C6325313   0.046   6.855   0.916 -0.4614  0.4541 -0.5069
  126MOL    C6425314   7.554   6.857   0.959  0.9098  0.4738  0.3868
  126MOL    O6525315   7.520   6.851   1.076 -0.0523  0.3998  0.2206
  126MOL    N6625316   7.460   6.854   0.870 -0.2924  0.0871 -0.0508
  126MOL    H6725317   0.259   6.861   0.981  0.6755  2.6435  1.0743
  126MOL    H6825318   0.147   6.966   1.061 -1.3447 -0.1011 -0.1254
  126MOL    H6925319   0.048   6.953   0.869 -0.1923  0.7765  0.1720
  126MOL    H7025320   7.363   6.869   0.892  0.3400  2.1472  1.3995
  126MOL    H7125321   7.487   6.838   0.774 -1.7045  0.6156 -0.5390
  126MOL    C7225322   0.080   6.745   0.801  0.2992  0.0207 -0.0576
  126MOL    C7325323   0.155   6.790   0.669 -0.1517 -0.2736  0.3831
  126MOL    C7425324   0.062   6.859   0.577 -0.0913 -0.3689  0.6315
  126MOL    O7525325   7.598   6.834   0.562 -0.5636 -0.5459 -0.1962
  126MOL    N7625326   0.103   6.970   0.531  0.5854  0.3460 -0.0222
  126MOL    H7725327   7.642   6.691   0.793  1.3888 -1.9005 -0.5356
  126MOL    H7825328   0.148   6.671   0.845  0.4788  0.3136  0.1544
  126MOL    H7925329   0.234   6.862   0.694  1.0996 -0.9209 -1.5757
  126MOL    H8025330   0.046   7.018   0.462  0.9540  0.9080  0.0574
  126MOL    H8125331   0.201   6.994   0.522  1.3147 -1.9293  1.3245
  126MOL    C8225332   0.221   6.659   0.602 -0.1304 -0.7483 -0.0583
  126MOL    C8325333   0.346   6.652   0.509 -0.5214 -0.5249  0.2485
  126MOL    C8425334   0.430   6.780   0.525  0.3369 -0.3128 -0.6238
  126MOL    O8525335   0.420   6.876   0.454 -0.7608 -0.2152 -0.1027
  126MOL    N8625336   0.518   6.773   0.627  0.2661 -0.3644 -0.2756
  126MOL    H8725337   0.124   6.621   0.569 -1.2483  0.8111  1.2937
  126MOL    H8825338   0.239   6.579   0.674 -1.8323 -0.5354  0.6158
  126MOL    H8925339   0.405   6.566   0.542  2.2382  0.6862 -1.3632
  126MOL    H9025340   0.544   6.693   0.682 -0.7610 -0.6807 -0.2422
  126MOL    H9125341   0.551   6.862   0.662 -1.2204  0.5453 -1.0887
  126MOL    C9225342   0.309   6.634   0.363  0.5155  0.3877 -0.4081
  126MOL    C9325343   0.256   6.489   0.338  0.5055 -0.2160  0.1576
  126MOL    C9425344   0.359   6.376   0.358 -0.3289 -0.5439 -0.0785
  126MOL    O9525345   0.442   6.353   0.274  0.2468 -0.3073  0.6365
  126MOL    N9625346   0.358   6.313   0.478 -0.2523  0.6120  0.5957
  126MOL    H9725347   0.398   6.644   0.302  0.3685 -0.5326 -0.7737
  126MOL    H9825348   0.237   6.710   0.333  3.5928  2.5940 -2.5211
  126MOL    H9925349   0.172   6.473   0.407 -0.4366  1.5070 -0.5373
  126MOL   H10025350   0.293   6.349   0.546 -0.4622 -0.6772  1.0874
  126MOL   H10125351   0.422   6.237   0.496 -0.9853  0.2100  1.5036
  126MOL   C10225352   0.195   6.481   0.194 -0.7560 -0.6271  0.6696
  126MOL   C10325353   0.072   6.573   0.149  0.5004 -0.1756 -0.1530
  126MOL   C10425354   7.641   6.605   0.267  0.1991  0.4228 -0.6715
  126MOL   O10525355   7.577   6.514   0.320  0.1041 -0.1816 -0.5131
  126MOL   N10625356   7.634   6.730   0.307  0.4570  0.1157  0.1388
  126MOL   H10725357   0.172   6.375   0.185 -0.6596 -0.5921 -0.0155
  126MOL   H10825358   0.274   6.491   0.120 -1.7658  0.4526 -0.2910
  126MOL   H10925359   0.108   6.669   0.113  0.8526 -1.0750 -2.2381
  126MOL   H11025360   0.041   6.793   0.261  2.2888 -0.7290  1.4548
  126MOL   H11125361   7.604   6.761   0.398  1.7457 -0.1073  0.6546
  126MOL   C11225362   7.645   6.503   0.031 -0.1108  0.0603  0.1201
  126MOL   C11325363   7.587   6.595   7.576  0.0815 -0.3351 -0.9236
  126MOL   C11425364   0.040   6.626   7.477  0.1350  0.0847  0.0840
  126MOL   O11525365   0.125   6.705   7.519  0.5069 -0.4986 -0.1167
  126MOL   N11625366   0.045   6.553   7.361  0.4058  0.3905 -0.0273
  126MOL   H11725367   7.571   6.434   0.073 -1.0764 -0.5878 -2.5284
  126MOL   H11825368   0.054   6.431   7.639  0.0925  1.1551 -1.2329
  126MOL   H11925369   7.515   6.535   7.521  0.8224 -0.7380 -1.4756
  126MOL   H12025370   0.125   6.551   7.300 -0.4281  0.2160 -1.1322
  126MOL   H12125371   7.631   6.481   7.351 -0.1433  0.5540  2.3433
  126MOL   C12225372   7.513   6.725   7.625  0.8306  0.2079  0.7198
  126MOL   C12325373   7.449   6.806   7.514 -0.8739  0.1169  0.1410
  126MOL   C12425374   7.524   6.942   7.487  0.5818 -0.3233  0.4218
  126MOL   O12525375   7.504   7.039   7.560 -0.1584  0.8825  0.6993
  126MOL   N12625376   7.610   6.946   7.381 -0.1494 -0.5280  0.0240
  126MOL   H12725377   7.579   6.783   0.032  1.0375 -1.0917  1.7092
  126MOL   H12825378   7.438   6.702   0.044  2.4755 -1.4290  1.9099
  126MOL   H12925379   7.463   6.766   7.414  0.6627 -1.4050  0.9635
  126MOL   H13025380   7.637   6.856   7.344  2.1580  0.2620 -0.3084
  126MOL   H13125381   0.003   7.033   7.373 -0.4727 -0.2035  1.3217
  126MOL   C13225382   7.292   6.822   7.533 -0.3308  0.3149  0.2362
  126MOL   C13325383   7.204   6.690   7.548 -0.2161  0.4308  0.5546
  126MOL   C13425384   7.233   6.576   7.448  0.1106  0.2602  0.7505
  126MOL   O13525385   7.301   6.599   7.350  0.3800  0.4910 -0.2253
  126MOL   N13625386   7.172   6.459   7.466 -0.1321 -0.1711 -0.3646
  126MOL   H13725387   7.249   6.856   7.439  1.2312  0.6984 -0.3434
  126MOL   H13825388   7.274   6.889   7.617  0.3719  1.1572 -0.2898
  126MOL   H13925389   7.237   6.644   7.641  0.5408  2.4488  1.3217
  126MOL   H14025390   7.187   6.381   7.403 -1.4806 -0.0568 -0.8543
  126MOL   H14125391   7.116   6.444   7.548 -1.2788  0.2860 -1.0564
  126MOL   C14225392   7.055   6.720   7.569 -0.3648  0.8058 -0.2296
  126MOL   C14325393   6.967   6.798   7.463 -0.4127  0.8524  0.3612
  126MOL   C14425394   6.840   6.847   7.535  0.4038 -0.3874  0.1222
  126MOL   O14525395   6.798   6.795   7.640  0.2509 -0.2962 -0.1339
  126MOL   N14625396   6.773   6.953   7.491  0.4656  0.6131  0.1571
  126MOL   H14725397   7.049   6.766   0.011 -0.6410 -1.0281  0.6273
  126MOL   H14825398   7.011   6.621   7.584  1.5019 -0.0661 -0.3799
  126MOL   H14925399   7.012   6.882   7.411 -2.0189  1.0084 -0.8334
  126MOL   H15025400   6.697   6.979   7.552  0.4868  1.9523 -0.3861
  126MOL   H15125401   6.803   7.006   7.410  0.2128 -1.0786 -1.0822
  126MOL   C15225402   6.918   6.702   7.355  0.6448 -0.4167 -0.3207
  126MOL   C15325403   6.990   6.699   7.221 -0.0926  0.3619 -0.0878
  126MOL   C15425404   6.934   6.811   7.134  0.2506  0.8366 -0.4348
  126MOL   O15525405   6.814   6.839   7.137 -0.5129 -0.3824 -0.3984
  126MOL   N15625406   7.021   6.875   7.060  0.1333  0.6040  0.2796
  126MOL   H15725407   6.814   6.731   7.341  0.9653  0.1051 -1.7912
  126MOL   H15825408   6.914   6.600   7.393  1.7431  0.0375  1.0660
  126MOL   H15925409   7.094   6.722   7.244 -0.6125  2.5172  0.1977
  126MOL   H16025410   6.988   6.949   6.999  1.5417  2.6797  1.9820
  126MOL   H16125411   7.117   6.844   7.059  0.2493  0.8462  2.2195
  126MOL   C16225412   6.978   6.555   7.162 -0.4179  0.2439 -0.4320
  126MOL   C16325413   7.059   6.527   7.027 -0.1489 -0.1492  0.0961
  126MOL   C16425414   6.973   6.554   6.899 -0.3989 -0.1189 -0.2173
  126MOL   O16525415   6.850   6.537   6.905  0.3080 -0.2713 -0.2240
  126MOL   N16625416   7.035   6.597   6.791  0.1023  0.4616  0.4215
  126MOL   H16725417   6.874   6.525   7.156 -1.1381  1.9206  2.4647
  126MOL   H16825418   7.007   6.481   7.237 -1.2211  2.3898  2.1022
  126MOL   H16925419   7.147   6.592   7.034 -0.5789  0.2136  2.4731
  126MOL   H17025420   6.976   6.635   6.719  0.5532  0.3872  0.0135
  126MOL   H17125421   7.136   6.601   6.783  0.2971  0.5309  2.5562
  126MOL   C17225422   7.102   6.383   7.014  0.3647 -0.2552 -0.5945
  126MOL   C17325423   7.213   6.330   7.107 -0.1486  0.2231  0.3443
  126MOL   C17425424   7.351   6.373   7.054  0.3003  0.2355 -0.0580
  126MOL   O17525425   7.402   6.330   6.945  1.2588 -0.8412 -0.3202
  126MOL   N17625426   7.414   6.463   7.130  0.1665  0.3856  0.3256
  126MOL   H17725427   7.122   6.346   6.914  0.2181 -0.1285 -0.6692
  126MOL   H17825428   7.011   6.338   7.054  1.5015 -0.1056  2.2822
  126MOL   H17925429   7.204   6.358   7.212 -0.4562 -0.2062  0.4284
  126MOL   H18025430   7.374   6.496   7.217 -2.8721 -0.7470 -0.5530
  126MOL   H18125431   7.506   6.486   7.095  0.3482 -0.1526  0.4393
  126MOL   C18225432   7.222   6.175   7.104 -0.4505  0.5903 -0.8697
  126MOL   C18325433   7.091   6.109   7.161  0.0118  0.1124 -0.1108
  126MOL   C18425434   7.044   6.154   7.299 -0.5732 -0.1477  0.1416
  126MOL   O18525435   7.127   6.167   7.387  0.0185  0.4378 -0.0431
  126MOL   N18625436   6.917   6.179   7.318 -0.0834 -0.2732  0.5088
  126MOL   H18725437   7.308   6.140   7.160 -1.0607 -0.5385 -0.6289
  126MOL   H18825438   7.232   6.142   7.000  0.4775  0.1488 -0.6386
  126MOL   H18925439   7.006   6.131   7.098 -0.5744  1.8936  1.2560
  126MOL   H19025440   6.836   6.170   7.258  0.6362  0.3287 -0.5848
  126MOL   H19125441   6.910   6.219   7.410  1.4742  1.7551 -0.1996
  126MOL   C19225442   7.103   5.952   7.149  0.1229  0.3930 -0.7654
  126MOL   C19325443   7.059   5.890   7.018 -0.1899 -0.8020  0.2337
  126MOL   C19425444   7.062   5.728   7.023 -0.0055 -0.7910 -0.4035
  126MOL   O19525445   7.170   5.669   7.037  0.6761 -0.1848  0.0321
  126MOL   N19625446   6.946   5.662   7.008 -0.0190  0.1625  0.2416
  126MOL   H19725447   7.038   5.913   7.227  0.3398  1.7583  0.1090
  126MOL   H19825448   7.203   5.929   7.186 -0.3479  1.0955  0.9774
  126MOL   H19925449   6.952   5.909   7.015  0.3069  2.1830 -0.5018
  126MOL   H20025450   6.942   5.562   7.019  0.8407  0.2325  1.3206
  126MOL   H20125451   6.864   5.714   6.980  0.3260 -0.2402 -1.5612
  126MOL   H20225452   7.105   5.942   6.934 -0.0576  0.9774  1.3732
  127MOL     C125453   2.776   5.435   5.729 -0.2275 -0.3806  0.3419
  127MOL     C225454   2.890   5.362   5.802 -0.3950 -0.0889 -0.1540
  127MOL     C325455   2.946   5.432   5.927 -0.1288  0.5826 -0.1063
  127MOL     O425456   3.035   5.518   5.920  0.5510 -0.2377  0.0855
  127MOL     N525457   2.907   5.382   6.042  0.0730  0.2147 -0.3910
  127MOL     H625458   2.817   5.522   5.678  1.2229 -1.1208  0.2300
  127MOL     H725459   2.735   5.376   5.648 -2.5131  1.0017  0.4342
  127MOL     H825460   2.837   5.277   5.844  0.5202 -1.2355 -1.2771
  127MOL     H925461   2.930   5.431   6.128  1.2864 -0.5295 -0.2868
  127MOL    H1025462   2.831   5.316   6.043  0.6952 -0.4944  0.7961
  127MOL    H1125463   2.690   5.466   5.788 -0.8503 -0.0735 -0.7144
  127MOL    C1225464   3.005   5.328   5.703  0.4234 -0.0398  0.2524
  127MOL    C1325465   2.968   5.229   5.587  0.4859 -0.3257  0.0664
  127MOL    C1425466   2.938   5.092   5.651  0.0892  0.9237 -0.2944
  127MOL    O1525467   2.850   5.020   5.607  0.1211  0.2559  0.1451
  127MOL    N1625468   3.009   5.040   5.749  0.0529  0.0323 -0.5471
  127MOL    H1725469   3.094   5.284   5.748 -1.0877 -1.6992  1.7183
  127MOL    H1825470   3.040   5.421   5.660 -0.7621  0.4499  0.3280
  127MOL    H1925471   2.878   5.259   5.533  0.2339  0.4361  0.8972
  127MOL    H2025472   2.969   4.957   5.790  1.6546 -0.1527  0.6794
  127MOL    H2125473   3.071   5.105   5.796 -0.8521 -0.4391  1.3584
  127MOL    C2225474   3.074   5.214   5.481 -0.3192 -0.5495 -0.6263
  127MOL    C2325475   3.091   5.338   5.387  0.3389  0.1759  0.0906
  127MOL    C2425476   2.966   5.346   5.296  0.8352  0.0212 -0.2692
  127MOL    O2525477   2.907   5.236   5.258  0.0370 -0.0070 -0.0951
  127MOL    N2625478   2.944   5.468   5.253 -0.0381  0.3851 -0.1045
  127MOL    H2725479   3.061   5.124   5.421 -1.0163 -0.1394 -1.0983
  127MOL    H2825480   3.167   5.183   5.528 -0.1072  0.9201 -0.0695
  127MOL    H2925481   3.088   5.426   5.452  0.5617 -2.0406  3.2359
  127MOL    H3025482   2.864   5.496   5.198  0.1634 -0.9566 -1.1198
  127MOL    H3125483   3.013   5.536   5.282  1.0056 -0.4726 -0.5416
  127MOL    C3225484   3.220   5.352   5.304  0.3512 -0.9686 -0.3983
  127MOL    C3325485   3.253   5.264   5.177 -0.3542  0.4433  0.1281
  127MOL    C3425486   3.267   5.119   5.200  0.8651 -0.1564  0.3381
  127MOL    O3525487   3.336   5.078   5.293  0.0428 -0.7435  0.1269
  127MOL    N3625488   3.196   5.040   5.119 -0.4322  0.7321  0.0914
  127MOL    H3725489   3.304   5.338   5.372  0.3917 -4.1151 -1.0136
  127MOL    H3825490   3.225   5.457   5.275  0.1277 -0.8182  0.1095
  127MOL    H3925491   3.161   5.272   5.119 -0.4484 -0.1074  0.1971
  127MOL    H4025492   3.131   5.081   5.055 -2.0705 -1.7932  0.0856
  127MOL    H4125493   3.195   4.941   5.141 -1.0523  1.0277  1.4897
  127MOL    C4225494   3.380   5.330   5.110  0.2880 -0.3535 -0.6077
  127MOL    C4325495   3.447   5.282   4.975 -0.0648 -0.3325  0.1157
  127MOL    C4425496   3.354   5.238   4.866  0.5162 -1.1558 -0.5650
  127MOL    O4525497   3.308   5.125   4.862  0.1037 -0.4154  0.3396
  127MOL    N4625498   3.318   5.327   4.773  0.1138  0.0092  0.7122
  127MOL    H4725499   3.462   5.330   5.182 -0.3653 -1.1869  0.1529
  127MOL    H4825500   3.342   5.431   5.102 -2.5326 -1.4478 -1.8160
  127MOL    H4925501   3.498   5.372   4.942 -0.5500 -0.7022 -1.7362
  127MOL    H5025502   3.282   5.287   4.688  0.4492 -0.0665  0.6073
  127MOL    H5125503   3.331   5.427   4.769 -0.4473  0.0279 -0.7136
  127MOL    C5225504   3.561   5.174   5.010  0.0369 -0.1933 -0.2610
  127MOL    C5325505   3.628   5.088   4.894 -0.4905  0.0721 -0.4876
  127MOL    C5425506   3.696   4.964   4.955 -0.2801 -1.0377  0.2994
  127MOL    O5525507   3.714   4.871   4.884 -0.3203 -0.0941 -0.2264
  127MOL    N5625508   3.731   4.962   5.080  0.2223 -0.6139 -0.4437
  127MOL    H5725509   3.522   5.107   5.087 -0.0886  2.5062  2.1085
  127MOL    H5825510   3.634   5.233   5.066 -1.1853 -0.5975  1.8044
  127MOL    H5925511   3.547   5.042   4.837  0.0514  0.4722 -1.5994
  127MOL    H6025512   3.785   4.882   5.110 -0.6483 -0.1691  2.4839
  127MOL    H6125513   3.710   5.039   5.142  1.5194 -0.1411 -0.5732
  127MOL    C6225514   3.710   5.177   4.804  0.5610  0.3477  0.5557
  127MOL    C6325515   3.866   5.189   4.817  0.3135 -0.3805 -0.4190
  127MOL    C6425516   3.920   5.250   4.947 -0.4872 -0.4690 -0.0092
  127MOL    O6525517   3.860   5.333   5.010  0.4077 -0.2999 -0.0291
  127MOL    N6625518   4.039   5.211   4.999  0.5009 -0.8339 -0.0981
  127MOL    H6725519   3.663   5.275   4.795 -2.8731 -1.2441  0.4938
  127MOL    H6825520   3.689   5.141   4.703 -1.2491  2.2815  0.2079
  127MOL    H6925521   3.914   5.092   4.803  0.5721 -0.1403 -1.2475
  127MOL    H7025522   4.069   5.251   5.086  3.5647 -0.4126 -1.2897
  127MOL    H7125523   4.077   5.124   4.964  1.5368  0.0878 -1.3155
  127MOL    C7225524   3.926   5.270   4.694  0.4490 -0.6721  0.2886
  127MOL    C7325525   4.056   5.210   4.639  0.2074 -0.1122 -0.5043
  127MOL    C7425526   4.140   5.316   4.563  0.0220  0.1507 -0.2532
  127MOL    O7525527   4.082   5.419   4.526 -0.2543 -0.1928 -0.4050
  127MOL    N7625528   4.269   5.307   4.553  0.1845  0.0059 -0.3173
  127MOL    H7725529   3.947   5.372   4.728  1.5863 -0.6192 -0.5467
  127MOL    H7825530   3.847   5.287   4.620  1.0494  0.8283 -0.0398
  127MOL    H7925531   4.121   5.179   4.721 -1.0935 -2.2300 -0.2469
  127MOL    H8025532   4.303   5.397   4.522  2.5388 -0.3500  1.0889
  127MOL    H8125533   4.329   5.235   4.591 -0.3597 -0.7305 -0.8456
  127MOL    C8225534   4.029   5.093   4.537  0.0149  0.0532 -0.5445
  127MOL    C8325535   4.071   4.952   4.567  0.6236  0.4955  0.0886
  127MOL    C8425536   4.223   4.933   4.591  0.0127 -0.2720 -0.7558
  127MOL    O8525537   4.304   5.024   4.565 -0.0177 -0.2965  0.3839
  127MOL    N8625538   4.259   4.821   4.652 -0.0547  0.1130  0.3950
  127MOL    H8725539   4.059   5.123   4.436 -1.9768  0.1097 -1.1385
  127MOL    H8825540   3.921   5.081   4.524  0.3640 -1.4562 -2.2472
  127MOL    H8925541   4.028   4.946   4.667  0.3575  1.3155  0.0226
  127MOL    H9025542   4.193   4.746   4.662  0.2945 -0.4816 -1.5516
  127MOL    H9125543   4.344   4.823   4.708  2.1625 -0.9182 -2.8156
  127MOL    C9225544   4.004   4.845   4.481  0.3099 -0.0019  0.2131
  127MOL    C9325545   3.893   4.768   4.558  0.4450  0.1380 -0.2536
  127MOL    C9425546   3.955   4.685   4.672  0.6074  0.6717 -0.1438
  127MOL    O9525547   4.045   4.602   4.652 -0.6499  0.1578  0.1265
  127MOL    N9625548   3.917   4.702   4.797  0.1656 -0.2290  0.4083
  127MOL    H9725549   4.074   4.771   4.443  1.3669  1.0943 -0.0017
  127MOL    H9825550   3.960   4.899   4.397 -1.4330 -1.0529  0.4159
  127MOL    H9925551   3.816   4.835   4.597 -1.2302 -1.3136 -0.9887
  127MOL   H10025552   3.842   4.760   4.832  2.0181  2.4565  0.0582
  127MOL   H10125553   3.964   4.652   4.870 -0.7270  0.4057  1.4406
  127MOL   C10225554   3.812   4.681   4.459  0.1790 -0.3615  0.0628
  127MOL   C10325555   3.660   4.650   4.492 -0.4087  0.8783 -0.9778
  127MOL   C10425556   3.632   4.518   4.425  0.8794  0.1700  0.2133
  127MOL   O10525557   3.635   4.505   4.302  0.0215 -0.5172 -0.4748
  127MOL   N10625558   3.594   4.409   4.495 -0.3999  0.4095 -0.0211
  127MOL   H10725559   3.854   4.581   4.457  2.9392  0.6880  2.8102
  127MOL   H10825560   3.833   4.715   4.357  1.7696 -0.4819  0.3455
  127MOL   H10925561   3.646   4.626   4.598 -0.6871 -3.5689 -1.9250
  127MOL   H11025562   3.591   4.410   4.596 -0.7351  2.7415 -0.0279
  127MOL   H11125563   3.548   4.335   4.445  0.2239  0.5316 -0.7837
  127MOL   C11225564   3.598   4.769   4.431  0.5045 -0.2476 -0.5193
  127MOL   C11325565   3.446   4.795   4.445  0.6996  0.5958 -0.3610
  127MOL   C11425566   3.400   4.782   4.590 -0.3258 -0.2587 -0.3898
  127MOL   O11525567   3.355   4.667   4.624 -0.5644  0.0018 -0.3289
  127MOL   N11625568   3.405   4.883   4.679 -0.6698  0.4380 -0.7654
  127MOL   H11725569   3.619   4.766   4.324  0.5000 -2.2313 -0.4932
  127MOL   H11825570   3.651   4.859   4.462 -0.2372  0.0642 -0.1529
  127MOL   H11925571   3.429   4.898   4.412  1.9899  0.3483 -1.8718
  127MOL   H12025572   3.380   4.865   4.775  0.0474 -1.8884 -0.9805
  127MOL   H12125573   3.426   4.974   4.640  2.2789  0.6390  1.0871
  127MOL   C12225574   3.363   4.721   4.338 -1.1015  0.0074  0.1907
  127MOL   C12325575   3.209   4.739   4.338 -0.2502  0.1329 -0.1990
  127MOL   C12425576   3.152   4.687   4.206  0.0506 -0.9106  0.1109
  127MOL   O12525577   3.187   4.733   4.099 -0.6453  0.4165 -0.2299
  127MOL   N12625578   3.063   4.587   4.200 -0.5002  0.0434 -0.0930
  127MOL   H12725579   3.375   4.614   4.352 -1.5293 -0.1327 -0.5236
  127MOL   H12825580   3.390   4.728   4.233 -3.0857 -0.0221 -0.3452
  127MOL   H12925581   3.155   4.682   4.414  0.0913 -0.7571 -0.6061
  127MOL   H13025582   3.000   4.567   4.276 -0.9069  1.2718 -0.0837
  127MOL   H13125583   3.050   4.530   4.118  3.0157 -0.9801  0.0073
  127MOL   C13225584   3.159   4.888   4.352 -0.0785 -0.7015  0.2334
  127MOL   C13325585   3.014   4.922   4.349 -0.6077 -0.5168  0.1841
  127MOL   C13425586   3.001   5.074   4.328 -0.3213  0.3444 -0.0459
  127MOL   O13525587   3.046   5.154   4.410  0.6317  0.1754 -0.2719
  127MOL   N13625588   2.937   5.107   4.214  0.2798 -0.1812 -0.1520
  127MOL   H13725589   3.218   4.950   4.286  0.2087  1.1615  2.1828
  127MOL   H13825590   3.186   4.929   4.450 -1.8734 -0.3278  0.5806
  127MOL   H13925591   2.970   4.872   4.263 -0.1618  0.3173 -0.5372
  127MOL   H14025592   2.898   5.045   4.145  0.5697  0.0008 -0.4855
  127MOL   H14125593   2.955   5.205   4.198  1.9514 -0.2987  0.7701
  127MOL   C14225594   2.938   4.871   4.472 -0.7143 -0.1893  0.4378
  127MOL   C14325595   2.780   4.879   4.473 -0.4580 -0.1197 -0.1663
  127MOL   C14425596   2.706   4.877   4.333  0.3232 -0.4040 -0.3080
  127MOL   O14525597   2.638   4.971   4.289  0.0566 -0.1821  0.6100
  127MOL   N14625598   2.727   4.769   4.264  1.2248  0.3367 -0.7696
  127MOL   H14725599   2.964   4.919   4.567 -0.1846  0.6115 -0.1028
  127MOL   H14825600   2.968   4.768   4.491  0.4813  0.1922  0.6575
  127MOL   H14925601   2.747   4.780   4.505 -1.1132  0.2985  0.4749
  127MOL   H15025602   2.784   4.691   4.295  1.1553 -0.2631 -2.0933
  127MOL   H15125603   2.676   4.769   4.176 -1.1763 -2.2434  0.5347
  127MOL   C15225604   2.719   4.983   4.571  0.1202 -0.6885 -0.7355
  127MOL   C15325605   2.732   4.940   4.723  0.0362  0.1828 -1.0689
  127MOL   C15425606   2.631   4.836   4.758  0.1344  0.3367 -0.0335
  127MOL   O15525607   2.511   4.851   4.736 -0.2204  0.4268 -0.6953
  127MOL   N15625608   2.663   4.729   4.828  0.1925  0.4626 -0.6919
  127MOL   H15725609   2.611   4.997   4.558  0.2973 -0.8864 -2.6555
  127MOL   H15825610   2.779   5.073   4.563  0.5705 -0.6899  2.3674
  127MOL   H15925611   2.830   4.894   4.738 -0.6748 -1.4796 -1.4201
  127MOL   H16025612   2.762   4.714   4.842 -0.0196  0.5033  1.0737
  127MOL   H16125613   2.597   4.666   4.870  1.0653  0.8704  1.3657
  127MOL   C16225614   2.738   5.059   4.824  0.2269  0.4161 -0.0950
  127MOL   C16325615   2.848   5.168   4.800 -0.2941 -0.2865  0.5572
  127MOL   C16425616   2.988   5.105   4.811  0.9182 -0.2073 -0.1568
  127MOL   O16525617   3.022   5.070   4.919 -0.2946  0.1730  0.6910
  127MOL   N16625618   3.065   5.098   4.703 -0.3797 -0.4593 -0.4202
  127MOL   H16725619   2.746   5.015   4.924  2.1076  0.0152 -0.4103
  127MOL   H16825620   2.637   5.098   4.830 -0.1026 -0.5263  0.6218
  127MOL   H16925621   2.822   5.212   4.704  1.9806  1.1223  0.5408
  127MOL   H17025622   3.164   5.102   4.720 -0.1233 -1.3534 -1.6101
  127MOL   H17125623   3.032   5.124   4.611  1.1567 -0.4453 -0.9882
  127MOL   C17225624   2.839   5.281   4.903 -1.1766 -0.2241 -0.5890
  127MOL   C17325625   2.891   5.414   4.837 -0.0360 -0.1593  0.4822
  127MOL   C17425626   2.955   5.497   4.947 -0.8405  0.5788 -0.0788
  127MOL   O17525627   2.900   5.594   4.998 -0.2883 -0.2321 -0.4756
  127MOL   N17625628   3.081   5.470   4.975 -0.1041 -0.3319 -0.5508
  127MOL   H17725629   2.894   5.248   4.991 -0.0412 -0.1677 -1.2701
  127MOL   H17825630   2.736   5.298   4.935 -0.1660  0.9664  2.1506
  127MOL   H17925631   2.967   5.397   4.761 -0.7034  1.5040 -0.5957
  127MOL   H18025632   3.135   5.393   4.939 -1.9107 -1.1584 -1.5396
  127MOL   H18125633   3.128   5.543   5.026 -0.9896  0.9541 -1.5334
  127MOL   C18225634   2.780   5.492   4.761 -0.1056 -0.4080  0.2290
  127MOL   C18325635   2.823   5.622   4.691 -0.2806 -0.7713 -0.2253
  127MOL   C18425636   2.737   5.743   4.748  0.0328  0.2584 -0.1144
  127MOL   O18525637   2.673   5.815   4.680 -0.3809 -0.2081  0.8279
  127MOL   N18625638   2.731   5.760   4.879 -0.2553  0.2620  0.6701
  127MOL   H18725639   2.699   5.516   4.830 -1.7620  0.7095 -2.0430
  127MOL   H18825640   2.733   5.424   4.688  1.0044  0.4337 -1.2837
  127MOL   H18925641   2.921   5.662   4.721 -0.6703 -2.2162  3.2450
  127MOL   H19025642   2.770   5.694   4.944 -1.4482  0.8017  1.9412
  127MOL   H19125643   2.687   5.843   4.916 -4.1536 -0.5662 -1.8298
  127MOL   C19225644   2.820   5.619   4.540 -0.0398  0.1625  0.1994
  127MOL   C19325645   2.904   5.503   4.469  0.5449  0.2339  0.3445
  127MOL   C19425646   3.048   5.558   4.486  0.6161 -0.3230  0.0298
  127MOL   O19525647   3.079   5.653   4.413  0.3590  0.2209  0.1089
  127MOL   N19625648   3.124   5.506   4.582  0.1677 -0.8977 -0.3112
  127MOL   H19725649   2.862   5.716   4.513 -0.7411  0.6043  0.6893
  127MOL   H19825650   2.719   5.612   4.498  0.1643 -2.6130  0.1303
  127MOL   H19925651   2.886   5.404   4.510 -2.0884  1.3683  2.1364
  127MOL   H20025652   3.101   5.417   4.625  1.9374 -2.0146 -1.6422
  127MOL   H20125653   3.211   5.555   4.595 -1.0694  1.6958 -1.3314
  127MOL   H20225654   2.869   5.488   4.367  1.2376 -0.8801  0.2707
  128MOL     C125655   4.134   6.346   1.843  0.2509 -0.2986  0.1899
  128MOL     C225656   4.133   6.437   1.960  0.4230  0.1388 -0.6777
  128MOL     C325657   3.998   6.448   2.026 -0.0456  0.1339 -0.6483
  128MOL     O425658   3.911   6.521   1.981  0.2886 -0.1044  0.1380
  128MOL     N525659   3.983   6.374   2.134 -0.7765  0.0175  0.6537
  128MOL     H625660   4.228   6.291   1.834  0.5486  0.3241 -0.4839
  128MOL     H725661   4.050   6.277   1.835  0.1740  0.1735 -3.8849
  128MOL     H825662   4.197   6.397   2.039 -0.7134  2.6319  1.5994
  128MOL     H925663   4.060   6.321   2.173  1.0871  1.7450 -0.5593
  128MOL    H1025664   3.896   6.371   2.185 -1.4260  2.6383 -0.2486
  128MOL    H1125665   4.137   6.408   1.754 -0.1010 -0.7044 -0.1082
  128MOL    C1225666   4.186   6.576   1.929 -0.1322  0.4067 -1.0237
  128MOL    C1325667   4.195   6.682   2.044 -0.7963 -0.4191 -0.4301
  128MOL    C1425668   4.101   6.801   2.030  0.5502 -0.0252 -0.1367
  128MOL    O1525669   4.134   6.905   1.971  0.3669  0.4878 -0.6254
  128MOL    N1625670   3.985   6.792   2.099 -0.1380 -0.6922 -0.4129
  128MOL    H1725671   4.117   6.618   1.855 -0.7867  2.5300  0.7478
  128MOL    H1825672   4.277   6.566   1.870 -0.0666 -0.7555 -0.7222
  128MOL    H1925673   4.158   6.650   2.142  0.0093  0.7225  0.2660
  128MOL    H2025674   3.955   6.886   2.121  1.6812  0.0973 -1.2848
  128MOL    H2125675   3.964   6.718   2.165 -1.9628 -0.1225 -0.3263
  128MOL    C2225676   4.344   6.735   2.060 -0.3340 -0.0908 -0.0622
  128MOL    C2325677   4.449   6.652   2.135  0.0151 -0.4104  0.5262
  128MOL    C2425678   4.397   6.627   2.277 -0.8810 -0.2210 -0.0721
  128MOL    O2525679   4.408   6.716   2.361 -0.2258  0.2692 -0.3123
  128MOL    N2625680   4.352   6.503   2.313  0.7426 -0.2778 -0.3833
  128MOL    H2725681   4.327   6.834   2.102 -0.1587 -0.4624  0.8964
  128MOL    H2825682   4.371   6.756   1.957 -0.6346  0.6975  0.0183
  128MOL    H2925683   4.459   6.559   2.078  0.5800 -0.5008  0.7700
  128MOL    H3025684   4.352   6.428   2.246 -1.1590  0.7920 -1.6369
  128MOL    H3125685   4.313   6.492   2.405  1.5384 -0.5084 -0.0682
  128MOL    C3225686   4.591   6.716   2.129 -0.3415  0.3244 -0.3398
  128MOL    C3325687   4.650   6.729   1.984  0.5487 -0.1717 -0.1091
  128MOL    C3425688   4.755   6.624   1.945 -0.2670  0.5068  0.3669
  128MOL    O3525689   4.743   6.543   1.854  0.3852  0.5233  0.5415
  128MOL    N3625690   4.865   6.641   2.016 -0.3846  0.0768 -0.0799
  128MOL    H3725691   4.654   6.656   2.194 -0.1306  0.4345 -0.4409
  128MOL    H3825692   4.576   6.814   2.175  1.1098  0.3336  0.1239
  128MOL    H3925693   4.570   6.694   1.919  1.4426  0.3095 -1.4756
  128MOL    H4025694   4.943   6.579   2.003 -0.0573 -0.0063  2.0559
  128MOL    H4125695   4.872   6.713   2.087 -0.1575  1.2801 -1.2894
  128MOL    C4225696   4.684   6.870   1.937  0.4851  0.1882  0.0733
  128MOL    C4325697   4.818   6.937   1.979 -0.0701  0.1361  0.0965
  128MOL    C4425698   4.833   6.952   2.132 -0.2711 -0.3181 -0.2377
  128MOL    O4525699   4.753   7.024   2.191 -0.2182 -0.0923 -0.7423
  128MOL    N4625700   4.936   6.903   2.190  0.5683  0.3685  0.2319
  128MOL    H4725701   4.613   6.942   1.977  1.7096  0.2277  2.2162
  128MOL    H4825702   4.663   6.869   1.830  0.0760 -1.3975  0.1525
  128MOL    H4925703   4.909   6.884   1.949  0.8489  1.3577  0.7014
  128MOL    H5025704   4.950   6.926   2.287 -0.2805 -1.6300  0.8637
  128MOL    H5125705   5.015   6.878   2.133 -0.3895 -1.0351 -0.5248
  128MOL    C5225706   4.834   7.074   1.915 -0.2544  0.0830 -0.2928
  128MOL    C5325707   4.820   7.076   1.759  0.3894  0.7346  0.3227
  128MOL    C5425708   4.905   6.974   1.685 -0.0345  0.2884  0.0369
  128MOL    O5525709   4.849   6.867   1.651  0.5190 -0.1889  0.1828
  128MOL    N5625710   5.039   7.001   1.673  0.3208  0.1226  0.3413
  128MOL    H5725711   4.930   7.119   1.939 -0.6441  0.5427  0.4385
  128MOL    H5825712   4.751   7.135   1.953  0.6509  1.2176 -0.1046
  128MOL    H5925713   4.715   7.053   1.741  0.6138 -0.1685  0.1510
  128MOL    H6025714   5.103   6.935   1.631 -0.6070  1.6104 -3.5479
  128MOL    H6125715   5.065   7.097   1.695 -0.3709  0.5649 -0.7343
  128MOL    C6225716   4.847   7.221   1.706  0.0201  0.1639  0.1135
  128MOL    C6325717   4.803   7.269   1.563 -0.1993  0.2665  0.8432
  128MOL    C6425718   4.659   7.228   1.527 -0.1012 -1.0743 -0.5308
  128MOL    O6525719   4.639   7.139   1.449  0.2059  0.1785 -0.3990
  128MOL    N6625720   4.561   7.283   1.599  0.0447 -0.0980  0.6497
  128MOL    H6725721   4.953   7.245   1.709  0.1765 -0.2762 -1.3443
  128MOL    H6825722   4.804   7.293   1.776  1.5176  1.2957 -0.1005
  128MOL    H6925723   4.789   7.377   1.563  1.1793  0.4512  0.2693
  128MOL    H7025724   4.471   7.237   1.601  0.5826 -1.1046  1.7511
  128MOL    H7125725   4.587   7.347   1.673  0.7255 -0.6350  0.8778
  128MOL    C7225726   4.908   7.231   1.449 -0.1059  0.6611 -0.0555
  128MOL    C7325727   4.922   7.331   1.337  1.0034  0.1863  0.4324
  128MOL    C7425728   4.994   7.456   1.382  0.2288  0.6319 -0.3673
  128MOL    O7525729   4.943   7.542   1.451 -0.0193  0.2295 -0.3047
  128MOL    N7625730   5.115   7.472   1.341  0.2001 -0.0352  0.0583
  128MOL    H7725731   4.883   7.133   1.408  1.6353 -0.0030  0.4265
  128MOL    H7825732   5.009   7.210   1.485 -0.0993 -2.3646 -1.7063
  128MOL    H7925733   4.989   7.280   1.267  3.2243  3.0930  0.3295
  128MOL    H8025734   5.171   7.393   1.313 -1.0229 -1.7615  2.3094
  128MOL    H8125735   5.164   7.557   1.368  0.2752 -0.2871  0.7411
  128MOL    C8225736   4.793   7.364   1.256 -0.3619 -0.1778 -0.3695
  128MOL    C8325737   4.791   7.469   1.140 -0.4193 -0.3892 -0.3303
  128MOL    C8425738   4.652   7.488   1.081  0.3405 -0.9612 -0.4617
  128MOL    O8525739   4.568   7.400   1.063  0.3006 -0.2217 -0.0408
  128MOL    N8625740   4.632   7.605   1.025  0.0563 -0.1813  0.3106
  128MOL    H8725741   4.724   7.418   1.320 -1.7467 -1.7755 -0.4938
  128MOL    H8825742   4.739   7.274   1.231  1.7018 -0.9371 -2.2852
  128MOL    H8925743   4.822   7.565   1.181  1.7278 -0.3079 -2.0445
  128MOL    H9025744   4.717   7.655   1.004  0.3658 -1.0981 -0.6949
  128MOL    H9125745   4.549   7.617   0.968  0.7005 -1.9981 -1.0615
  128MOL    C9225746   4.895   7.426   1.026  0.2457 -0.3603  0.8672
  128MOL    C9325747   4.983   7.539   0.959  1.0484  0.2628  0.7500
  128MOL    C9425748   4.902   7.612   0.847  1.1983 -0.1661 -0.2669
  128MOL    O9525749   4.856   7.555   0.750 -0.2903 -0.1782  0.0788
  128MOL    N9625750   4.874   0.081   0.870  0.0114  0.2112  0.0707
  128MOL    H9725751   4.852   7.367   0.946  0.7792  1.6154 -0.9006
  128MOL    H9825752   4.958   7.350   1.072  0.0687 -0.7285  0.5009
  128MOL    H9925753   5.003   7.617   1.032 -1.1135  0.7792  0.8101
  128MOL   H10025754   4.919   0.126   0.949 -1.9919 -0.1294  1.4625
  128MOL   H10125755   4.837   0.145   0.801 -0.3302  2.1854  2.0090
  128MOL   C10225756   5.111   7.479   0.889 -0.6358  0.4018 -0.2416
  128MOL   C10325757   5.245   7.558   0.891 -0.4650 -0.2859  0.6171
  128MOL   C10425758   5.296   7.572   1.033 -0.7626  0.1157  0.0625
  128MOL   O10525759   5.343   7.476   1.092  0.0196 -0.6694 -0.4750
  128MOL   N10625760   5.271   0.027   1.098 -0.8904  0.5222 -0.0359
  128MOL   H10725761   5.095   7.448   0.785  0.7161  0.1856 -0.3875
  128MOL   H10825762   5.132   7.389   0.946 -0.8600  0.3507 -0.2392
  128MOL   H10925763   5.324   7.497   0.846  1.5077  2.2914  0.4742
  128MOL   H11025764   5.232   0.112   1.059  0.6287  1.5408  0.5914
  128MOL   H11125765   5.293   0.024   1.197 -0.1881 -0.1561 -0.2135
  128MOL   C11225766   5.239   0.028   0.807  0.2305 -0.4963  0.5889
  128MOL   C11325767   5.251   7.650   0.654 -0.4035 -0.5834 -0.1401
  128MOL   C11425768   5.384   7.594   0.612 -0.6088 -0.4374  0.0492
  128MOL   O11525769   5.493   7.621   0.665 -0.3720  0.3377  0.1280
  128MOL   N11625770   5.385   7.512   0.511 -0.0438 -0.2163  0.2191
  128MOL   H11725771   5.312   0.105   0.828 -1.0942  1.0072 -0.1831
  128MOL   H11825772   5.142   0.077   0.817 -0.4586 -1.8600  0.6410
  128MOL   H11925773   5.188   7.562   0.639  1.4970 -2.1052  0.5711
  128MOL   H12025774   5.467   7.473   0.466 -1.1381  0.2380 -2.2513
  128MOL   H12125775   5.297   7.486   0.468 -0.4776  3.0771 -1.0245
  128MOL   C12225776   5.217   0.113   0.570 -0.3714  0.2064 -0.5429
  128MOL   C12325777   5.068   0.133   0.543 -0.2609  0.6659 -0.3036
  128MOL   C12425778   5.013   0.027   0.450  0.3189  0.0926 -0.4010
  128MOL   O12525779   5.054   0.018   0.335  0.0825 -0.6325 -0.6426
  128MOL   N12625780   4.915   7.607   0.491  0.4148  0.2152 -0.2446
  128MOL   H12725781   5.265   0.119   0.472  1.3894  1.3007  0.3441
  128MOL   H12825782   5.257   0.207   0.609  2.7048 -0.3568 -2.1764
  128MOL   H12925783   5.025   0.115   0.641 -1.6878 -5.2336 -1.8464
  128MOL   H13025784   4.878   7.611   0.585  0.6112  3.4417 -0.2486
  128MOL   H13125785   4.882   7.533   0.430 -2.8075  0.8623  0.5973
  128MOL   C13225786   5.039   0.274   0.484  0.3507  0.0266 -0.3147
  128MOL   C13325787   4.900   0.340   0.490  0.1558  0.0531 -0.2027
  128MOL   C13425788   4.838   0.345   0.628 -0.1746 -0.2585 -0.6338
  128MOL   O13525789   4.769   0.254   0.671  0.3747 -0.0401 -0.2093
  128MOL   N13625790   4.856   0.455   0.700  0.3753 -0.2176 -0.4577
  128MOL   H13725791   5.071   0.271   0.380  1.5206 -0.7515  0.0575
  128MOL   H13825792   5.113   0.346   0.518 -1.0639  0.3562  2.1372
  128MOL   H13925793   4.921   0.444   0.464 -3.3797  0.6850 -0.8291
  128MOL   H14025794   4.890   0.538   0.652 -1.2740  0.1262 -1.0820
  128MOL   H14125795   4.807   0.475   0.785  1.2859  0.8760 -0.1782
  128MOL   C14225796   4.799   0.280   0.383  0.0279 -0.6879  0.8966
  128MOL   C14325797   4.703   0.384   0.309  0.7159 -0.4437 -0.3061
  128MOL   C14425798   4.587   0.442   0.389 -0.8883 -0.0142  0.1506
  128MOL   O14525799   4.547   0.391   0.494  0.4858 -0.1383 -0.2677
  128MOL   N14625800   4.539   0.556   0.350  0.0955 -0.4420  0.4581
  128MOL   H14725801   4.735   0.204   0.427 -1.0392 -0.7941 -0.7802
  128MOL   H14825802   4.857   0.228   0.307 -1.1766  1.6929 -1.7725
  128MOL   H14925803   4.760   0.476   0.294 -1.6103  1.3418  1.3972
  128MOL   H15025804   4.576   0.593   0.264 -0.4659  0.9359  0.7984
  128MOL   H15125805   4.462   0.606   0.390  0.3181  1.3366 -1.2417
  128MOL   C15225806   4.644   0.330   0.178 -0.3012  0.1897  0.3086
  128MOL   C15325807   4.755   0.334   0.069  0.7137 -0.0620  0.3886
  128MOL   C15425808   4.790   0.485   0.035  0.0676 -0.2014  0.5556
  128MOL   O15525809   4.896   0.523   0.004  0.4208 -0.3169  0.3484
  128MOL   N15625810   4.690   0.575   0.056 -0.2087  0.2406 -0.1178
  128MOL   H15725811   4.554   0.377   0.137 -0.6302  1.6980  2.6545
  128MOL   H15825812   4.608   0.229   0.197 -0.3561  0.3214  0.9274
  128MOL   H15925813   4.850   0.296   0.106  0.5280 -1.7518 -0.8445
  128MOL   H16025814   4.705   0.672   0.032 -2.2472  0.2616 -1.4114
  128MOL   H16125815   4.593   0.549   0.057 -0.1996  0.2015 -0.3382
  128MOL   C16225816   4.707   0.260   7.600  0.2650  0.4296  0.0988
  128MOL   C16325817   4.710   0.105   7.622 -0.4119 -0.1026  0.5254
  128MOL   C16425818   4.828   0.056   0.045 -0.0278 -0.0923  0.0400
  128MOL   O16525819   4.946   0.084   0.004 -0.4432 -0.0535 -0.0603
  128MOL   N16625820   4.807   7.640   0.158 -0.1779 -0.0158  0.2689
  128MOL   H16725821   4.754   0.297   7.509 -1.5099  1.4882 -0.4085
  128MOL   H16825822   4.601   0.277   7.585  0.1820  0.3629  0.5949
  128MOL   H16925823   4.617   0.086   0.018 -2.2084  2.4006 -1.6245
  128MOL   H17025824   4.718   7.596   0.176 -0.1859 -0.0166  0.2297
  128MOL   H17125825   4.891   7.622   0.212  0.2633 -0.6876 -0.6185
  128MOL   C17225826   4.705   0.031   7.488 -0.4353 -0.5676  0.8325
  128MOL   C17325827   4.657   7.545   7.471  0.5379 -0.1607 -0.2613
  128MOL   C17425828   4.753   7.442   7.534  0.4273  0.4386 -0.0870
  128MOL   O17525829   4.872   7.445   7.505 -0.1919  0.0167  0.9287
  128MOL   N17625830   4.710   7.357   7.625 -0.3417 -0.0087  0.6068
  128MOL   H17725831   4.806   0.036   7.445 -0.8519 -2.4222 -0.4364
  128MOL   H17825832   4.663   0.098   7.413  1.3783 -0.3167  0.0128
  128MOL   H17925833   4.564   7.539   7.528  1.0024 -0.1521  0.5003
  128MOL   H18025834   4.778   7.295   0.010  0.3323  0.3019 -0.0036
  128MOL   H18125835   4.617   7.366   0.006 -0.4836 -1.9831  0.7812
  128MOL   C18225836   4.635   7.516   7.323  0.0602 -0.8863 -0.0099
  128MOL   C18325837   4.573   7.390   7.277 -0.5054  0.6663 -0.0976
  128MOL   C18425838   4.571   7.378   7.124 -0.6546 -0.3154  0.6032
  128MOL   O18525839   4.538   7.475   7.053 -0.0878  0.3456  0.0099
  128MOL   N18625840   4.608   7.268   7.061  0.2358  0.1517  0.2752
  128MOL   H18725841   4.729   7.530   7.270 -0.7273  0.0324 -1.1957
  128MOL   H18825842   4.582   7.602   7.282 -1.9373 -1.3788  1.4043
  128MOL   H18925843   4.647   7.316   7.307 -1.0916  0.2132  0.2540
  128MOL   H19025844   4.629   7.259   6.963 -0.9388  2.1636 -0.1925
  128MOL   H19125845   4.624   7.188   7.120 -0.2008  0.7566  1.2285
  128MOL   C19225846   4.432   7.372   7.341 -0.5067  1.0364 -0.4363
  128MOL   C19325847   4.368   7.231   7.324  0.5926 -0.5063  0.9017
  128MOL   C19425848   4.215   7.229   7.337  0.2509  0.1048  0.4641
  128MOL   O19525849   4.139   7.180   7.249  0.5745  0.1818  0.1391
  128MOL   N19625850   4.166   7.281   7.446  0.0922  0.1483 -0.5292
  128MOL   H19725851   4.366   7.451   7.306 -1.6540  0.5061  0.5002
  128MOL   H19825852   4.439   7.389   7.448 -0.0275 -1.8393  0.0508
  128MOL   H19925853   4.394   7.178   7.232 -1.6119  0.9688 -0.6025
  128MOL   H20025854   4.069   7.304   7.428  0.5481  1.9835 -0.7438
  128MOL   H20125855   4.220   7.343   7.504  0.1684 -0.1945 -0.2275
  128MOL   H20225856   4.407   7.165   7.402 -0.5256 -0.4634  1.5050
  129MOL     C125857   7.460   0.210   0.613 -0.2167 -0.3539  0.2714
  129MOL     C225858   7.544   0.332   0.634 -0.0543 -0.4814 -0.1317
  129MOL     C325859   7.518   0.429   0.512  1.0128  1.1601 -0.1498
  129MOL     O425860   7.592   0.427   0.416 -0.0902  0.1272  0.1988
  129MOL     N525861   7.419   0.520   0.512  0.4422  0.0830 -0.5122
  129MOL     H625862   7.363   0.238   0.656 -0.0879  0.0277  0.3147
  129MOL     H725863   7.452   0.161   0.516  0.2004 -0.3805  0.2510
  129MOL     H825864   7.506   0.394   0.715 -2.0959  1.0728 -2.1965
  129MOL     H925865   7.410   0.586   0.436 -0.7159  0.3446 -0.1603
  129MOL    H1025866   7.354   0.528   0.589  1.7702 -1.6235  0.8454
  129MOL    H1125867   7.492   0.134   0.684 -0.1247 -0.7371 -0.1791
  129MOL    C1225868   0.039   0.307   0.658 -0.4156 -0.0371  0.3897
  129MOL    C1325869   0.074   0.275   0.803  0.8067  0.9063  0.1363
  129MOL    C1425870   0.092   0.406   0.878 -0.6889 -0.3748 -0.0215
  129MOL    O1525871   0.170   0.492   0.841 -0.5190  0.3758 -0.4405
  129MOL    N1625872   0.010   0.428   0.987 -0.2634  0.2269  0.6623
  129MOL    H1725873   0.090   0.400   0.633 -0.7620  0.0403 -0.0458
  129MOL    H1825874   0.077   0.225   0.597 -0.1189  1.0431 -0.9148
  129MOL    H1925875   7.642   0.220   0.833  2.3318 -0.9192  1.4264
  129MOL    H2025876   0.009   0.512   1.043 -0.4517  1.1754 -0.7388
  129MOL    H2125877   7.598   0.356   0.993  0.5647 -0.6103  0.1957
  129MOL    C2225878   0.193   0.178   0.822 -0.0854 -0.6925  0.7069
  129MOL    C2325879   0.181   0.090   0.953 -0.3799 -0.7082 -0.3332
  129MOL    C2425880   0.327   0.065   1.004 -0.1660  0.3141 -0.5173
  129MOL    O2525881   0.402   7.643   0.946  0.0069  0.3021  0.4084
  129MOL    N2625882   0.369   0.132   1.107 -0.3331  0.3272  0.3024
  129MOL    H2725883   0.279   0.244   0.830  0.5710 -1.7274  2.4777
  129MOL    H2825884   0.204   0.113   0.735 -0.9253  0.2990 -0.1577
  129MOL    H2925885   0.143   0.156   1.031  2.1079 -0.6127  0.8714
  129MOL    H3025886   0.311   0.206   1.145 -0.8794  0.4756 -0.7884
  129MOL    H3125887   0.461   0.126   1.148  0.0402  0.8024 -0.4581
  129MOL    C3225888   0.101   7.616   0.936  0.0184 -0.3775  0.3760
  129MOL    C3325889   0.013   7.557   1.048  0.0652 -0.8446 -0.2765
  129MOL    C3425890   7.570   0.008   1.096 -0.4274  0.1804  0.6482
  129MOL    O3525891   7.574   0.077   1.200  0.6966 -0.6550 -0.2833
  129MOL    N3625892   7.457   0.021   1.025 -0.4074 -0.2126 -0.2026
  129MOL    H3725893   0.171   7.539   0.904 -1.1829 -0.7279 -1.4885
  129MOL    H3825894   0.042   7.617   0.844  2.2869 -0.5341 -1.1197
  129MOL    H3925895   7.605   7.477   1.013  1.1780 -0.8486 -2.4096
  129MOL    H4025896   7.431   7.620   0.947  1.4360  0.6933 -1.5099
  129MOL    H4125897   7.404   0.102   1.054 -0.7466  0.0682 -1.5669
  129MOL    C4225898   0.095   7.504   1.179 -0.2600 -0.0935 -0.1248
  129MOL    C4325899   0.177   7.374   1.146  0.2673 -0.1519 -0.6361
  129MOL    C4425900   0.080   7.264   1.095 -0.0193 -0.1054  0.1075
  129MOL    O4525901   7.648   7.228   1.166  0.7692  0.3785  0.1599
  129MOL    N4625902   0.092   7.217   0.974 -0.8531 -0.3402  0.2069
  129MOL    H4725903   0.025   7.481   1.259 -0.9425  0.5761 -0.5204
  129MOL    H4825904   0.158   7.585   1.215  0.5968 -1.4105  1.3628
  129MOL    H4925905   0.250   7.408   1.073 -0.6191  0.3804 -1.2845
  129MOL    H5025906   0.029   7.155   0.925 -0.1758 -0.9808  0.1350
  129MOL    H5125907   0.168   7.252   0.918  0.9451 -1.9634  1.5643
  129MOL    C5225908   0.258   7.332   1.271  0.5807  0.2956 -0.8126
  129MOL    C5325909   0.377   7.230   1.253 -0.2296 -0.5413  0.3776
  129MOL    C5425910   0.408   7.161   1.388  0.7688 -0.8038 -0.2559
  129MOL    O5525911   0.455   7.048   1.385 -0.3444 -0.0516  0.0917
  129MOL    N5625912   0.400   7.221   1.503 -0.6440 -0.4132 -0.2549
  129MOL    H5725913   0.195   7.277   1.340  2.2286 -1.8648 -0.9831
  129MOL    H5825914   0.283   7.422   1.327 -0.7763  0.7511 -0.9352
  129MOL    H5925915   0.331   7.158   1.184 -1.0000 -0.8988  1.2489
  129MOL    H6025916   0.345   7.303   1.524 -0.3354  0.0983 -1.3900
  129MOL    H6125917   0.428   7.165   1.582 -3.1087 -0.4611  0.6249
  129MOL    C6225918   0.495   7.311   1.185 -0.6858  0.5961 -0.2001
  129MOL    C6325919   0.610   7.218   1.135  0.2063 -0.4581  0.8646
  129MOL    C6425920   0.732   7.311   1.099  0.3452  0.1508  0.8262
  129MOL    O6525921   0.725   7.410   1.023  0.2547  0.5461 -0.4669
  129MOL    N6625922   0.848   7.266   1.143  0.3670  0.6049  0.0315
  129MOL    H6725923   0.542   7.368   1.265  1.2991 -0.5761 -0.4934
  129MOL    H6825924   0.476   7.381   1.103  0.7280  2.3037  0.8798
  129MOL    H6925925   0.626   7.155   1.222  0.2938 -0.0103  1.1719
  129MOL    H7025926   0.924   7.314   1.097  0.3884 -0.0393 -0.6232
  129MOL    H7125927   0.865   7.174   1.180 -1.3170  1.0158  1.9097
  129MOL    C7225928   0.566   7.137   1.016  0.5108  0.0056  0.1326
  129MOL    C7325929   0.664   7.019   0.983 -0.2211  0.1164  0.0480
  129MOL    C7425930   0.712   7.026   0.832 -0.6347 -0.1596 -0.1918
  129MOL    O7525931   0.648   6.987   0.737 -0.4619 -0.2827  0.4396
  129MOL    N7625932   0.837   7.063   0.813  0.1430 -0.5075  0.2064
  129MOL    H7725933   0.547   7.185   0.920 -1.4234 -1.2476 -0.1280
  129MOL    H7825934   0.465   7.103   1.037  0.1012  0.5984 -0.8167
  129MOL    H7925935   0.753   7.031   1.045  0.9023  0.7202 -1.6650
  129MOL    H8025936   0.871   7.046   0.719 -0.5926  0.6441 -0.2753
  129MOL    H8125937   0.900   7.071   0.892 -1.2546 -0.1015  1.2843
  129MOL    C8225938   0.599   6.882   1.024 -1.3793 -0.1150  0.7623
  129MOL    C8325939   0.702   6.765   1.021 -0.8613 -0.0121 -0.1300
  129MOL    C8425940   0.654   6.652   0.925  0.2248  0.3004  0.2788
  129MOL    O8525941   0.540   6.605   0.935 -0.3209  0.5383  0.0866
  129MOL    N8625942   0.730   6.604   0.832  0.1455 -0.3757 -0.0777
  129MOL    H8725943   0.512   6.864   0.962 -0.1041 -1.9146 -0.5817
  129MOL    H8825944   0.559   6.895   1.125 -1.2626  0.4307  0.7394
  129MOL    H8925945   0.805   6.797   1.005 -1.2251  1.6272  0.6681
  129MOL    H9025946   0.690   6.537   0.767 -0.7040  0.8567 -0.8426
  129MOL    H9125947   0.830   6.605   0.821 -0.0253 -3.5721 -2.5371
  129MOL    C9225948   0.711   6.704   1.165  0.1629  0.1586 -0.5633
  129MOL    C9325949   0.800   6.785   1.270  0.1433  0.2326 -0.5346
  129MOL    C9425950   0.937   6.721   1.291  0.2522 -0.2085  1.0880
  129MOL    O9525951   0.955   6.607   1.333 -0.1198  0.2084 -0.0310
  129MOL    N9625952   1.038   6.805   1.267  0.0073  0.6919 -0.3098
  129MOL    H9725953   0.751   6.604   1.156 -1.7672 -0.7689  0.7097
  129MOL    H9825954   0.615   6.680   1.212  0.5349 -1.3766 -0.5824
  129MOL    H9925955   0.789   6.884   1.226 -1.8178 -0.1724 -1.0009
  129MOL   H10025956   1.132   6.775   1.290  0.8046  1.9339 -1.8114
  129MOL   H10125957   1.024   6.905   1.261  2.0209  1.1860  2.3225
  129MOL   C10225958   0.716   6.803   1.397  0.2721 -0.7219 -0.3825
  129MOL   C10325959   0.760   6.905   1.506  0.3867 -0.1364 -0.6715
  129MOL   C10425960   0.798   7.041   1.454  0.0504  0.0036  0.4948
  129MOL   O10525961   0.909   7.061   1.397  0.9155  0.5145  0.2110
  129MOL   N10625962   0.716   7.142   1.462  0.2193  0.1523  0.0235
  129MOL   H10725963   0.705   6.706   1.445  0.3457 -0.6842 -0.2908
  129MOL   H10825964   0.615   6.841   1.375 -0.4141 -2.1968  0.1841
  129MOL   H10925965   0.669   6.926   1.563  1.0356 -1.4379  0.8550
  129MOL   H11025966   0.619   7.116   1.468 -0.2605  1.5614 -1.2921
  129MOL   H11125967   0.735   7.238   1.437  0.6499 -0.2258 -1.1303
  129MOL   C11225968   0.865   6.855   1.610  0.1755  0.2776 -0.9215
  129MOL   C11325969   0.871   6.912   1.763  0.2168 -0.4785 -0.0149
  129MOL   C11425970   0.762   6.848   1.859 -0.4039 -0.1239 -0.2459
  129MOL   O11525971   0.643   6.848   1.826 -0.1185 -0.8363  0.0043
  129MOL   N11625972   0.806   6.785   1.972  0.3291 -0.1616  0.1764
  129MOL   H11725973   0.960   6.871   1.559  0.2311 -1.0813 -1.2851
  129MOL   H11825974   0.861   6.746   1.617 -0.3880  0.4603  2.1110
  129MOL   H11925975   0.970   6.901   1.807 -0.2716  1.7032  1.6845
  129MOL   H12025976   0.906   6.776   1.985  0.6837  1.4179 -1.2719
  129MOL   H12125977   0.734   6.748   2.032  2.7632 -1.4328  2.4003
  129MOL   C12225978   0.851   7.067   1.775 -0.7542 -0.0530  0.0889
  129MOL   C12325979   0.958   7.171   1.729  0.2743 -0.2254 -0.2360
  129MOL   C12425980   1.099   7.131   1.791  0.7201  0.5022  0.4307
  129MOL   O12525981   1.126   7.150   1.910  0.7569 -0.2207  0.0728
  129MOL   N12625982   1.183   7.072   1.708  0.0814 -0.8478 -0.3015
  129MOL   H12725983   0.843   7.080   1.883  1.0290 -0.1202  0.2520
  129MOL   H12825984   0.753   7.089   1.733 -0.6084 -2.2020 -1.4370
  129MOL   H12925985   0.978   7.172   1.622  1.5610  1.3170  0.0117
  129MOL   H13025986   1.271   7.046   1.751  0.0450  0.2632  0.4726
  129MOL   H13125987   1.159   7.060   1.611  0.5839  1.7373 -0.7866
  129MOL   C13225988   0.920   7.315   1.780  0.0068  0.4209  0.4806
  129MOL   C13325989   0.801   7.387   1.704  0.3614 -0.1883 -0.3410
  129MOL   C13425990   0.846   7.442   1.567  0.9146  0.6022 -0.6972
  129MOL   O13525991   0.797   7.398   1.461 -0.3027  0.4668  0.2098
  129MOL   N13625992   0.939   7.538   1.570  0.1370  0.0861 -0.0336
  129MOL   H13725993   1.011   7.375   1.774  0.8178 -0.5354  2.7905
  129MOL   H13825994   0.890   7.302   1.883 -2.4294  0.5982 -0.1736
  129MOL   H13925995   0.722   7.313   1.692 -0.3648  0.5565 -0.2617
  129MOL   H14025996   0.961   7.586   1.656 -0.4976  0.3638 -0.0203
  129MOL   H14125997   0.967   7.583   1.484  2.6645 -0.4638  0.4753
  129MOL   C14225998   0.749   7.490   1.799 -1.0160  0.3601  0.1356
  129MOL   C14325999   0.639   7.579   1.750  0.4000  0.2434 -0.3455
  129MOL   C14426000   0.621   0.036   1.854  0.7902  0.0108  0.8620
  129MOL   O14526001   0.630   0.028   1.978  0.5162 -0.6008  0.3217
  129MOL   N14626002   0.593   0.156   1.800 -0.0113 -0.1845  0.4733
  129MOL   H14726003   0.824   7.561   1.834  0.6440 -0.6325 -1.3165
  129MOL   H14826004   0.714   7.431   1.883  3.7785 -1.8060  0.7728
  129MOL   H14926005   0.669   7.619   1.653 -2.8256  0.3482 -1.3735
  129MOL   H15026006   0.599   0.178   1.701  1.8739 -1.6872  0.2380
  129MOL   H15126007   0.563   0.222   1.871 -0.7355  0.1616 -0.1377
  129MOL   C15226008   0.502   7.498   1.741  0.0206 -0.6468  0.0451
  129MOL   C15326009   0.366   7.582   1.722  0.8048 -0.3935  0.7835
  129MOL   C15426010   0.256   7.472   1.727  0.5631  0.1355 -0.6909
  129MOL   O15526011   0.251   7.387   1.642 -0.0562 -0.1674  0.6555
  129MOL   N15626012   0.182   7.472   1.842  0.4026  0.1774 -0.4043
  129MOL   H15726013   0.497   7.434   1.829  0.2396  0.9511  1.2428
  129MOL   H15826014   0.512   7.426   1.660  0.2789 -2.4730  1.6518
  129MOL   H15926015   0.349   7.650   1.806  0.4085  1.9815 -1.1743
  129MOL   H16026016   0.178   7.555   1.901 -0.1710 -0.6547  0.7503
  129MOL   H16126017   0.113   7.399   1.854  0.5694  0.0693 -0.0991
  129MOL   C16226018   0.370   0.014   1.598  0.0352 -0.5905  0.3826
  129MOL   C16326019   0.290   0.148   1.604 -0.0003  0.3157  0.3271
  129MOL   C16426020   0.161   0.134   1.691 -0.0902  0.6101  0.2620
  129MOL   O16526021   0.071   0.051   1.660  0.2521  0.0781 -0.7793
  129MOL   N16626022   0.157   0.211   1.795 -0.0897 -0.2158  0.0626
  129MOL   H16726023   0.334   7.616   1.511 -1.2330  2.3249 -1.0056
  129MOL   H16826024   0.472   0.031   1.565 -0.8753 -1.7544 -3.1994
  129MOL   H16926025   0.352   0.221   1.657 -1.4334  1.1587  0.8667
  129MOL   H17026026   0.080   0.191   1.858 -1.4399 -0.5517 -1.6450
  129MOL   H17126027   0.236   0.270   1.817 -0.1525  0.5616 -1.6606
  129MOL   C17226028   0.249   0.201   1.464  0.4610  0.5092  0.3475
  129MOL   C17326029   0.190   0.341   1.456 -0.1058 -0.0384  1.1069
  129MOL   C17426030   0.121   0.337   1.318  0.7291 -0.1800 -0.1578
  129MOL   O17526031   0.196   0.353   1.221  0.5243 -0.1504 -0.0357
  129MOL   N17626032   7.649   0.325   1.309  0.0675  0.1019  0.0554
  129MOL   H17726033   0.191   0.123   1.413 -0.8961  1.3881  0.5351
  129MOL   H17826034   0.336   0.198   1.399  0.0510 -1.2613 -0.1500
  129MOL   H17926035   0.111   0.343   1.532 -1.1791  1.9354 -0.0202
  129MOL   H18026036   7.607   0.319   1.217  1.1378 -1.7681 -0.3379
  129MOL   H18126037   7.593   0.350   1.389  1.3791 -2.3406  1.7998
  129MOL   C18226038   0.304   0.448   1.483 -0.0266 -0.9299  1.3058
  129MOL   C18326039   0.273   0.518   1.616 -0.2718 -0.4989  0.3759
  129MOL   C18426040   0.158   0.623   1.609 -0.5708 -0.1379 -0.0739
  129MOL   O18526041   0.185   0.736   1.563  0.3649 -0.5617  0.3937
  129MOL   N18626042   0.032   0.590   1.650  0.6080 -0.3362 -0.2726
  129MOL   H18726043   0.300   0.524   1.406  2.1507 -2.3958 -0.2838
  129MOL   H18826044   0.401   0.401   1.494  2.1134  2.5695 -1.7198
  129MOL   H18926045   0.239   0.443   1.688  0.3989  1.2767  2.5932
  129MOL   H19026046   7.619   0.663   1.652  2.6428  1.6859 -0.4812
  129MOL   H19126047   0.006   0.493   1.653 -0.5941 -0.0561 -0.9799
  129MOL   C19226048   0.403   0.584   1.674  0.5378  1.0368 -0.1742
  129MOL   C19326049   0.392   0.634   1.818 -0.2453  0.3755 -0.2576
  129MOL   C19426050   0.361   0.517   1.922  0.1208  0.2251  0.2441
  129MOL   O19526051   0.367   0.396   1.888 -0.3670  0.0615  0.3780
  129MOL   N19626052   0.322   0.550   2.048 -0.1251  0.0054 -0.6801
  129MOL   H19726053   0.423   0.670   1.610 -1.5003  1.7817  0.1368
  129MOL   H19826054   0.484   0.512   1.672 -1.3440 -1.1767  0.5887
  129MOL   H19926055   0.486   0.676   1.856 -0.0440  2.3514 -2.8046
  129MOL   H20026056   0.317   0.647   2.073  0.3739  0.3292 -1.8123
  129MOL   H20126057   0.302   0.487   2.124 -2.2655  0.4020 -0.8999
  129MOL   H20226058   0.321   0.716   1.826 -1.0528 -0.5831  3.7024
  130MOL     C126059   5.600   5.712   6.203 -0.7076  0.3213 -0.4585
  130MOL     C226060   5.577   5.583   6.116 -0.0051  0.6085  0.7054
  130MOL     C326061   5.486   5.627   6.005 -0.0032 -0.2727  0.3649
  130MOL     O426062   5.517   5.614   5.886  0.7117  0.2638  0.1167
  130MOL     N526063   5.364   5.671   6.020 -0.8330 -0.0728 -0.1267
  130MOL     H626064   5.600   5.801   6.140 -1.8077  0.1451 -0.7217
  130MOL     H726065   5.530   5.714   6.287  0.3785 -0.0341  0.4581
  130MOL     H826066   5.676   5.559   6.076 -0.4684 -2.0114  1.0694
  130MOL     H926067   5.291   5.673   5.950 -0.4662 -1.9116 -0.5867
  130MOL    H1026068   5.336   5.679   6.117 -1.8860 -2.3382 -0.2082
  130MOL    H1126069   5.700   5.720   6.243 -1.7741 -0.3242  2.4320
  130MOL    C1226070   5.538   5.453   6.190 -0.0739  0.2611 -0.3934
  130MOL    C1326071   5.581   5.311   6.146 -0.0666  0.3622 -0.6411
  130MOL    C1426072   5.599   5.294   5.992 -0.8815 -0.3875  0.2941
  130MOL    O1526073   5.507   5.304   5.916  0.0331  0.0915  0.3171
  130MOL    N1626074   5.721   5.275   5.939 -0.4113  0.9996 -0.0443
  130MOL    H1726075   5.430   5.453   6.203 -0.1501  1.2502 -0.9670
  130MOL    H1826076   5.567   5.458   6.295 -0.0715  0.6394 -0.4105
  130MOL    H1926077   5.684   5.295   6.177  0.1152 -0.6432 -1.7456
  130MOL    H2026078   5.800   5.279   6.002 -0.7007 -0.5929  0.4285
  130MOL    H2126079   5.726   5.264   5.839  0.4119 -1.8206  0.2862
  130MOL    C2226080   5.485   5.202   6.199 -0.0229 -0.4298  0.6869
  130MOL    C2326081   5.536   5.068   6.266 -0.7927  0.1916  0.5810
  130MOL    C2426082   5.615   4.990   6.162  0.3818 -0.1209  0.2721
  130MOL    O2526083   5.563   4.970   6.053 -0.0791  0.2200  0.1592
  130MOL    N2626084   5.732   4.943   6.191 -0.1326  0.5141  0.2253
  130MOL    H2726085   5.408   5.166   6.131  1.8098 -1.3830 -0.9193
  130MOL    H2826086   5.426   5.240   6.283 -0.3187  1.2537 -0.2770
  130MOL    H2926087   5.602   5.089   6.350  0.2041  1.7249 -0.5548
  130MOL    H3026088   5.785   4.902   6.116  1.6160  1.4522  0.9151
  130MOL    H3126089   5.758   4.924   6.287 -1.3177  0.3546  0.5304
  130MOL    C3226090   5.418   4.971   6.316  0.0081 -0.0574  0.8330
  130MOL    C3326091   5.367   4.996   6.465  0.2961 -0.0599 -0.0299
  130MOL    C3426092   5.476   4.934   6.560 -0.8899 -0.4621 -0.0011
  130MOL    O3526093   5.469   4.820   6.592  0.9561  0.1327  0.4598
  130MOL    N3626094   5.563   5.023   6.604 -0.5166  0.1669 -0.2153
  130MOL    H3726095   5.458   4.870   6.311  0.8202  0.3394 -0.9809
  130MOL    H3826096   5.336   4.971   6.243  0.9403  1.1992 -0.2298
  130MOL    H3926097   5.368   5.104   6.480  1.4616 -0.2781  1.5322
  130MOL    H4026098   5.563   5.118   6.569  1.1143 -0.1797 -1.2216
  130MOL    H4126099   5.625   5.001   6.681 -0.1129  0.9220 -0.3178
  130MOL    C4226100   5.228   4.934   6.495  0.3897  0.4576 -0.6882
  130MOL    C4326101   5.119   5.030   6.455  0.2312  0.0522  0.3810
  130MOL    C4426102   5.108   5.154   6.544 -0.8067 -0.0173  0.1989
  130MOL    O4526103   5.090   5.138   6.666  0.3309  0.1149  0.1493
  130MOL    N4626104   5.131   5.272   6.490 -0.2513 -1.5046 -0.0241
  130MOL    H4726105   5.220   4.888   6.593 -2.3701  0.6890 -0.7533
  130MOL    H4826106   5.230   4.847   6.430  2.1694 -1.1842  1.5102
  130MOL    H4926107   5.136   5.071   6.356  0.7287  1.2677  0.9558
  130MOL    H5026108   5.146   5.276   6.390  0.1228  0.0178  0.0756
  130MOL    H5126109   5.146   5.361   6.537  1.7828 -1.3900 -0.8164
  130MOL    C5226110   4.981   4.959   6.462 -0.0214  0.3085 -0.3175
  130MOL    C5326111   4.928   4.911   6.328 -0.1270  0.0474 -0.4046
  130MOL    C5426112   4.897   5.025   6.238  0.5306 -0.2128  0.5075
  130MOL    O5526113   4.805   5.106   6.274  0.3336 -0.2131  0.0739
  130MOL    N5626114   4.974   5.042   6.131  0.0584  0.2689  0.2381
  130MOL    H5726115   4.897   5.019   6.499 -0.5272 -0.0610 -0.8587
  130MOL    H5826116   4.988   4.875   6.531 -0.3852  0.1572 -0.4625
  130MOL    H5926117   5.012   4.863   6.278  2.1249  0.3880  2.8656
  130MOL    H6026118   4.961   5.119   6.067 -0.4767 -0.5640 -0.6481
  130MOL    H6126119   5.030   4.966   6.096  3.4158  2.0817  1.3789
  130MOL    C6226120   4.815   4.803   6.342 -0.3716 -0.2381  0.2472
  130MOL    C6326121   4.815   4.702   6.224 -0.1918 -0.2247 -0.7895
  130MOL    C6426122   4.713   4.749   6.121  0.4198  0.4063 -0.1356
  130MOL    O6526123   4.604   4.797   6.152 -0.4065 -0.3774 -0.0649
  130MOL    N6626124   4.753   4.747   5.997  0.0030 -0.1613  0.3825
  130MOL    H6726125   4.720   4.854   6.356 -0.1290  0.6413 -1.1547
  130MOL    H6826126   4.830   4.738   6.428 -3.1659 -0.7243  0.4197
  130MOL    H6926127   4.917   4.698   6.186  0.4710 -0.2242  0.9289
  130MOL    H7026128   4.850   4.742   5.970 -0.7806 -0.9261 -2.4871
  130MOL    H7126129   4.682   4.783   5.934  2.0859  4.0668  0.2659
  130MOL    C7226130   4.780   4.554   6.276  0.0850 -0.4360  0.6483
  130MOL    C7326131   4.634   4.535   6.317 -0.0590  0.5026  0.1925
  130MOL    C7426132   4.634   4.465   6.453  0.5319 -0.0090  0.1240
  130MOL    O7526133   4.679   4.355   6.470  0.2612  0.3814  0.1193
  130MOL    N7626134   4.605   4.537   6.555 -0.2860  0.6354  0.3249
  130MOL    H7726135   4.852   4.527   6.353  0.1442 -0.8164  0.4599
  130MOL    H7826136   4.810   4.475   6.207 -1.5752 -0.8801  0.4199
  130MOL    H7926137   4.584   4.630   6.337  0.5607  0.5297  1.7138
  130MOL    H8026138   4.604   4.490   6.644  0.8566 -0.7945 -0.3996
  130MOL    H8126139   4.561   4.628   6.560 -1.4204  0.0731  0.8793
  130MOL    C8226140   4.560   4.458   6.203 -0.2720 -0.8901 -0.5664
  130MOL    C8326141   4.408   4.435   6.224 -0.0282 -0.4591 -0.2909
  130MOL    C8426142   4.350   4.349   6.112 -0.6596 -0.2756  0.4261
  130MOL    O8526143   4.360   4.382   5.994  0.1972  0.1631  0.3548
  130MOL    N8626144   4.288   4.237   6.134  0.0480 -0.1202  0.0428
  130MOL    H8726145   4.619   4.366   6.196 -0.5161 -1.0409 -0.6528
  130MOL    H8826146   4.567   4.504   6.104  0.5761  2.6116  1.0405
  130MOL    H8926147   4.405   4.383   6.319  1.2148 -0.1225 -0.0491
  130MOL    H9026148   4.287   4.203   6.229 -0.2390  1.0845  0.4726
  130MOL    H9126149   4.244   4.196   6.053 -1.6314  1.0537  0.3439
  130MOL    C9226150   4.323   4.564   6.230  0.2514 -0.5649 -0.8315
  130MOL    C9326151   4.225   4.580   6.355  0.4239  0.5627  0.2411
  130MOL    C9426152   4.115   4.474   6.364 -0.2398  0.2459  0.2137
  130MOL    O9526153   4.007   4.487   6.302 -0.0702 -0.8599  0.3868
  130MOL    N9626154   4.130   4.365   6.441  0.6013  0.1786  0.6227
  130MOL    H9726155   4.253   4.578   6.148  0.9194  2.0413 -1.0090
  130MOL    H9826156   4.397   4.642   6.212  0.2281 -0.5488 -0.8540
  130MOL    H9926157   4.288   4.580   6.444  2.5784  2.3646 -1.2115
  130MOL   H10026158   4.061   4.292   6.438  1.3908 -0.5917  1.0604
  130MOL   H10126159   4.220   4.353   6.485  1.1645  1.3529 -0.1920
  130MOL   C10226160   4.152   4.719   6.359 -0.2280  0.0478 -0.3869
  130MOL   C10326161   4.229   4.845   6.383  0.2251 -0.2117  0.0771
  130MOL   C10426162   4.329   4.824   6.499 -0.0584  1.0808  0.3491
  130MOL   O10526163   4.292   4.768   6.604 -0.2063 -0.2709  0.5506
  130MOL   N10626164   4.453   4.863   6.479 -0.2498 -0.5563  0.0776
  130MOL   H10726165   4.077   4.715   6.438  0.5247  0.0033  0.3274
  130MOL   H10826166   4.096   4.723   6.265  0.1465 -1.1513 -0.6712
  130MOL   H10926167   4.281   4.858   6.288 -1.9351  1.2025 -0.9436
  130MOL   H11026168   4.485   4.898   6.390 -0.6161  0.3443  0.2846
  130MOL   H11126169   4.517   4.848   6.556 -1.4675 -2.2358  0.7657
  130MOL   C11226170   4.132   4.963   6.401 -0.1130 -0.3000  0.3074
  130MOL   C11326171   4.190   5.099   6.440  0.0014  0.5521  0.5312
  130MOL   C11426172   4.099   5.178   6.536  0.3181  0.5734 -0.6136
  130MOL   O11526173   3.974   5.157   6.540  0.1461 -0.8025  0.0707
  130MOL   N11626174   4.156   5.250   6.632 -0.4047  0.4828 -0.1174
  130MOL   H11726175   4.059   4.934   6.477 -2.2181 -2.7220 -2.5487
  130MOL   H11826176   4.079   4.967   6.306  2.4250 -0.3416 -1.1385
  130MOL   H11926177   4.290   5.102   6.483  0.0712 -0.7259  0.4695
  130MOL   H12026178   4.257   5.247   6.643 -0.3222 -0.4044 -1.0232
  130MOL   H12126179   4.094   5.306   6.689 -1.8447  0.1022 -1.2910
  130MOL   C12226180   4.200   5.181   6.304 -0.5880 -0.4123  0.2646
  130MOL   C12326181   4.311   5.145   6.196 -0.3108  0.0943  0.9443
  130MOL   C12426182   4.448   5.149   6.259  0.5428 -0.2239  0.3991
  130MOL   O12526183   4.482   5.246   6.325  0.2986 -0.1699 -0.0003
  130MOL   N12626184   4.529   5.053   6.245  0.3727  0.2414 -0.6386
  130MOL   H12726185   4.215   5.286   6.329 -1.7575  0.0172 -0.7967
  130MOL   H12826186   4.104   5.175   6.253 -0.0719 -0.3400 -0.7318
  130MOL   H12926187   4.296   5.043   6.159 -1.1495  0.1954  0.9928
  130MOL   H13026188   4.515   4.979   6.177  0.5537  0.7997 -1.2925
  130MOL   H13126189   4.622   5.085   6.269  0.3549  0.1829 -0.4929
  130MOL   C13226190   4.311   5.239   6.069 -0.4328 -0.4492  0.0949
  130MOL   C13326191   4.346   5.176   5.926  0.2038 -0.1945 -0.6661
  130MOL   C13426192   4.446   5.056   5.926 -0.5593  0.2294 -0.7486
  130MOL   O13526193   4.565   5.077   5.923  0.0005 -0.0948  0.5355
  130MOL   N13626194   4.401   4.932   5.930  0.0265  0.4218  0.3681
  130MOL   H13726195   4.386   5.314   6.094 -3.4626  2.4073  0.9779
  130MOL   H13826196   4.218   5.296   6.063  1.8261  3.3124 -0.2029
  130MOL   H13926197   4.248   5.134   5.901 -0.2255 -0.8552  2.0078
  130MOL   H14026198   4.302   4.916   5.926  0.1804 -0.5166  0.2835
  130MOL   H14126199   4.470   4.860   5.944  0.9555  1.0272 -1.0396
  130MOL   C14226200   4.382   5.281   5.822 -0.7864  0.1786 -0.0105
  130MOL   C14326201   4.380   5.235   5.679 -0.0661 -0.3224 -0.2004
  130MOL   C14426202   4.515   5.254   5.610 -0.7726  0.1616  0.2535
  130MOL   O14526203   4.564   5.365   5.588  0.5830 -0.0024  0.2793
  130MOL   N14626204   4.581   5.150   5.568  0.0052 -0.2481  0.1789
  130MOL   H14726205   4.482   5.320   5.841 -0.6647 -2.0078  4.2716
  130MOL   H14826206   4.319   5.370   5.828  0.5837  1.0108  3.1086
  130MOL   H14926207   4.348   5.131   5.685  1.9280 -0.9024  0.7755
  130MOL   H15026208   4.547   5.056   5.578  0.2918 -0.3004  0.6441
  130MOL   H15126209   4.670   5.171   5.527 -0.1921 -0.6532 -0.4562
  130MOL   C15226210   4.258   5.297   5.601 -0.5559 -0.1121 -0.6094
  130MOL   C15326211   4.227   5.225   5.470 -0.7630  0.0662  0.7433
  130MOL   C15426212   4.252   5.302   5.340  0.1518  0.1399 -0.4473
  130MOL   O15526213   4.178   5.286   5.243 -0.3216 -0.2860  0.5468
  130MOL   N15626214   4.363   5.377   5.334  0.1159 -0.1726  0.1176
  130MOL   H15726215   4.290   5.399   5.583  1.5135 -0.8738 -1.3283
  130MOL   H15826216   4.171   5.304   5.667 -1.6281 -2.5905 -1.6605
  130MOL   H15926217   4.292   5.140   5.450 -0.5811 -0.1833  2.2848
  130MOL   H16026218   4.417   5.371   5.420 -0.3163 -0.7339  0.3564
  130MOL   H16126219   4.390   5.437   5.258 -1.0506 -1.0417 -0.9925
  130MOL   C16226220   4.082   5.165   5.481 -0.3563 -0.0808  0.0659
  130MOL   C16326221   4.065   5.050   5.582  0.7472 -0.7832  0.3710
  130MOL   C16426222   4.143   4.922   5.539  0.2552  0.5750 -0.2287
  130MOL   O16526223   4.161   4.893   5.425  0.2055 -0.1558 -0.0170
  130MOL   N16626224   4.204   4.855   5.629  0.1237  0.9627  0.0823
  130MOL   H16726225   4.051   5.132   5.382 -1.4677  1.0462  0.0219
  130MOL   H16826226   4.021   5.254   5.497  2.1775  1.3868  1.8914
  130MOL   H16926227   4.111   5.090   5.672  1.5504  0.2768 -0.4895
  130MOL   H17026228   4.179   4.860   5.727  0.7354 -1.0610  0.3593
  130MOL   H17126229   4.251   4.770   5.603 -1.8300 -0.7150  1.7852
  130MOL   C17226230   3.922   5.009   5.611  0.4850  0.4125 -0.3092
  130MOL   C17326231   3.829   5.119   5.658  0.2960  0.6402 -0.3619
  130MOL   C17426232   3.865   5.191   5.789  0.2172 -0.0848  0.0503
  130MOL   O17526233   3.878   5.129   5.896 -0.4290  0.4220  0.3617
  130MOL   N17626234   3.881   5.325   5.796  0.0268 -0.0577 -0.0647
  130MOL   H17726235   3.916   4.928   5.684  2.4097  0.7580  0.2675
  130MOL   H17826236   3.880   4.965   5.520  0.6737 -1.2334  0.3766
  130MOL   H17926237   3.835   5.196   5.580  0.6219  1.0545  0.0635
  130MOL   H18026238   3.868   5.380   5.713 -0.9152 -1.1763 -0.6793
  130MOL   H18126239   3.886   5.366   5.888 -1.9343 -2.9149  1.4128
  130MOL   C18226240   3.684   5.069   5.656  0.0076  0.3024 -0.1960
  130MOL   C18326241   3.565   5.169   5.671 -0.4518  0.5988 -0.3233
  130MOL   C18426242   3.441   5.094   5.731 -0.6333 -0.4247  0.4520
  130MOL   O18526243   3.416   4.982   5.687  0.2494 -0.2259 -0.0394
  130MOL   N18626244   3.371   5.146   5.829 -0.8432  0.1034 -0.5602
  130MOL   H18726245   3.671   4.989   5.729  1.1870  0.6116  0.3604
  130MOL   H18826246   3.673   5.038   5.552 -1.8149  0.8273 -0.1627
  130MOL   H18926247   3.596   5.251   5.736 -2.6130  0.9567  0.3191
  130MOL   H19026248   3.400   5.233   5.871 -0.7014  0.3105 -1.0803
  130MOL   H19126249   3.305   5.086   5.876  1.4049 -2.5369 -0.6453
  130MOL   C19226250   3.520   5.233   5.536 -0.0008 -0.3364 -0.2644
  130MOL   C19326251   3.620   5.328   5.471  0.5258  0.5483  0.5075
  130MOL   C19426252   3.708   5.277   5.359  0.0529  0.2854  0.2777
  130MOL   O19526253   3.714   5.155   5.322 -0.4534  0.3127 -0.0343
  130MOL   N19626254   3.788   5.370   5.310 -0.0700  0.6227 -0.2385
  130MOL   H19726255   3.436   5.296   5.567 -0.2805  0.2836 -2.1876
  130MOL   H19826256   3.486   5.161   5.461  1.7136 -0.0086 -1.3874
  130MOL   H19926257   3.567   5.414   5.431 -0.7493  0.8355  2.7445
  130MOL   H20026258   3.802   5.454   5.365 -0.8092  0.3947  0.3034
  130MOL   H20126259   3.837   5.351   5.223 -0.4884 -0.7603 -0.1847
  130MOL   H20226260   3.679   5.375   5.549 -0.3231 -1.6060  2.5266
  131MOL     C126261   5.646   4.884   2.392 -0.4576 -0.1084 -0.1782
  131MOL     C226262   5.512   4.901   2.470  0.3695 -0.1655 -0.3436
  131MOL     C326263   5.443   5.033   2.434  0.4014  0.2269 -0.2444
  131MOL     O426264   5.345   5.029   2.364  0.1531  0.1250  0.0584
  131MOL     N526265   5.486   5.147   2.496  0.1729  0.3297 -0.5129
  131MOL     H626266   5.718   4.956   2.431 -1.5310  1.3367 -0.8268
  131MOL     H726267   5.701   4.792   2.413  1.8093  0.7437 -2.1539
  131MOL     H826268   5.445   4.822   2.437 -0.3580 -0.0531  0.8372
  131MOL     H926269   5.582   5.144   2.528  0.5631 -0.0767 -1.6572
  131MOL    H1026270   5.438   5.235   2.499  3.1507  1.9776  0.0502
  131MOL    H1126271   5.630   4.904   2.286 -1.7102  0.7730  0.1734
  131MOL    C1226272   5.535   4.876   2.625  0.4176 -0.3520 -0.1956
  131MOL    C1326273   5.520   4.732   2.673 -0.1619 -0.3027 -0.7027
  131MOL    C1426274   5.370   4.693   2.675 -0.2960 -0.2145  0.6845
  131MOL    O1526275   5.292   4.783   2.708 -0.0899 -0.3825  0.2639
  131MOL    N1626276   5.341   4.574   2.627 -0.0931  0.3832  0.0022
  131MOL    H1726277   5.462   4.941   2.673  0.9984  1.1961 -1.4039
  131MOL    H1826278   5.639   4.901   2.647  0.6314 -0.3005 -1.2681
  131MOL    H1926279   5.575   4.668   2.604  0.2380 -0.3995 -0.2952
  131MOL    H2026280   5.417   4.512   2.607 -0.0472  0.9128 -1.4937
  131MOL    H2126281   5.245   4.550   2.606  0.0963 -1.7021  1.3796
  131MOL    C2226282   5.576   4.717   2.820  0.5851 -0.1187  0.4202
  131MOL    C2326283   5.723   4.722   2.849 -0.3052 -0.4593  0.1494
  131MOL    C2426284   5.806   4.587   2.834  0.7251  0.6451  0.5940
  131MOL    O2526285   5.883   4.550   2.918 -0.3483 -0.4252 -0.3778
  131MOL    N2626286   5.779   4.512   2.727  0.0698 -0.3010 -0.2907
  131MOL    H2726287   5.533   4.623   2.855  0.0115  0.5991  1.6969
  131MOL    H2826288   5.527   4.794   2.880  1.7695  1.1408 -0.2070
  131MOL    H2926289   5.769   4.784   2.771  0.1783 -0.0829  0.7217
  131MOL    H3026290   5.714   4.533   2.653 -0.7555 -0.8310  0.2755
  131MOL    H3126291   5.825   4.422   2.723  2.3963  0.8580 -0.3066
  131MOL    C3226292   5.775   4.798   2.981  0.4951 -0.2668  0.4587
  131MOL    C3326293   5.731   4.946   2.999  0.2370 -0.2971  0.1281
  131MOL    C3426294   5.773   5.026   2.875  0.2407 -0.3235  0.1471
  131MOL    O3526295   5.890   5.021   2.825  0.1460 -0.1813  0.6953
  131MOL    N3626296   5.680   5.112   2.822  0.3178  0.0235 -0.1077
  131MOL    H3726297   5.882   4.785   2.998  0.7466  2.3175  1.0749
  131MOL    H3826298   5.728   4.735   3.057  0.4505  2.4040  2.7388
  131MOL    H3926299   5.622   4.945   3.006  0.2250  1.1260  0.2925
  131MOL    H4026300   5.702   5.163   2.737  0.2389 -1.6650 -1.1694
  131MOL    H4126301   5.585   5.114   2.856  0.7527  1.5022  1.1090
  131MOL    C4226302   5.790   5.024   3.116 -0.1528 -0.0867  0.3342
  131MOL    C4326303   5.798   4.953   3.253  0.4093 -0.7170  0.2460
  131MOL    C4426304   5.919   4.863   3.279 -0.6280 -0.4647 -0.2044
  131MOL    O4526305   5.928   4.751   3.234  1.1195 -0.3549  0.2667
  131MOL    N4626306   6.014   4.920   3.355  0.3968 -0.5702  0.0301
  131MOL    H4726307   5.748   5.124   3.131 -1.1278 -0.0018 -2.6173
  131MOL    H4826308   5.895   5.034   3.091 -0.0537  0.7945  1.0741
  131MOL    H4926309   5.814   5.037   3.320  1.2676 -0.0949 -0.7221
  131MOL    H5026310   6.101   4.870   3.368  0.5536 -0.3563 -0.1968
  131MOL    H5126311   6.005   5.019   3.374 -0.9036 -0.5151 -0.7602
  131MOL    C5226312   5.676   4.879   3.287  0.5256  0.2771 -0.5281
  131MOL    C5326313   5.546   4.964   3.317  0.0372 -0.4500 -0.0143
  131MOL    C5426314   5.558   5.072   3.420 -0.4935  0.7627 -0.3933
  131MOL    O5526315   5.593   5.041   3.535 -0.3947 -0.4575  0.7570
  131MOL    N5626316   5.523   5.190   3.389 -0.0920 -0.0306 -0.2932
  131MOL    H5726317   5.688   4.825   3.381  1.5079  0.8917 -0.2976
  131MOL    H5826318   5.650   4.796   3.221 -1.7610 -0.3392  1.0791
  131MOL    H5926319   5.519   5.010   3.222  0.8529 -0.6820 -0.3672
  131MOL    H6026320   5.493   5.219   3.297  1.5721 -0.4424 -0.9978
  131MOL    H6126321   5.499   5.251   3.465 -0.5705 -1.8848  1.0661
  131MOL    C6226322   5.426   4.870   3.352 -0.0129  0.0482  0.0693
  131MOL    C6326323   5.287   4.926   3.400  0.4679  0.6236 -0.2272
  131MOL    C6426324   5.203   4.800   3.436 -0.4278  0.2756  0.8561
  131MOL    O6526325   5.132   4.741   3.359  0.4833  0.1724 -0.1694
  131MOL    N6626326   5.219   4.750   3.559 -0.3375 -0.5459  0.0203
  131MOL    H6726327   5.466   4.809   3.433  3.1878  1.5107 -0.3279
  131MOL    H6826328   5.404   4.822   3.256  1.0868 -1.0124  0.3323
  131MOL    H6926329   5.295   4.982   3.493 -1.7526 -0.1534  0.4640
  131MOL    H7026330   5.175   4.664   3.587 -2.7289  1.6605  3.3258
  131MOL    H7126331   5.288   4.780   3.627 -2.3032 -0.1079  1.8698
  131MOL    C7226332   5.233   5.024   3.295  0.7635 -0.0960 -0.2075
  131MOL    C7326333   5.096   5.089   3.329  0.5585 -0.0748 -0.1277
  131MOL    C7426334   5.047   5.182   3.213  0.2652  0.7461 -0.3686
  131MOL    O7526335   5.084   5.299   3.209 -0.6084  0.2597 -0.1446
  131MOL    N7626336   4.980   5.120   3.111 -0.4410 -0.3605 -0.2187
  131MOL    H7726337   5.242   4.977   3.198 -0.6737 -0.3826 -0.2203
  131MOL    H7826338   5.295   5.114   3.296 -0.6119  0.8674  0.8431
  131MOL    H7926339   5.038   4.998   3.315  0.7359  0.2476 -3.5742
  131MOL    H8026340   4.937   5.029   3.115 -1.5773 -0.0033 -3.3187
  131MOL    H8126341   4.969   5.180   3.030 -0.9095 -2.5218 -1.7861
  131MOL    C8226342   5.086   5.162   3.472 -0.9528 -0.3052 -0.4639
  131MOL    C8326343   5.022   5.075   3.577  0.9270  1.0682  0.5511
  131MOL    C8426344   4.870   5.037   3.531 -0.5808 -0.0085  0.4504
  131MOL    O8526345   4.799   5.121   3.472 -0.3362 -0.6527  0.2317
  131MOL    N8626346   4.832   4.914   3.553 -0.1157 -0.4543 -0.7089
  131MOL    H8726347   5.022   5.246   3.444 -1.2017  0.0713  1.2296
  131MOL    H8826348   5.186   5.196   3.497 -0.9992 -0.0485 -0.6309
  131MOL    H8926349   5.078   4.982   3.588 -0.8104 -0.1812 -1.0588
  131MOL    H9026350   4.740   4.897   3.514 -0.5675 -0.9365  0.5181
  131MOL    H9126351   4.889   4.840   3.592 -0.5872 -1.8237 -2.5342
  131MOL    C9226352   5.019   5.151   3.715 -0.2013  0.5950 -0.2101
  131MOL    C9326353   5.156   5.186   3.777  0.0387  0.1639 -0.6206
  131MOL    C9426354   5.231   5.058   3.792 -1.0094 -0.9708  0.4415
  131MOL    O9526355   5.184   4.952   3.833  0.0050 -0.2632  0.4482
  131MOL    N9626356   5.358   5.066   3.745 -0.8330 -0.0738 -0.5221
  131MOL    H9726357   4.966   5.083   3.782 -0.8249  0.6516 -0.6436
  131MOL    H9826358   4.957   5.241   3.715  1.2643  1.6476  1.7282
  131MOL    H9926359   5.209   5.253   3.709 -1.2101  1.7374 -0.0668
  131MOL   H10026360   5.392   5.154   3.708 -0.1441 -0.0095  0.2528
  131MOL   H10126361   5.416   4.985   3.734 -0.3276  0.5123 -2.2646
  131MOL   C10226362   5.143   5.264   3.911 -0.1408 -0.2586  0.2418
  131MOL   C10326363   5.085   5.407   3.894  0.2919 -0.4430 -0.5298
  131MOL   C10426364   5.163   5.502   3.802  0.9936  0.1538  0.3858
  131MOL   O10526365   5.115   5.542   3.692  0.5216  0.5821  0.1634
  131MOL   N10626366   5.284   5.534   3.831 -0.2030  0.0761 -0.0252
  131MOL   H10726367   5.245   5.263   3.949 -0.1409  1.4720  0.3188
  131MOL   H10826368   5.088   5.204   3.984  0.9961 -1.2593  0.2867
  131MOL   H10926369   4.985   5.402   3.851 -0.8664  3.3353  1.5186
  131MOL   H11026370   5.349   5.593   3.781 -1.7419  0.2276 -1.9126
  131MOL   H11126371   5.319   5.493   3.916  0.5295 -1.0977 -0.8744
  131MOL   C11226372   5.069   5.480   4.027 -0.0819  0.2778  0.3303
  131MOL   C11326373   4.962   5.422   4.116  0.4714  1.0821  0.5097
  131MOL   C11426374   4.822   5.494   4.108 -0.1603 -0.1625 -0.1926
  131MOL   O11526375   4.717   5.437   4.134  0.1676  1.0292  0.0175
  131MOL   N11626376   4.825   5.623   4.073 -0.1885 -0.4984  0.3228
  131MOL   H11726377   5.044   5.583   4.001 -3.1187 -0.1818  1.2507
  131MOL   H11826378   5.164   5.487   4.079  0.2181  3.3007 -0.4922
  131MOL   H11926379   4.934   5.318   4.104 -0.7921  1.5052 -0.3178
  131MOL   H12026380   4.912   5.674   4.070 -1.3795  1.5335 -0.9701
  131MOL   H12126381   4.742   5.681   4.063  1.1412  0.8886 -3.4429
  131MOL   C12226382   5.012   5.426   4.265  0.0786  0.3209 -0.1463
  131MOL   C12326383   5.116   5.310   4.300 -0.6402 -0.3602 -0.3551
  131MOL   C12426384   5.046   5.175   4.331  0.1886  0.1556 -0.2361
  131MOL   O12526385   4.961   5.161   4.417  0.2826 -0.4213  0.0783
  131MOL   N12626386   5.073   5.079   4.242 -0.3941  0.7920 -0.0507
  131MOL   H12726387   4.921   5.409   4.322  0.1510  0.0358 -0.1160
  131MOL   H12826388   5.064   5.518   4.294 -1.1184  0.6495  0.9985
  131MOL   H12926389   5.183   5.290   4.216  2.3990  1.5125  1.5534
  131MOL   H13026390   5.022   4.992   4.249 -0.6609  0.7690 -2.0337
  131MOL   H13126391   5.128   5.096   4.159  0.8742 -1.2927  0.3484
  131MOL   C13226392   5.208   5.350   4.419 -0.1286 -0.3096 -0.0396
  131MOL   C13326393   5.361   5.336   4.388  0.8772 -0.5812  0.1640
  131MOL   C13426394   5.445   5.368   4.514  0.3346 -0.6667 -0.0091
  131MOL   O13526395   5.450   5.481   4.566  0.7048 -0.2767  0.0218
  131MOL   N13626396   5.524   5.273   4.563 -0.1176  0.1090 -0.4198
  131MOL   H13726397   5.188   5.287   4.506 -0.2445 -0.0098  0.1522
  131MOL   H13826398   5.196   5.456   4.440  1.0440 -0.0401 -0.6695
  131MOL   H13926399   5.378   5.230   4.367 -1.6627 -1.6846  3.3438
  131MOL   H14026400   5.520   5.175   4.540 -3.4775 -0.1308  0.9567
  131MOL   H14126401   5.599   5.310   4.618  0.4748  2.3537 -2.6368
  131MOL   C14226402   5.402   5.431   4.267  0.1871  0.6437 -0.4511
  131MOL   C14326403   5.533   5.407   4.197 -0.4170  0.5717  0.6542
  131MOL   C14426404   5.563   5.521   4.108 -0.0232 -0.2286  0.0368
  131MOL   O14526405   5.495   5.526   4.007 -0.0554 -0.1022 -0.0034
  131MOL   N14626406   5.658   5.601   4.143 -0.5527 -0.6133 -0.1236
  131MOL   H14726407   5.390   5.536   4.294 -2.1231  0.5277 -0.9784
  131MOL   H14826408   5.328   5.434   4.187 -1.0380  0.6305  0.6649
  131MOL   H14926409   5.603   5.394   4.280 -1.8485 -2.0651  1.5098
  131MOL   H15026410   5.700   5.613   4.234  2.1303 -2.5617 -1.0421
  131MOL   H15126411   5.690   5.672   4.078 -0.6819  1.5174  2.0729
  131MOL   C15226412   5.534   5.278   4.108  0.0671 -0.5648  0.1409
  131MOL   C15326413   5.669   5.208   4.101  0.3712 -0.0614  0.6818
  131MOL   C15426414   5.685   5.134   3.967 -0.0514 -0.6066 -0.0173
  131MOL   O15526415   5.759   5.170   3.879 -0.9969  0.6774  0.0029
  131MOL   N15626416   5.616   5.024   3.950 -1.0678 -0.0023  0.2535
  131MOL   H15726417   5.492   5.287   4.008 -0.4908  1.1393  0.5207
  131MOL   H15826418   5.462   5.210   4.153 -0.6074 -0.7990 -1.2551
  131MOL   H15926419   5.754   5.276   4.099  0.3745 -0.0823 -0.7051
  131MOL   H16026420   5.547   4.990   4.014 -2.5466  1.7357 -0.3563
  131MOL   H16126421   5.645   4.963   3.875  0.3814  1.0119 -0.0434
  131MOL   C16226422   5.692   5.124   4.228  0.0611  0.5638 -0.7247
  131MOL   C16326423   5.832   5.133   4.296 -0.7565  0.2663 -0.3643
  131MOL   C16426424   5.939   5.065   4.208 -0.3533  0.8507  0.2701
  131MOL   O16526425   5.933   4.944   4.192 -1.0389 -0.4366  0.1783
  131MOL   N16626426   6.019   5.150   4.142  0.1587 -0.3454 -0.6611
  131MOL   H16726427   5.681   5.020   4.196 -0.7609  0.5403 -0.3705
  131MOL   H16826428   5.605   5.151   4.288 -0.7376  0.4448 -1.8144
  131MOL   H16926429   5.854   5.239   4.304  0.5484  0.0396 -0.8074
  131MOL   H17026430   6.081   5.114   4.070  0.9394 -0.1590 -0.0872
  131MOL   H17126431   6.036   5.246   4.166 -2.6111  0.4017 -1.6074
  131MOL   C17226432   5.825   5.074   4.440  0.2766  0.5743 -0.1849
  131MOL   C17326433   5.945   5.094   4.537  0.2290 -0.1808  0.7295
  131MOL   C17426434   6.069   5.011   4.498  0.1143 -0.7942 -0.4271
  131MOL   O17526435   6.059   4.890   4.525  0.4032 -0.1734 -0.1481
  131MOL   N17626436   6.168   5.067   4.429 -0.1936 -0.1169 -0.1472
  131MOL   H17726437   5.805   4.967   4.426 -0.5805  0.7058 -0.0071
  131MOL   H17826438   5.733   5.120   4.477 -0.9452 -2.5372  0.8264
  131MOL   H17926439   5.966   5.200   4.523 -0.6200 -0.2559 -1.2776
  131MOL   H18026440   6.162   5.167   4.413  0.8168  0.1967  1.3366
  131MOL   H18126441   6.245   5.019   4.384 -1.0505  0.3465 -2.1689
  131MOL   C18226442   5.898   5.075   4.675  0.8499 -0.1094  0.0602
  131MOL   C18326443   5.993   5.141   4.784 -0.4652  0.3451 -0.4558
  131MOL   C18426444   6.010   5.042   4.904 -0.2994 -0.2568 -0.0909
  131MOL   O18526445   5.916   4.984   4.952  0.6250  0.0770  0.0086
  131MOL   N18626446   6.131   5.047   4.959 -0.5626  0.5131 -0.0062
  131MOL   H18726447   5.876   4.969   4.691  1.4427 -0.3146 -0.4181
  131MOL   H18826448   5.808   5.135   4.682 -0.6321 -2.2387 -0.2685
  131MOL   H18926449   6.092   5.132   4.740 -0.4021 -3.1747  0.2444
  131MOL   H19026450   6.209   5.062   4.895 -0.2577 -2.0935 -0.3018
  131MOL   H19126451   6.153   5.015   5.052 -3.7210  3.2350  1.7775
  131MOL   C19226452   5.982   5.293   4.818  0.0788  0.3565 -0.0918
  131MOL   C19326453   5.838   5.337   4.863  0.4464  0.8509  0.3749
  131MOL   C19426454   5.748   5.408   4.760 -0.0622  0.3547  0.6097
  131MOL   O19526455   5.775   5.404   4.642  0.0007  0.5232  0.0887
  131MOL   N19626456   5.640   5.467   4.805  0.5280  0.5316 -0.2677
  131MOL   H19726457   6.011   5.358   4.735  0.0965  0.5534  0.0703
  131MOL   H19826458   6.056   5.317   4.894  0.7739 -3.2486  0.4972
  131MOL   H19926459   5.782   5.254   4.907  1.5317 -0.4651 -0.6834
  131MOL   H20026460   5.612   5.459   4.902 -1.9340 -3.7320 -1.1800
  131MOL   H20126461   5.593   5.520   4.732  0.6079 -1.8136 -2.0829
  131MOL   H20226462   5.845   5.407   4.947  1.3143  0.9485  0.2274
  132MOL     C126463   1.440   4.361   3.737  0.0546  0.4360 -0.5211
  132MOL     C226464   1.503   4.482   3.667 -0.0813  0.5181 -0.0385
  132MOL     C326465   1.648   4.451   3.669  0.2910  0.0063  0.8714
  132MOL     O426466   1.702   4.417   3.772  0.0556  0.2071 -0.6559
  132MOL     N526467   1.707   4.434   3.554  0.2353 -0.4864  0.1937
  132MOL     H626468   1.453   4.369   3.845 -0.3240 -1.3104 -0.3313
  132MOL     H726469   1.332   4.364   3.720 -0.1061  1.4945  0.6429
  132MOL     H826470   1.480   4.494   3.561  4.8494  2.3933 -1.0750
  132MOL     H926471   1.658   4.411   3.469  0.4564  1.4994 -0.4945
  132MOL    H1026472   1.806   4.413   3.559  0.3189  0.3728  2.9436
  132MOL    H1126473   1.480   4.268   3.698  1.4518  1.0810 -0.6423
  132MOL    C1226474   1.478   4.613   3.738  0.4571 -0.7259 -0.3821
  132MOL    C1326475   1.332   4.654   3.773 -0.5010 -0.4375 -0.0062
  132MOL    C1426476   1.275   4.715   3.644  0.1717 -0.1829  0.1353
  132MOL    O1526477   1.318   4.819   3.600  0.0143 -0.1217 -0.4109
  132MOL    N1626478   1.180   4.649   3.585 -0.3088  0.7879 -0.0505
  132MOL    H1726479   1.530   4.689   3.680  0.4330 -0.7908 -0.4876
  132MOL    H1826480   1.534   4.616   3.832 -0.2308 -0.6804  0.0266
  132MOL    H1926481   1.268   4.570   3.803 -0.7274  0.2247  1.3976
  132MOL    H2026482   1.151   4.684   3.495  1.3429 -0.0956 -0.9741
  132MOL    H2126483   1.169   4.551   3.607  1.5350  0.1238 -1.8930
  132MOL    C2226484   1.329   4.761   3.878 -0.1366  0.1998  0.4705
  132MOL    C2326485   1.203   4.812   3.951 -0.2010  0.3793  0.8614
  132MOL    C2426486   1.244   4.919   4.049 -1.1194  0.0515 -0.4701
  132MOL    O2526487   1.358   4.932   4.098  0.1831 -0.2695  0.2122
  132MOL    N2626488   1.152   5.011   4.074 -0.0437 -0.0416  0.2027
  132MOL    H2726489   1.388   4.844   3.841 -0.3977 -0.4519 -1.4533
  132MOL    H2826490   1.393   4.712   3.952 -0.0137  0.3158  0.4399
  132MOL    H2926491   1.149   4.869   3.876 -0.3602 -0.6716  0.1563
  132MOL    H3026492   1.166   5.096   4.127  0.5521 -0.3243  0.4951
  132MOL    H3126493   1.055   4.993   4.050  0.3006  0.5616 -1.7099
  132MOL    C3226494   1.123   4.697   4.025 -0.2656  0.1754  0.4103
  132MOL    C3326495   0.971   4.717   4.030 -0.3738 -0.2565 -0.6105
  132MOL    C3426496   0.918   4.725   4.171  0.0546  0.2580 -0.2402
  132MOL    O3526497   0.895   4.623   4.232 -0.1305 -0.0415  1.0097
  132MOL    N3626498   0.899   4.842   4.229 -0.2312 -0.2778  0.0273
  132MOL    H3726499   1.162   4.683   4.126 -0.0431  2.7036  0.7059
  132MOL    H3826500   1.146   4.604   3.973 -2.0274  2.0507 -3.9421
  132MOL    H3926501   0.944   4.813   3.986 -0.9078 -0.4753 -0.7652
  132MOL    H4026502   0.866   4.850   4.324  1.0063  0.5248  0.4002
  132MOL    H4126503   0.884   4.920   4.167 -0.4814 -0.6609 -0.3942
  132MOL    C4226504   0.894   4.613   3.947  0.1383  0.0524  0.4487
  132MOL    C4326505   0.912   4.614   3.796 -0.1995  0.1612  0.1072
  132MOL    C4426506   0.860   4.743   3.725 -0.1701 -0.0630  0.3895
  132MOL    O4526507   0.745   4.773   3.719  1.0894  0.3196  0.7676
  132MOL    N4626508   0.946   4.830   3.684 -0.6855  0.1553 -0.1906
  132MOL    H4726509   0.789   4.631   3.970 -0.1030  0.7342 -1.1504
  132MOL    H4826510   0.920   4.512   3.978 -2.6556 -0.2489  1.9840
  132MOL    H4926511   1.016   4.603   3.767  0.4014  0.3753  2.1498
  132MOL    H5026512   0.914   4.911   3.633 -1.5057 -1.3948 -2.2028
  132MOL    H5126513   1.043   4.803   3.681 -0.5412  0.7030 -0.5594
  132MOL    C5226514   0.839   4.492   3.728 -0.6106 -0.3560 -0.3542
  132MOL    C5326515   0.885   4.343   3.753 -0.3835  0.4323  0.6583
  132MOL    C5426516   1.033   4.319   3.723  0.1316  1.3462 -0.5398
  132MOL    O5526517   1.093   4.391   3.645 -0.1482 -0.9167  0.3180
  132MOL    N5626518   1.094   4.215   3.775 -0.6126 -0.2675 -0.5786
  132MOL    H5726519   0.837   4.516   3.622 -0.9417 -1.7293 -0.6720
  132MOL    H5826520   0.736   4.489   3.762  0.1767 -1.8315  2.0274
  132MOL    H5926521   0.852   4.328   3.855  0.5765 -1.3717  0.7356
  132MOL    H6026522   1.187   4.199   3.741  0.9213  0.9589  2.8486
  132MOL    H6126523   1.052   4.160   3.850 -1.1460  2.0842  0.9032
  132MOL    C6226524   0.809   4.246   3.657 -0.4285 -0.0770 -0.4023
  132MOL    C6326525   0.655   4.244   3.663 -0.1682 -0.4237  0.9595
  132MOL    C6426526   0.576   4.224   3.791 -0.3411  0.6235 -0.3931
  132MOL    O6526527   0.464   4.272   3.796  0.1451  0.0450  0.3165
  132MOL    N6626528   0.636   4.160   3.889 -0.6143  0.1491 -0.6220
  132MOL    H6726529   0.851   4.146   3.666  0.0930  0.2066  0.4078
  132MOL    H6826530   0.830   4.282   3.556 -0.6462  2.9726  0.5862
  132MOL    H6926531   0.623   4.343   3.629  1.3359 -0.9816 -2.2312
  132MOL    H7026532   0.718   4.103   3.874  0.1427  1.2130 -0.5705
  132MOL    H7126533   0.586   4.163   3.977 -0.5609 -1.6684 -0.5032
  132MOL    C7226534   0.601   4.150   3.546 -0.5493 -0.4119  0.4315
  132MOL    C7326535   0.515   4.223   3.436  0.1872 -1.2549 -0.5704
  132MOL    C7426536   0.362   4.209   3.477  0.6601  0.6082  0.5063
  132MOL    O7526537   0.313   4.101   3.501  0.8222 -0.2129  0.7686
  132MOL    N7626538   0.288   4.319   3.487  0.4894 -0.4690  0.2296
  132MOL    H7726539   0.540   4.069   3.584 -0.9807  0.8225  2.4607
  132MOL    H7826540   0.680   4.095   3.495 -0.3105 -1.0521  1.4790
  132MOL    H7926541   0.539   4.329   3.431 -2.0684 -0.7774 -1.9737
  132MOL    H8026542   0.192   4.313   3.516  0.7332 -0.0631  1.1353
  132MOL    H8126543   0.329   4.410   3.474 -1.6581  0.3454 -1.0704
  132MOL    C8226544   0.525   4.175   3.289  0.2057  0.0479 -0.7509
  132MOL    C8326545   0.527   4.291   3.183 -0.4701  0.3676  0.5489
  132MOL    C8426546   0.431   4.267   3.068  0.4032  0.7529 -0.1977
  132MOL    O8526547   0.437   4.164   2.995  0.7900 -0.6052  0.7058
  132MOL    N8626548   0.338   4.359   3.045  0.2141  0.0712  0.0309
  132MOL    H8726549   0.442   4.108   3.271  0.4961 -0.3108 -0.7621
  132MOL    H8826550   0.614   4.113   3.292  1.0384  1.2713  1.5754
  132MOL    H8926551   0.499   4.385   3.231 -0.0404 -0.2025  1.9115
  132MOL    H9026552   0.281   4.359   2.962 -0.7004  1.6401  0.6451
  132MOL    H9126553   0.322   4.432   3.112 -0.7586 -0.7652  0.7234
  132MOL    C9226554   0.669   4.324   3.116  0.5747 -0.0338  0.1067
  132MOL    C9326555   0.715   4.469   3.080  0.3376 -0.5501  0.3631
  132MOL    C9426556   0.724   4.492   2.932 -0.2134 -0.9417  0.3478
  132MOL    O9526557   0.810   4.436   2.864 -0.3577  1.2126  0.1267
  132MOL    N9626558   0.638   4.580   2.880  0.6130 -0.4811 -0.6687
  132MOL    H9726559   0.681   4.247   3.041  1.2286 -0.1960  0.3661
  132MOL    H9826560   0.735   4.291   3.197  1.0216 -0.3275 -0.3729
  132MOL    H9926561   0.633   4.534   3.111  1.3806  1.0573 -0.2110
  132MOL   H10026562   0.626   4.599   2.781  0.2851  0.4043 -0.4713
  132MOL   H10126563   0.589   4.642   2.943  1.8706 -0.9008  0.7374
  132MOL   C10226564   0.834   4.536   3.153 -0.0506  0.2969 -0.1531
  132MOL   C10326565   0.849   4.689   3.151 -0.2007 -0.4749 -0.3743
  132MOL   C10426566   0.988   4.725   3.216 -0.7107 -0.5261 -0.4139
  132MOL   O10526567   1.012   4.746   3.337  0.1680  0.0147  0.5646
  132MOL   N10626568   1.086   4.745   3.129  0.8628  0.2332 -0.0649
  132MOL   H10726569   0.922   4.487   3.109  0.9870  0.9264  1.1697
  132MOL   H10826570   0.832   4.507   3.258 -1.2706 -1.2893 -0.6007
  132MOL   H10926571   0.853   4.713   3.045 -1.5825  1.6661  0.0369
  132MOL   H11026572   1.074   4.709   3.035 -2.3221  1.6298 -0.2559
  132MOL   H11126573   1.159   4.812   3.151  0.3376  1.1077 -0.9277
  132MOL   C11226574   0.736   4.769   3.216 -0.3423 -0.1474 -0.5908
  132MOL   C11326575   0.744   4.925   3.232 -0.1379  0.2982  0.0891
  132MOL   C11426576   0.624   4.948   3.330  0.2414  0.6083  0.0637
  132MOL   O11526577   0.512   4.921   3.289 -0.5689  0.0426  0.4414
  132MOL   N11626578   0.649   4.995   3.456 -0.0336  0.6220 -0.4929
  132MOL   H11726579   0.728   4.727   3.317  1.5086 -0.1120 -0.4114
  132MOL   H11826580   0.645   4.742   3.163  1.2035 -3.8530 -1.4386
  132MOL   H11926581   0.834   4.963   3.280 -0.5771  0.9513  0.4126
  132MOL   H12026582   0.572   5.025   3.515  1.0976  0.9485  0.8318
  132MOL   H12126583   0.747   5.003   3.478 -0.3083 -0.2424  1.1436
  132MOL   C12226584   0.733   4.988   3.093  0.4722 -0.3704  0.0600
  132MOL   C12326585   0.717   5.137   3.087 -0.3882 -0.1409  0.5576
  132MOL   C12426586   0.570   5.169   3.063  0.0537 -0.1800  0.3260
  132MOL   O12526587   0.504   5.105   2.975 -0.5102 -0.2465 -0.2391
  132MOL   N12626588   0.512   5.262   3.136  0.2664 -0.0508 -0.4020
  132MOL   H12726589   0.649   4.937   3.046  1.4882 -1.5713 -0.4844
  132MOL   H12826590   0.814   4.955   3.028  0.1882  1.1710 -1.1111
  132MOL   H12926591   0.743   5.184   3.182 -1.9635  0.3316  0.7679
  132MOL   H13026592   0.415   5.286   3.123  0.9748  4.2061  1.1825
  132MOL   H13126593   0.568   5.313   3.203  2.6568 -1.1926 -1.4862
  132MOL   C13226594   0.797   5.204   2.971  0.1392 -0.2483 -0.2842
  132MOL   C13326595   0.945   5.238   2.973  0.5368 -0.1044  0.0444
  132MOL   C13426596   0.984   5.338   2.866  1.1903 -0.8627 -0.1194
  132MOL   O13526597   0.997   5.456   2.888  0.1554  0.5076  0.1729
  132MOL   N13626598   1.006   5.294   2.742 -0.0658  0.5048 -0.4835
  132MOL   H13726599   0.745   5.299   2.958 -2.0323 -1.1776  1.1933
  132MOL   H13826600   0.775   5.142   2.884 -0.4912 -0.9576  0.3686
  132MOL   H13926601   0.946   5.299   3.063  2.1873 -0.0502 -0.0084
  132MOL   H14026602   0.973   5.198   2.739 -0.1838  0.4910  1.0550
  132MOL   H14126603   1.029   5.356   2.665 -0.9260  1.7442  0.2557
  132MOL   C14226604   1.036   5.114   2.993  0.0835 -0.5971 -0.0120
  132MOL   C14326605   1.182   5.145   2.972  0.1550  0.4902  0.3352
  132MOL   C14426606   1.261   5.012   2.977  0.4413  0.4437  0.5943
  132MOL   O14526607   1.278   4.951   3.080 -0.0582  0.7883 -0.4622
  132MOL   N14626608   1.313   4.959   2.873 -0.2152 -0.7204 -0.2992
  132MOL   H14726609   0.999   5.035   2.928 -1.4411 -0.1803  0.3218
  132MOL   H14826610   1.016   5.085   3.096  0.1033 -0.0424  0.1484
  132MOL   H14926611   1.204   5.179   2.871  0.8387 -0.7950  0.0411
  132MOL   H15026612   1.308   5.016   2.790 -0.2828  0.4264  0.4868
  132MOL   H15126613   1.348   4.864   2.880 -0.7823 -0.9259 -0.2461
  132MOL   C15226614   1.244   5.245   3.071  0.1303  0.0310  0.4530
  132MOL   C15326615   1.398   5.282   3.043  0.6540 -0.2630  0.2026
  132MOL   C15426616   1.468   5.323   3.175 -0.4674 -0.0887  0.4576
  132MOL   O15526617   1.587   5.295   3.190 -0.2387  0.1940 -0.2910
  132MOL   N15626618   1.408   5.389   3.273 -0.1930 -0.1011  0.2537
  132MOL   H15726619   1.246   5.197   3.169  1.7716 -0.5825  0.1424
  132MOL   H15826620   1.182   5.334   3.079 -1.0566 -0.9915  3.1365
  132MOL   H15926621   1.449   5.196   3.001  0.4445  1.2675 -3.3871
  132MOL   H16026622   1.463   5.408   3.356 -0.9769  2.4764  0.2321
  132MOL   H16126623   1.312   5.416   3.257 -0.4389 -0.4748  1.0782
  132MOL   C16226624   1.405   5.398   2.936 -0.7580 -0.2556  0.0191
  132MOL   C16326625   1.543   5.447   2.882 -0.6634 -0.2869  0.9676
  132MOL   C16426626   1.541   5.568   2.790  0.3634 -0.4614  0.4972
  132MOL   O16526627   1.463   5.662   2.811 -0.1508  0.1698  0.1965
  132MOL   N16626628   1.634   5.580   2.700 -0.3700  0.0733  0.5346
  132MOL   H16726629   1.343   5.482   2.966 -2.7778 -1.0428 -1.8533
  132MOL   H16826630   1.358   5.362   2.845  1.5573 -3.0228 -0.1839
  132MOL   H16926631   1.597   5.478   2.971  0.3010  2.3605 -0.4914
  132MOL   H17026632   1.660   5.671   2.665 -1.4337  0.7124  1.3624
  132MOL   H17126633   1.693   5.500   2.685 -2.5132 -1.3822 -0.4347
  132MOL   C17226634   1.620   5.328   2.820  0.1024 -0.1574 -0.2980
  132MOL   C17326635   1.764   5.300   2.866 -0.5073 -0.1675  0.3123
  132MOL   C17426636   1.872   5.384   2.794  0.8870 -0.6728 -0.4857
  132MOL   O17526637   1.858   5.417   2.673  0.1105  0.3056  0.1464
  132MOL   N17626638   1.975   5.419   2.869  0.1222  0.8857  0.0541
  132MOL   H17726639   1.620   5.322   2.711 -0.7842 -0.0269 -0.3043
  132MOL   H17826640   1.566   5.235   2.838  0.0261 -0.3724 -1.5894
  132MOL   H17926641   1.769   5.336   2.969 -0.0535  1.8908 -0.4069
  132MOL   H18026642   2.054   5.469   2.830  0.3797  1.0039  0.7191
  132MOL   H18126643   1.973   5.396   2.967  0.2285 -2.7160 -0.7048
  132MOL   C18226644   1.793   5.141   2.866  0.4020  0.4587  0.0995
  132MOL   C18326645   1.826   5.074   3.000  0.1321 -0.2512  0.2914
  132MOL   C18426646   1.925   5.154   3.080  0.2451  0.0260 -0.0953
  132MOL   O18526647   2.046   5.135   3.056 -0.4782  0.6263  0.0551
  132MOL   N18626648   1.883   5.229   3.179  0.1987  0.0376  0.3325
  132MOL   H18726649   1.871   5.134   2.790 -0.3446  0.4947 -0.6740
  132MOL   H18826650   1.708   5.088   2.824 -0.0103  1.3681 -0.2418
  132MOL   H18926651   1.730   5.068   3.051 -0.4194 -0.9388 -0.8019
  132MOL   H19026652   1.784   5.243   3.196  0.3871  1.2995  0.4809
  132MOL   H19126653   1.949   5.286   3.230 -0.1650  0.5195  0.2748
  132MOL   C19226654   1.869   4.923   2.973 -0.6759  0.0198 -0.1515
  132MOL   C19326655   1.917   4.888   2.829 -0.0117 -0.3774 -0.3736
  132MOL   C19426656   2.064   4.915   2.801  0.3905 -1.0421  0.3664
  132MOL   O19526657   2.159   4.867   2.865  0.3687  0.1228 -0.1764
  132MOL   N19626658   2.088   4.989   2.697  0.0014 -0.4176  0.0606
  132MOL   H19726659   1.790   4.852   2.999  0.9820 -2.8222 -2.5559
  132MOL   H19826660   1.942   4.887   3.045 -2.4352 -2.4562  0.4760
  132MOL   H19926661   1.901   4.781   2.819 -0.9147 -0.2004 -0.8745
  132MOL   H20026662   2.188   4.998   2.680  0.5607 -1.4508  2.6416
  132MOL   H20126663   2.011   5.025   2.642  0.6033 -0.0609 -0.5588
  132MOL   H20226664   1.855   4.924   2.747 -0.4037  3.4469  1.4561
  133MOL     C126665   1.690   4.956   0.685 -0.4067 -0.0702 -0.3553
  133MOL     C226666   1.533   4.972   0.692 -0.0619 -0.4177 -0.4138
  133MOL     C326667   1.487   5.114   0.670 -0.3892 -0.2618 -0.0555
  133MOL     O426668   1.558   5.213   0.695 -0.0609 -0.1222  0.0101
  133MOL     N526669   1.364   5.124   0.620  0.1030  0.3365 -0.7387
  133MOL     H626670   1.749   4.991   0.769  1.3064 -2.6372 -0.4375
  133MOL     H726671   1.724   4.857   0.658 -0.7267 -0.0655 -0.7971
  133MOL     H826672   1.503   4.919   0.602 -0.9629  0.6161 -0.7266
  133MOL     H926673   1.306   5.043   0.610  0.5497 -0.0046 -0.5690
  133MOL    H1026674   1.314   5.212   0.621 -0.2674  0.1361 -1.1490
  133MOL    H1126675   1.729   5.009   0.598  1.9048 -1.5343 -0.2358
  133MOL    C1226676   1.488   4.912   0.826  0.4951  0.4432 -0.3365
  133MOL    C1326677   1.337   4.890   0.854 -0.4769  0.5709 -0.6582
  133MOL    C1426678   1.269   4.817   0.747 -0.6717 -0.8072 -0.4650
  133MOL    O1526679   1.198   4.878   0.664  0.3270  0.9007 -0.7329
  133MOL    N1626680   1.298   4.692   0.711  0.9266 -0.1162 -0.3225
  133MOL    H1726681   1.550   4.959   0.902  1.3149  0.6998 -1.1523
  133MOL    H1826682   1.526   4.810   0.829 -1.2429 -0.2043  0.4681
  133MOL    H1926683   1.347   4.817   0.935  0.9489  1.0798 -0.3648
  133MOL    H2026684   1.371   4.646   0.764  0.6732 -0.3238 -0.1542
  133MOL    H2126685   1.246   4.656   0.632  0.2521 -0.4879  0.2946
  133MOL    C2226686   1.247   5.012   0.909  0.0013  0.4351  1.1855
  133MOL    C2326687   1.318   5.102   1.015  0.0361  0.3188  0.0898
  133MOL    C2426688   1.343   5.034   1.151  0.0401 -0.9173 -0.4193
  133MOL    O2526689   1.264   4.950   1.192  0.1883 -0.4376 -0.2213
  133MOL    N2626690   1.447   5.078   1.222 -0.1518 -0.4900 -0.1263
  133MOL    H2726691   1.147   4.979   0.938  0.0786  0.4924  1.5200
  133MOL    H2826692   1.219   5.074   0.824  1.1213 -0.2901  0.2849
  133MOL    H2926693   1.417   5.112   0.971 -0.3505 -0.2357 -0.9045
  133MOL    H3026694   1.519   5.141   1.191  2.1314 -2.7113  0.4042
  133MOL    H3126695   1.455   5.040   1.316  0.3672  2.1050  0.9129
  133MOL    C3226696   1.257   5.246   1.028  0.0217  0.5303 -0.0274
  133MOL    C3326697   1.128   5.255   1.125 -0.9008 -0.0739 -0.7408
  133MOL    C3426698   1.001   5.216   1.054  0.0587  0.1971 -0.1516
  133MOL    O3526699   0.973   5.260   0.943 -0.4344  0.1275 -0.0223
  133MOL    N3626700   0.927   5.122   1.109 -0.1870 -0.0400 -0.2213
  133MOL    H3726701   1.241   5.298   0.934 -0.5543  0.1267 -0.1552
  133MOL    H3826702   1.340   5.294   1.078  0.3427 -0.0960  0.0428
  133MOL    H3926703   1.150   5.187   1.207  1.8770  0.4097 -1.0276
  133MOL    H4026704   0.948   5.109   1.207 -0.6875  1.9764  0.1946
  133MOL    H4126705   0.848   5.077   1.066  0.4755 -2.7596  1.2555
  133MOL    C4226706   1.100   5.413   1.172 -0.3418  0.5748  0.5661
  133MOL    C4326707   1.192   5.468   1.285 -0.6429  0.2754 -0.6610
  133MOL    C4426708   1.303   5.560   1.234  0.4122  0.1457  0.4323
  133MOL    O4526709   1.425   5.543   1.243  0.2464  0.0814  0.3712
  133MOL    N4626710   1.264   5.654   1.157  0.0838 -0.5196 -0.3373
  133MOL    H4726711   1.001   5.422   1.216 -0.5417 -0.5485  0.3572
  133MOL    H4826712   1.101   5.483   1.089  3.1557  0.3918  0.3711
  133MOL    H4926713   1.130   5.540   1.339 -2.0961 -0.8523 -0.7866
  133MOL    H5026714   1.165   5.665   1.146  0.0788  0.6117  0.7662
  133MOL    H5126715   1.325   5.719   1.109  1.0798 -1.6370 -0.6320
  133MOL    C5226716   1.240   5.367   1.400 -0.1485 -0.0847 -0.9704
  133MOL    C5326717   1.137   5.290   1.472  0.3493 -0.0876 -0.3117
  133MOL    C5426718   1.060   5.373   1.576 -0.1337  0.3461 -0.7052
  133MOL    O5526719   1.094   5.381   1.694  0.2683 -0.2492 -0.8215
  133MOL    N5626720   0.958   5.446   1.531 -0.2132  0.5588  0.1314
  133MOL    H5726721   1.282   5.434   1.475 -1.7471  1.3580 -1.3529
  133MOL    H5826722   1.326   5.306   1.371  0.2210 -0.7912  1.4978
  133MOL    H5926723   1.059   5.263   1.400  1.3768  2.1670 -2.3126
  133MOL    H6026724   0.919   5.425   1.440 -2.1485  0.3877  0.9886
  133MOL    H6126725   0.910   5.520   1.578  3.1511  1.4691  2.3215
  133MOL    C6226726   1.200   5.159   1.525 -0.0972  0.2577 -0.8107
  133MOL    C6326727   1.109   5.040   1.575  0.7888  0.3532 -0.2852
  133MOL    C6426728   1.025   4.980   1.473  0.2177 -0.2804  0.3616
  133MOL    O6526729   0.952   5.051   1.405 -0.7111  0.1473  0.1575
  133MOL    N6626730   1.035   4.848   1.460  0.0469  0.0300  0.4095
  133MOL    H6726731   1.261   5.181   1.612 -1.6351 -3.5992  1.3787
  133MOL    H6826732   1.274   5.112   1.460 -1.7068 -0.5118 -2.1288
  133MOL    H6926733   1.182   4.966   1.608 -0.0191 -0.3131  0.0244
  133MOL    H7026734   1.093   4.792   1.520  1.6354  2.7313  1.5180
  133MOL    H7126735   1.017   4.817   1.365  0.1039 -0.6327  0.6161
  133MOL    C7226736   1.030   5.073   1.709 -0.1309  0.0307  0.1072
  133MOL    C7326737   1.015   4.941   1.798  0.3693 -0.2265  0.1223
  133MOL    C7426738   0.890   4.855   1.763 -0.4845 -0.4914  0.2084
  133MOL    O7526739   0.782   4.908   1.768  0.8815  0.7634  0.4065
  133MOL    N7626740   0.907   4.730   1.727 -0.1977 -0.0188 -0.4368
  133MOL    H7726741   0.937   5.128   1.693  0.0913  1.1138  2.3405
  133MOL    H7826742   1.085   5.144   1.770 -0.4732  0.7312 -0.3931
  133MOL    H7926743   1.095   4.867   1.789 -0.3802 -0.8678 -1.4819
  133MOL    H8026744   1.002   4.703   1.707 -0.0988 -0.7969  1.0300
  133MOL    H8126745   0.826   4.684   1.687 -2.8940  3.4964  0.7110
  133MOL    C8226746   1.007   4.967   1.948 -0.4117 -0.0637  0.0940
  133MOL    C8326747   1.145   4.957   2.022 -0.1036  0.0237  1.1218
  133MOL    C8426748   1.190   4.808   2.034 -0.0846 -0.9189  0.4421
  133MOL    O8526749   1.130   4.740   2.118 -0.3434 -0.3968  0.1737
  133MOL    N8626750   1.300   4.787   1.966  0.0797 -0.2709  0.4292
  133MOL    H8726751   0.942   4.894   1.996  0.5218 -0.9485  0.0387
  133MOL    H8826752   0.946   5.056   1.955  1.0594  1.2654 -3.1363
  133MOL    H8926753   1.213   5.010   1.955 -1.2062 -1.5316 -1.3022
  133MOL    H9026754   1.348   4.856   1.911  0.5688  0.0003  1.1878
  133MOL    H9126755   1.355   4.702   1.973  1.3344  0.4501 -0.4532
  133MOL    C9226756   1.141   5.035   2.157  0.0982 -0.1328 -0.1647
  133MOL    C9326757   1.275   5.056   2.237 -0.1753  0.7196 -0.2193
  133MOL    C9426758   1.337   4.928   2.295 -0.6455 -0.2880 -0.2332
  133MOL    O9526759   1.280   4.844   2.361 -0.4334 -0.1772  0.2742
  133MOL    N9626760   1.463   4.902   2.264  1.0479  0.1820  0.1230
  133MOL    H9726761   1.070   4.983   2.222  2.2462 -1.4154  1.1873
  133MOL    H9826762   1.085   5.126   2.132 -0.5494 -0.9954 -1.9396
  133MOL    H9926763   1.341   5.093   2.158 -1.5853  0.6380 -1.4707
  133MOL   H10026764   1.502   4.812   2.288  0.0374 -0.8676 -2.0175
  133MOL   H10126765   1.522   4.966   2.213  1.2726  1.5479  2.0285
  133MOL   C10226766   1.265   5.165   2.352 -0.8836  0.7024 -0.9617
  133MOL   C10326767   1.398   5.201   2.425  0.3186  0.4527  0.2913
  133MOL   C10426768   1.426   5.117   2.553 -0.1725 -0.6207 -0.1563
  133MOL   O10526769   1.331   5.110   2.632  0.2439  0.4422 -0.4038
  133MOL   N10626770   1.546   5.056   2.559  0.1096 -0.1760  0.6311
  133MOL   H10726771   1.202   5.119   2.429 -1.3811  1.5739 -0.8439
  133MOL   H10826772   1.210   5.254   2.322 -2.3977  0.2124  0.2445
  133MOL   H10926773   1.479   5.180   2.355 -1.8946 -0.9252 -1.9822
  133MOL   H11026774   1.624   5.090   2.505 -1.3824  2.8643  0.2695
  133MOL   H11126775   1.564   4.994   2.636  1.1851  1.4221  1.6931
  133MOL   C11226776   1.410   5.345   2.447  0.3117 -0.0594  0.1171
  133MOL   C11326777   1.429   5.419   2.307  0.1152 -0.5745  0.1913
  133MOL   C11426778   1.580   5.456   2.281  0.2455  0.3222 -0.0622
  133MOL   O11526779   1.625   5.561   2.327 -0.1133 -0.2454 -0.1359
  133MOL   N11626780   1.649   5.372   2.204  0.5879 -0.0973  0.4071
  133MOL   H11726781   1.496   5.364   2.512 -0.8098  0.7100  1.4125
  133MOL   H11826782   1.332   5.385   2.512 -2.3047 -1.6842 -1.9427
  133MOL   H11926783   1.407   5.361   2.218  1.1015 -0.5403 -0.0844
  133MOL   H12026784   1.605   5.284   2.179  0.8451 -0.4805  1.2678
  133MOL   H12126785   1.745   5.387   2.177  1.2735  1.4718  3.5150
  133MOL   C12226786   1.346   5.558   2.301 -0.1795 -0.1270 -0.3030
  133MOL   C12326787   1.198   5.534   2.244 -0.6940 -0.2633  0.8711
  133MOL   C12426788   1.201   5.510   2.089  0.3019  0.5839  0.1165
  133MOL   O12526789   1.302   5.536   2.031  0.3166 -0.1508  0.0362
  133MOL   N12626790   1.105   5.441   2.024 -0.4845 -0.6482 -0.1250
  133MOL   H12726791   1.403   5.625   2.237  0.5461 -1.0288 -0.6177
  133MOL   H12826792   1.335   5.605   2.399  0.8381 -4.5270  2.0749
  133MOL   H12926793   1.154   5.446   2.291 -0.4740  0.0567  1.6891
  133MOL   H13026794   1.116   5.413   1.928  1.4606  0.9576 -0.4142
  133MOL   H13126795   1.028   5.407   2.079 -0.0422 -1.6766 -0.1355
  133MOL   C13226796   1.097   5.647   2.282  0.1536  0.5459 -0.1350
  133MOL   C13326797   0.992   5.640   2.397 -0.1922 -0.4368  0.8675
  133MOL   C13426798   1.052   5.593   2.533 -0.3532 -0.0351 -0.0354
  133MOL   O13526799   1.106   5.482   2.546 -0.3715  0.2249 -0.3783
  133MOL   N13626800   1.063   5.687   2.625 -0.6556  0.0476 -0.2925
  133MOL   H13726801   1.036   5.662   2.192  1.4511  1.0924 -0.9311
  133MOL   H13826802   1.150   5.742   2.290  0.2329  0.3077  2.6928
  133MOL   H13926803   0.965   5.745   2.407  1.8253  0.4767 -2.4789
  133MOL   H14026804   1.009   5.772   2.612  0.1024  0.4177 -1.0981
  133MOL   H14126805   1.094   5.662   2.718 -1.2607  0.7273  0.1030
  133MOL   C14226806   0.859   5.561   2.370 -0.1013 -0.7864  0.3293
  133MOL   C14326807   0.844   5.408   2.398  1.0115 -0.3538  0.0358
  133MOL   C14426808   0.898   5.321   2.280  0.5919 -0.1099  0.3999
  133MOL   O14526809   0.915   5.363   2.165 -0.3222  0.3951 -0.2133
  133MOL   N14626810   0.937   5.205   2.318 -0.5024  0.8655 -0.2309
  133MOL   H14726811   0.834   5.590   2.268 -2.1274  0.3140  1.1192
  133MOL   H14826812   0.783   5.606   2.434 -0.3689 -0.9805  0.1489
  133MOL   H14926813   0.896   5.376   2.488 -0.5310 -0.7029  0.8080
  133MOL   H15026814   0.926   5.177   2.414 -0.0057  0.2587 -0.3435
  133MOL   H15126815   0.980   5.136   2.257 -0.6638  2.1308 -1.8083
  133MOL   C15226816   0.697   5.367   2.408  0.9436 -1.0617  0.1202
  133MOL   C15326817   0.615   5.424   2.526 -0.9646  0.4341 -0.0644
  133MOL   C15426818   0.697   5.417   2.656  0.6264 -0.1783 -0.1952
  133MOL   O15526819   0.708   5.307   2.705  0.1318 -0.7954 -0.4049
  133MOL   N15626820   0.754   5.530   2.712  0.3909  0.0611  0.7146
  133MOL   H15726821   0.695   5.258   2.403 -0.8082 -1.0626  0.3465
  133MOL   H15826822   0.636   5.392   2.321 -2.8794 -1.5450  2.5447
  133MOL   H15926823   0.594   5.529   2.506  0.8013  0.7533 -0.3105
  133MOL   H16026824   0.737   5.617   2.665 -1.2254 -0.8651 -0.4986
  133MOL   H16126825   0.831   5.522   2.777 -0.3455  0.5711  1.6489
  133MOL   C16226826   0.481   5.348   2.535  0.0465 -0.0799 -0.4199
  133MOL   C16326827   0.390   5.394   2.649 -0.6247  0.6688  0.1400
  133MOL   C16426828   0.301   5.275   2.671 -0.4097 -0.3223 -0.1188
  133MOL   O16526829   0.209   5.253   2.591 -0.2471  0.0972 -0.0586
  133MOL   N16626830   0.337   5.185   2.763 -0.4613  0.4053  0.3164
  133MOL   H16726831   0.509   5.243   2.549  0.3359 -0.0443 -0.7293
  133MOL   H16826832   0.426   5.347   2.441  1.1517 -2.9603 -1.0863
  133MOL   H16926833   0.452   5.393   2.739  1.5043 -2.1339 -1.2626
  133MOL   H17026834   0.421   5.197   2.817 -0.4972  0.7026  0.3057
  133MOL   H17126835   0.295   5.093   2.762 -1.2351  0.7525 -1.2250
  133MOL   C17226836   0.312   5.523   2.610 -0.0865 -0.3771 -0.3104
  133MOL   C17326837   0.210   5.584   2.718  0.7422 -0.5931 -0.1694
  133MOL   C17426838   0.184   5.730   2.679 -0.3561  0.0704 -0.1738
  133MOL   O17526839   0.208   5.823   2.757  0.1707 -0.1094 -0.0513
  133MOL   N17626840   0.132   5.757   2.557  0.0662  0.1408  0.1507
  133MOL   H17726841   0.245   5.500   2.527 -2.1276  2.4308  0.4984
  133MOL   H17826842   0.379   5.604   2.583  0.1037  0.4557  2.4546
  133MOL   H17926843   0.118   5.526   2.714  0.8856 -0.8720  0.5094
  133MOL   H18026844   0.140   5.852   2.522 -3.4031 -0.3004 -2.1086
  133MOL   H18126845   0.115   5.685   2.488 -1.5240  0.2823  0.3753
  133MOL   C18226846   0.266   5.582   2.861 -0.6806 -0.0285  0.7841
  133MOL   C18326847   0.153   5.607   2.965  0.3259 -0.8239  0.5347
  133MOL   C18426848   0.219   5.628   3.101 -0.5142  0.6485  0.2525
  133MOL   O18526849   0.321   5.569   3.129 -0.4151 -0.0586 -0.4214
  133MOL   N18626850   0.181   5.728   3.171 -0.7810 -0.6585 -0.5292
  133MOL   H18726851   0.356   5.642   2.869  0.2254 -1.0780 -1.1554
  133MOL   H18826852   0.303   5.480   2.875  0.5454  0.7689  3.6376
  133MOL   H18926853   0.112   5.706   2.949 -0.1762 -1.2667 -0.9740
  133MOL   H19026854   0.107   5.794   3.156 -0.3141  0.5788  2.2607
  133MOL   H19126855   0.242   5.753   3.248 -2.6514  0.4694  0.6075
  133MOL   C19226856   0.038   5.498   2.975 -0.1088 -0.7917  0.2136
  133MOL   C19326857   0.061   5.349   2.937  0.1649 -0.2776 -0.1192
  133MOL   C19426858   0.130   5.272   3.049 -0.5403  0.8883 -0.5854
  133MOL   O19526859   0.252   5.272   3.057  0.4116 -0.4781 -0.1768
  133MOL   N19626860   0.049   5.210   3.136 -0.2562  0.1133 -0.4318
  133MOL   H19726861   7.601   5.520   2.924 -0.9076 -0.1247  1.9236
  133MOL   H19826862   0.010   5.493   3.080 -1.5110 -0.2810 -0.1309
  133MOL   H19926863   7.620   5.306   2.920  0.1420  0.5596 -2.2822
  133MOL   H20026864   7.606   5.206   3.124 -0.3917  2.5645 -0.3856
  133MOL   H20126865   0.080   5.155   3.215  0.7794  2.4455  0.8198
  133MOL   H20226866   0.118   5.353   2.844 -0.3740 -0.6314 -0.4596
  134MOL     C126867   0.164   6.692   3.530 -0.2446  0.5058 -0.5034
  134MOL     C226868   0.045   6.601   3.502 -0.1766 -0.3897  0.3289
  134MOL     C326869   7.591   6.619   3.614 -0.7616  0.4066 -0.2076
  134MOL     O426870   7.622   6.574   3.726 -0.6811 -0.1380 -0.4877
  134MOL     N526871   7.475   6.678   3.592  0.0027 -0.0728  0.0863
  134MOL     H626872   0.131   6.793   3.556 -0.6193  0.6276 -1.4089
  134MOL     H726873   0.238   6.652   3.598  0.6055  0.8230 -1.2243
  134MOL     H826874   7.656   6.628   3.407  1.6661 -0.6458 -0.6772
  134MOL     H926875   7.460   6.729   3.506  0.6081 -2.4695 -1.4993
  134MOL    H1026876   7.406   6.682   3.666 -0.3890  0.3224 -0.2992
  134MOL    H1126877   0.213   6.704   3.433 -1.8861  0.7132 -1.3347
  134MOL    C1226878   0.092   6.456   3.487  0.2322 -0.2046  0.1777
  134MOL    C1326879   0.204   6.421   3.381  0.2343  0.4041 -0.3593
  134MOL    C1426880   0.152   6.448   3.239  0.0494  0.3857  0.1279
  134MOL    O1526881   0.041   6.418   3.203  1.0772  0.0472  0.4989
  134MOL    N1626882   0.235   6.515   3.161  0.3600  0.0235 -0.1984
  134MOL    H1726883   0.010   6.386   3.471  1.0235 -1.0220 -0.3441
  134MOL    H1826884   0.123   6.422   3.586  1.5294 -1.3988 -0.6184
  134MOL    H1926885   0.288   6.489   3.386  0.3591  0.2896 -0.9055
  134MOL    H2026886   0.207   6.538   3.066  2.1357 -1.7767 -1.1883
  134MOL    H2126887   0.327   6.548   3.186  0.0635 -0.1763  1.1511
  134MOL    C2226888   0.255   6.276   3.389  0.1085 -0.1471 -0.0770
  134MOL    C2326889   0.333   6.238   3.526 -0.9920  0.6946 -0.4848
  134MOL    C2426890   0.250   6.181   3.640  0.0260  0.2402  0.5513
  134MOL    O2526891   0.276   6.189   3.759  0.8034  0.0341  0.0334
  134MOL    N2626892   0.140   6.114   3.602 -0.1329 -0.5113 -0.4155
  134MOL    H2726893   0.331   6.281   3.312 -1.5722 -1.0586 -1.8405
  134MOL    H2826894   0.182   6.198   3.363 -1.0861  0.4415  1.3896
  134MOL    H2926895   0.403   6.155   3.514 -2.0667 -0.3268  0.3043
  134MOL    H3026896   0.110   6.114   3.506 -2.3801 -1.1187  0.2583
  134MOL    H3126897   0.069   6.093   3.671  1.9744 -1.3543  1.5682
  134MOL    C3226898   0.423   6.352   3.587 -0.2820  0.2990  0.5402
  134MOL    C3326899   0.535   6.395   3.488  0.7936  0.1778 -0.2413
  134MOL    C3426900   0.651   6.293   3.507 -1.0724 -0.6169 -0.4946
  134MOL    O3526901   0.700   6.260   3.616 -0.2328 -0.1820  0.5185
  134MOL    N3626902   0.694   6.246   3.395 -0.2879 -0.4915  0.5702
  134MOL    H3726903   0.460   6.328   3.687  0.5453 -0.7580  0.0002
  134MOL    H3826904   0.349   6.430   3.607 -0.5647  0.4352 -0.9848
  134MOL    H3926905   0.506   6.408   3.384 -0.4004 -0.0733  0.0472
  134MOL    H4026906   0.652   6.271   3.307  2.3774 -2.1872 -1.2496
  134MOL    H4126907   0.771   6.181   3.389  0.4257  0.4900 -1.1228
  134MOL    C4226908   0.574   6.538   3.526 -0.0199 -0.0910  0.5163
  134MOL    C4326909   0.647   6.623   3.414  0.5555  0.0798 -0.6292
  134MOL    C4426910   0.565   6.663   3.291  0.6784 -0.1845 -0.3682
  134MOL    O4526911   0.470   6.599   3.250 -0.4835 -0.5401  0.3761
  134MOL    N4626912   0.600   6.774   3.236 -0.4962  0.6617  1.1324
  134MOL    H4726913   0.636   6.532   3.616 -1.1267  0.3682  1.3269
  134MOL    H4826914   0.490   6.602   3.554  0.3854  1.4548 -1.6980
  134MOL    H4926915   0.668   6.708   3.478 -1.5744 -0.6843  1.1716
  134MOL    H5026916   0.675   6.838   3.258 -0.3958  0.7977  0.4236
  134MOL    H5126917   0.544   6.797   3.155 -0.6412 -0.4813  0.9020
  134MOL    C5226918   0.787   6.572   3.378  0.3748  0.0356 -0.0461
  134MOL    C5326919   0.897   6.663   3.329 -0.6324 -0.0355 -0.0265
  134MOL    C5426920   1.003   6.570   3.267  0.1856 -0.3473  0.2390
  134MOL    O5526921   1.053   6.480   3.335  0.0108  0.0665  0.2897
  134MOL    N5626922   1.048   6.597   3.146 -0.1065  0.6669 -0.1171
  134MOL    H5726923   0.768   6.497   3.302 -1.0317 -1.1474  1.4386
  134MOL    H5826924   0.828   6.525   3.467  0.8807 -1.9870 -1.3198
  134MOL    H5926925   0.853   6.716   3.244 -1.1636 -1.5525 -0.7090
  134MOL    H6026926   1.021   6.680   3.096 -3.1624  0.5861  1.2850
  134MOL    H6126927   1.112   6.526   3.112 -0.5342  1.0254 -1.7191
  134MOL    C6226928   0.961   6.761   3.437  0.5235  0.2712 -0.0962
  134MOL    C6326929   0.886   6.896   3.469 -0.5858  0.2459 -0.4744
  134MOL    C6426930   0.822   6.965   3.351 -0.0474 -0.3854 -0.6725
  134MOL    O6526931   0.703   7.010   3.362 -0.0128  0.2675  0.0840
  134MOL    N6626932   0.896   6.974   3.241  0.5097 -0.2673 -0.6504
  134MOL    H6726933   1.056   6.796   3.397  1.1731  2.1879  2.9926
  134MOL    H6826934   0.981   6.713   3.533  0.3672  2.7780  1.2208
  134MOL    H6926935   0.803   6.863   3.531 -0.6694  0.7380 -0.3231
  134MOL    H7026936   0.861   7.028   3.164  0.5964  1.4598  0.5006
  134MOL    H7126937   0.994   6.950   3.234  0.5720 -0.1001 -0.3701
  134MOL    C7226938   0.972   6.994   3.544 -0.5333  0.3597  0.2496
  134MOL    C7326939   0.903   7.101   3.634 -0.4414  0.7378  0.1502
  134MOL    C7426940   1.014   7.207   3.668  0.3366  0.4102  0.0828
  134MOL    O7526941   1.110   7.168   3.735  0.2076  0.1045  0.3990
  134MOL    N7626942   1.009   7.332   3.621  0.0319  0.2226 -0.2054
  134MOL    H7726943   1.034   7.052   3.476  0.2402  0.1753  0.7874
  134MOL    H7826944   1.047   6.938   3.600 -1.3568 -0.6481  0.3527
  134MOL    H7926945   0.828   7.159   3.582 -0.6925  0.7919  0.5721
  134MOL    H8026946   0.930   7.361   3.566  1.0796  0.4540 -1.6140
  134MOL    H8126947   1.071   7.403   3.657 -1.5216  1.6712 -0.3449
  134MOL    C8226948   0.842   7.043   3.770 -0.1132  0.0069 -0.5241
  134MOL    C8326949   0.726   7.133   3.813 -0.2074  0.1739  0.1193
  134MOL    C8426950   0.694   7.124   3.968 -0.3657  0.5743 -0.2555
  134MOL    O8526951   0.686   7.015   4.028 -0.1455  0.6568  0.0127
  134MOL    N8626952   0.671   7.244   4.025  0.6539  0.3304 -0.3554
  134MOL    H8726953   0.920   7.038   3.845  0.8264  1.4803 -1.3711
  134MOL    H8826954   0.806   6.943   3.748 -2.2165  0.7676 -0.7530
  134MOL    H8926955   0.763   7.233   3.791  0.8708 -0.1010  0.6686
  134MOL    H9026956   0.677   7.276   4.121 -0.4292 -0.1126 -0.1429
  134MOL    H9126957   0.676   7.324   3.964  1.0178  0.4836 -0.1307
  134MOL    C9226958   0.601   7.101   3.726 -0.2901 -0.6837 -0.1979
  134MOL    C9326959   0.535   7.220   3.645 -0.3872 -0.0355  0.2904
  134MOL    C9426960   0.526   7.357   3.714  0.4293 -0.0791 -0.7810
  134MOL    O9526961   0.449   7.366   3.810  0.0344 -0.7131  0.0601
  134MOL    N9626962   0.598   7.451   3.659 -0.0917  0.3102 -0.6796
  134MOL    H9726963   0.526   7.051   3.787  0.6798 -1.7555  0.1399
  134MOL    H9826964   0.620   7.021   3.655  0.4311  2.2864 -3.5021
  134MOL    H9926965   0.611   7.227   3.567 -0.6835 -0.3087 -0.0221
  134MOL   H10026966   0.597   7.544   3.700 -0.0354  0.2062 -0.4428
  134MOL   H10126967   0.652   7.430   3.577  0.2429 -0.9932 -0.1223
  134MOL   C10226968   0.400   7.176   3.587 -0.5647 -0.4877  0.0123
  134MOL   C10326969   0.384   7.195   3.435 -0.7365  0.2407  0.0203
  134MOL   C10426970   0.358   7.343   3.412  0.0536 -0.1758 -0.0997
  134MOL   O10526971   0.251   7.399   3.423  0.3560  0.5395  0.5661
  134MOL   N10626972   0.460   7.420   3.379  0.7043  0.3841 -0.0336
  134MOL   H10726973   0.323   7.227   3.645 -0.3431 -0.1160 -0.0185
  134MOL   H10826974   0.379   7.071   3.610  2.6823 -1.0526  0.6538
  134MOL   H10926975   0.480   7.178   3.387  0.0913 -1.3497  2.1912
  134MOL   H11026976   0.437   7.516   3.359  3.0633  0.7597 -1.0700
  134MOL   H11126977   0.552   7.381   3.365  0.6821  0.1374  0.4819
  134MOL   C11226978   0.278   7.103   3.368 -0.2083  0.4176  0.4361
  134MOL   C11326979   0.284   7.110   3.215  0.2340  0.0632 -0.2664
  134MOL   C11426980   0.175   7.196   3.157  0.1047 -0.1688 -0.3955
  134MOL   O11526981   0.063   7.158   3.136  0.0344 -0.3782 -0.1832
  134MOL   N11626982   0.209   7.315   3.117 -0.0871  0.4654  0.2393
  134MOL   H11726983   0.176   7.111   3.404 -0.2326  0.5603  0.3378
  134MOL   H11826984   0.317   7.008   3.404  1.6128  0.8442 -0.3602
  134MOL   H11926985   0.378   7.163   3.195 -0.2219  1.0548  0.1649
  134MOL   H12026986   0.145   7.369   3.060 -2.3580 -0.7394  1.5938
  134MOL   H12126987   0.300   7.358   3.125  0.1607 -0.1001  0.4883
  134MOL   C12226988   0.290   6.967   3.150  0.6048  0.4121  0.0374
  134MOL   C12326989   0.346   6.966   3.009  0.3011  0.1016 -0.6932
  134MOL   C12426990   0.303   6.836   2.934 -0.2353 -0.0375 -0.0839
  134MOL   O12526991   0.350   6.734   2.977 -0.4924  0.1650 -0.0435
  134MOL   N12626992   0.220   6.837   2.834 -0.2858 -0.0167  0.3507
  134MOL   H12726993   0.192   6.919   3.142  1.5461 -1.4135 -0.9554
  134MOL   H12826994   0.332   6.889   3.215 -1.8908 -0.3893  0.7518
  134MOL   H12926995   0.298   7.052   2.961  1.0487  0.4411 -0.8360
  134MOL   H13026996   0.180   6.924   2.801  1.1387 -0.4846 -2.7974
  134MOL   H13126997   0.186   6.755   2.786  1.4881 -0.0004 -0.9607
  134MOL   C13226998   0.499   6.987   3.017  0.7887 -0.0627  0.3058
  134MOL   C13326999   0.560   7.100   2.923  0.0625  0.3717 -0.5818
  134MOL   C13427000   0.714   7.090   2.924  0.3386 -0.5863  0.3177
  134MOL   O13527001   0.778   7.126   3.024 -0.1408 -0.3130 -0.4151
  134MOL   N13627002   0.774   7.057   2.809  0.1277  0.6546 -0.9238
  134MOL   H13727003   0.571   6.906   3.009 -1.9347 -2.4389 -0.8469
  134MOL   H13827004   0.521   7.020   3.118  3.4101 -2.7753  0.6869
  134MOL   H13927005   0.531   7.089   2.819  1.3630 -1.8646 -0.7394
  134MOL   H14027006   0.875   7.060   2.800  0.1668  1.7545 -0.2348
  134MOL   H14127007   0.716   7.026   2.733  0.7434 -0.0286 -1.1185
  134MOL   C14227008   0.513   7.248   2.961  0.1880 -0.3909 -0.0626
  134MOL   C14327009   0.568   7.376   2.894 -0.4480 -0.3850 -0.2504
  134MOL   C14427010   0.537   7.494   2.991 -0.0447 -0.4370 -0.4875
  134MOL   O14527011   0.430   7.494   3.055  0.0496 -0.3788 -0.0944
  134MOL   N14627012   0.629   7.589   3.014  0.1180  0.2357 -0.2687
  134MOL   H14727013   0.532   7.246   3.069 -1.9788 -2.0083  0.3129
  134MOL   H14827014   0.404   7.249   2.956  0.1216 -0.5389  1.2145
  134MOL   H14927015   0.677   7.367   2.896 -0.1416  2.0939 -2.6157
  134MOL   H15027016   0.710   7.593   2.954 -0.6488 -0.3130 -1.3581
  134MOL   H15127017   0.600   0.018   3.059 -1.4188  0.0786 -0.9206
  134MOL   C15227018   0.524   7.403   2.749 -0.5159  0.1148  0.4110
  134MOL   C15327019   0.585   7.515   2.669 -0.5078  0.2204 -0.1548
  134MOL   C15427020   0.740   7.523   2.678  0.5308 -0.0981 -0.9674
  134MOL   O15527021   0.791   7.570   2.777 -0.5056 -0.0691  0.2829
  134MOL   N15627022   0.811   7.485   2.565 -0.4753  0.5210  0.0115
  134MOL   H15727023   0.415   7.400   2.741 -0.4594 -1.4339 -0.0197
  134MOL   H15827024   0.558   7.313   2.698 -0.7384  0.5465 -0.5136
  134MOL   H15927025   0.569   7.477   2.568 -1.7435 -1.0538  0.4956
  134MOL   H16027026   0.765   7.452   2.481  1.4004 -0.7067 -0.5646
  134MOL   H16127027   0.910   7.502   2.571 -0.0634 -2.3804  2.6922
  134MOL   C16227028   0.506   7.649   2.667  0.0241 -0.2426 -0.7664
  134MOL   C16327029   0.553   0.099   2.570  0.3897 -0.8517 -0.2081
  134MOL   C16427030   0.667   0.173   2.634  0.2613 -0.2600 -0.5358
  134MOL   O16527031   0.652   0.231   2.742 -0.1196  0.5950  0.4130
  134MOL   N16627032   0.778   0.186   2.570 -0.4977  0.4416  0.0615
  134MOL   H16727033   0.512   0.029   2.770 -0.5366  2.5195 -1.6858
  134MOL   H16827034   0.400   7.626   2.656 -0.3268  1.5533 -1.2304
  134MOL   H16927035   0.597   0.062   2.477  1.6624 -0.3642  0.1859
  134MOL   H17027036   0.853   0.246   2.599  0.4931 -1.0313  0.6313
  134MOL   H17127037   0.797   0.137   2.483 -0.8608 -0.1446  0.3054
  134MOL   C17227038   0.445   0.209   2.535  0.2421 -0.1608  0.1166
  134MOL   C17327039   0.347   0.173   2.414 -0.7673 -0.4832 -0.2664
  134MOL   C17427040   0.435   0.182   2.290 -0.3756  0.3435 -1.1978
  134MOL   O17527041   0.506   0.283   2.265 -0.0093  0.7174  0.2283
  134MOL   N17627042   0.439   0.065   2.221  0.2583 -0.0965 -0.2774
  134MOL   H17727043   0.499   0.299   2.504  0.6046  0.0979  1.4679
  134MOL   H17827044   0.388   0.238   2.624 -2.2088  0.2755 -1.5490
  134MOL   H17927045   0.315   0.071   2.435  1.5315 -0.7982  2.0278
  134MOL   H18027046   0.489   0.051   2.135 -0.6925 -0.4675 -0.7796
  134MOL   H18127047   0.383   7.643   2.248  0.2705  0.0348  0.1328
  134MOL   C18227048   0.228   0.275   2.414 -0.5946 -0.2425  0.0139
  134MOL   C18327049   0.125   0.267   2.301 -0.1591 -0.1315 -0.1938
  134MOL   C18427050   0.033   0.383   2.281  0.3023  0.4119 -0.9342
  134MOL   O18527051   0.046   0.460   2.188  0.0885  0.7042  0.0877
  134MOL   N18627052   7.575   0.384   2.353 -0.4364  0.0620  0.0428
  134MOL   H18727053   0.258   0.378   2.436 -1.3452 -0.0645  0.2081
  134MOL   H18827054   0.181   0.249   2.509  0.9578  2.6644  1.6417
  134MOL   H18927055   0.175   0.256   2.205  0.0247 -0.5332 -0.0516
  134MOL   H19027056   7.491   0.435   2.330 -0.6385 -0.6778 -0.8581
  134MOL   H19127057   7.574   0.325   2.435  0.3855 -2.3857 -1.6675
  134MOL   C19227058   0.048   0.133   2.312 -0.0507  0.3884 -0.1462
  134MOL   C19327059   7.603   0.097   2.199 -0.4628 -0.8627  0.9313
  134MOL   C19427060   0.002   0.053   2.067 -0.0339 -0.3925  0.1243
  134MOL   O19527061   0.117   0.046   2.045  0.4952 -0.2765  0.3372
  134MOL   N19627062   7.570   0.033   1.970  0.0469 -0.4548  0.0394
  134MOL   H19727063   0.002   0.115   2.409  2.9342  2.5004  1.7462
  134MOL   H19827064   0.114   0.047   2.325 -0.6341 -0.0889 -0.3239
  134MOL   H19927065   7.525   0.025   2.223 -0.8047 -0.2895  1.5841
  134MOL   H20027066   7.613   0.021   1.879 -0.2357  2.4847 -0.5544
  134MOL   H20127067   7.471   0.044   1.988 -0.0875 -1.5424 -0.0289
  134MOL   H20227068   7.541   0.185   2.181 -1.1276 -1.0337  2.2958
  135MOL     C127069   1.197   5.520   5.496 -0.6909 -0.1574  0.1594
  135MOL     C227070   1.084   5.534   5.599 -0.1635 -0.1312 -0.2045
  135MOL     C327071   1.065   5.402   5.679  0.3468  0.1438  0.2755
  135MOL     O427072   1.061   5.296   5.616  0.4232 -0.5165  0.6242
  135MOL     N527073   1.067   5.414   5.812  0.7002  0.3209 -0.5465
  135MOL     H627074   1.295   5.514   5.544  0.2778 -1.7382 -1.9236
  135MOL     H727075   1.198   5.427   5.439  3.3928 -1.0740  1.5249
  135MOL     H827076   1.116   5.612   5.668  0.8869 -1.5012  0.8814
  135MOL     H927077   1.038   5.329   5.857  1.5734  0.7477  0.8709
  135MOL    H1027078   1.086   5.497   5.867  2.3727 -0.0065 -0.5941
  135MOL    H1127079   1.202   5.597   5.420 -1.0945 -0.6098 -0.3243
  135MOL    C1227080   0.958   5.567   5.525  0.1394 -0.7664  0.0059
  135MOL    C1327081   0.818   5.568   5.604 -0.2393  0.5639 -0.1823
  135MOL    C1427082   0.708   5.596   5.508  0.0179  0.4556 -0.3208
  135MOL    O1527083   0.678   5.708   5.468  0.8738  0.1998  0.4040
  135MOL    N1627084   0.637   5.496   5.450 -0.2142 -0.3350 -0.4793
  135MOL    H1727085   0.957   5.485   5.453  0.7471 -2.4079  1.8127
  135MOL    H1827086   0.971   5.662   5.473 -2.7963 -1.0168 -1.3058
  135MOL    H1927087   0.799   5.470   5.648 -1.4862  1.6444  1.7509
  135MOL    H2027088   0.666   5.403   5.475 -1.0898 -0.2814  0.7936
  135MOL    H2127089   0.593   5.525   5.364 -1.4412  0.2957  0.3305
  135MOL    C2227090   0.823   5.675   5.715  0.0836  0.0886  0.3866
  135MOL    C2327091   0.722   5.651   5.835 -0.9706  0.3408  0.2371
  135MOL    C2427092   0.731   5.507   5.898  0.5257 -0.5757  0.0906
  135MOL    O2527093   0.662   5.418   5.848 -0.1181  0.1864  0.0428
  135MOL    N2627094   0.801   5.481   6.004  0.0849 -0.2341  0.3629
  135MOL    H2727095   0.809   5.776   5.676  1.8396 -0.0696 -0.6937
  135MOL    H2827096   0.919   5.687   5.765 -0.3079  0.0729  1.1541
  135MOL    H2927097   0.741   5.710   5.925 -4.1987 -0.2952  1.4092
  135MOL    H3027098   0.851   5.545   6.064 -0.1885 -0.6130  1.0036
  135MOL    H3127099   0.792   5.386   6.037 -2.8015  0.2277  1.0375
  135MOL    C3227100   0.578   5.695   5.802 -0.8044 -0.0748  1.1109
  135MOL    C3327101   0.548   5.847   5.836 -1.0202  0.4454  0.2140
  135MOL    C3427102   0.518   5.853   5.989 -0.5211  0.6042 -0.3656
  135MOL    O3527103   0.430   5.782   6.043 -0.3971 -0.4674  0.1355
  135MOL    N3627104   0.598   5.935   6.066  0.3205  0.0750 -0.2539
  135MOL    H3727105   0.502   5.638   5.856 -1.3854  0.1980  0.5845
  135MOL    H3827106   0.567   5.682   5.695 -0.3242 -1.4777  1.2255
  135MOL    H3927107   0.642   5.901   5.827 -1.5319  1.0332 -1.9489
  135MOL    H4027108   0.668   5.996   6.026  1.3733  0.4280  2.0551
  135MOL    H4127109   0.575   5.949   6.163  0.5670 -1.3361  0.0302
  135MOL    C4227110   0.439   5.905   5.741  0.2934  0.3568 -0.1683
  135MOL    C4327111   0.518   5.996   5.638  0.7135  0.0682 -0.0718
  135MOL    C4427112   0.553   6.129   5.716 -0.3843  0.2979  0.0917
  135MOL    O4527113   0.480   6.187   5.800  0.0782 -0.0907 -0.2052
  135MOL    N4627114   0.680   6.170   5.695  0.2195 -0.0941  0.3247
  135MOL    H4727115   0.378   5.969   5.805  0.4774  0.5044 -0.1405
  135MOL    H4827116   0.380   5.820   5.705 -0.3801 -0.3201  2.4265
  135MOL    H4927117   0.605   5.933   5.619  0.0595 -1.0953  0.6981
  135MOL    H5027118   0.723   6.125   5.615 -1.6897 -2.2231  0.4535
  135MOL    H5127119   0.713   6.260   5.727  0.8985 -0.3518  0.3537
  135MOL    C5227120   0.440   6.029   5.505  0.5537  0.0919  1.1210
  135MOL    C5327121   0.504   5.977   5.372 -0.4965 -0.4825  0.0656
  135MOL    C5427122   0.647   6.012   5.353  0.7108 -0.4483 -0.6940
  135MOL    O5527123   0.693   6.106   5.412  0.0708 -0.1886  0.1751
  135MOL    N5627124   0.712   5.945   5.257  0.1223  0.1367  0.2814
  135MOL    H5727125   0.423   6.135   5.485 -1.0071 -0.3035  0.2741
  135MOL    H5827126   0.339   5.989   5.504  0.6024 -0.0226  0.2752
  135MOL    H5927127   0.497   5.869   5.377  0.0947 -0.4342  2.3816
  135MOL    H6027128   0.660   5.885   5.195  0.6300  0.9012 -0.9067
  135MOL    H6127129   0.806   5.966   5.228  1.3377 -0.8431  3.2503
  135MOL    C6227130   0.415   6.031   5.259  0.1740  0.6590  0.2742
  135MOL    C6327131   0.334   5.934   5.179  0.6363 -0.8954  0.2160
  135MOL    C6427132   0.408   5.802   5.145 -0.9399  0.3037  0.0005
  135MOL    O6527133   0.522   5.798   5.094 -0.7241 -0.4924 -0.1894
  135MOL    N6627134   0.356   5.689   5.187  0.1773  0.5005 -0.0859
  135MOL    H6727135   0.478   6.075   5.182 -1.3235  0.5618 -1.0273
  135MOL    H6827136   0.348   6.109   5.294 -1.6281 -0.7617  0.1039
  135MOL    H6927137   0.257   5.911   5.252  0.4533  0.5189  0.4804
  135MOL    H7027138   0.265   5.688   5.231  0.4552  1.6754  0.5288
  135MOL    H7127139   0.414   5.613   5.153  0.3158  0.5252  0.0978
  135MOL    C7227140   0.271   6.004   5.049 -0.0701  0.3907 -0.4164
  135MOL    C7327141   0.152   5.928   4.987 -0.2704  0.4562 -0.1105
  135MOL    C7427142   0.142   5.939   4.834 -0.1006 -0.3944  0.1339
  135MOL    O7527143   0.088   6.039   4.781  0.4657 -0.3025  0.6318
  135MOL    N7627144   0.195   5.841   4.761 -0.2301  0.4677 -0.1634
  135MOL    H7727145   0.349   6.002   4.972  0.4756  2.1144  0.0757
  135MOL    H7827146   0.248   6.109   5.067 -2.2262  0.2286 -2.0066
  135MOL    H7927147   0.161   5.823   5.013  1.2793  0.7754  0.7161
  135MOL    H8027148   0.215   5.863   4.664  0.0907  1.3738  0.1070
  135MOL    H8127149   0.247   5.764   4.801 -1.4203 -0.5172 -0.4679
  135MOL    C8227150   0.020   5.979   5.051  0.1869 -0.1614 -0.3014
  135MOL    C8327151   7.627   5.901   5.177 -0.2024  0.0517  0.2768
  135MOL    C8427152   7.572   5.762   5.134 -0.0040 -0.1768 -0.6417
  135MOL    O8527153   7.634   5.659   5.162  0.6508  0.3320  0.1027
  135MOL    N8627154   7.464   5.763   5.068 -0.1380  0.4169  0.0520
  135MOL    H8727155   7.594   5.974   4.980 -0.8521 -0.7523  0.9386
  135MOL    H8827156   0.033   6.084   5.077 -0.0201 -0.5977  1.6117
  135MOL    H8927157   0.055   5.889   5.244 -1.1307  2.1836  1.9087
  135MOL    H9027158   7.417   5.850   5.047  0.5695  1.1867  1.5326
  135MOL    H9127159   7.432   5.676   5.028  2.4012 -0.1069 -0.9226
  135MOL    C9227160   7.532   5.991   5.260  1.1153 -0.4054 -0.0257
  135MOL    C9327161   7.502   5.948   5.404  0.0042 -0.6092  0.1324
  135MOL    C9427162   7.351   5.934   5.432  0.2677 -0.0358  0.8721
  135MOL    O9527163   7.269   6.015   5.395 -0.0204  0.1473 -0.2888
  135MOL    N9627164   7.308   5.824   5.496 -0.3263  0.1794  0.0082
  135MOL    H9727165   7.443   6.011   5.201  0.7600  0.8128  0.9086
  135MOL    H9827166   7.562   6.095   5.273 -1.7902  0.6031 -1.0737
  135MOL    H9927167   7.534   5.844   5.403 -0.4778 -0.8008  1.9709
  135MOL   H10027168   7.378   5.770   5.546 -0.7650 -0.6343 -0.2593
  135MOL   H10127169   7.209   5.805   5.500 -0.5604  1.5142  0.9418
  135MOL   C10227170   7.592   6.016   5.515  1.0729  0.5891 -0.0385
  135MOL   C10327171   7.544   6.002   5.669 -0.3490  0.0218 -0.0757
  135MOL   C10427172   7.486   6.137   5.713  0.1938  0.0874 -0.6198
  135MOL   O10527173   7.559   6.220   5.774 -0.4041 -0.0537 -0.1039
  135MOL   N10627174   7.357   6.160   5.689  0.6411 -0.2184  0.2970
  135MOL   H10727175   7.600   6.122   5.494  0.1311  0.5120 -0.8034
  135MOL   H10827176   0.034   5.969   5.509  0.7543 -0.4582  2.4911
  135MOL   H10927177   7.462   5.930   5.671 -0.6433  0.2799 -1.8008
  135MOL   H11027178   7.322   6.250   5.720  0.7768  0.1570 -0.6056
  135MOL   H11127179   7.293   6.091   5.654 -0.5508  1.7236 -1.5178
  135MOL   C11227180   0.006   5.944   5.769 -0.3656  0.0782  0.4598
  135MOL   C11327181   7.623   5.928   5.923 -0.0442  0.2413 -0.3120
  135MOL   C11427182   0.084   5.897   6.014 -0.5150  0.1689  0.5541
  135MOL   O11527183   0.108   5.964   6.118 -0.1813 -0.6426 -0.9310
  135MOL   N11627184   0.174   5.810   5.971  0.2385  0.2660  0.1931
  135MOL   H11727185   0.093   6.010   5.766 -1.2354  1.1331 -3.1913
  135MOL   H11827186   0.058   5.858   5.728  0.3457  1.9562 -2.7421
  135MOL   H11927187   7.585   6.019   5.971  1.0968  0.1992  0.6847
  135MOL   H12027188   0.256   5.800   6.028 -1.0830  2.2773  2.5427
  135MOL   H12127189   0.153   5.746   5.895  1.0146  1.4910 -1.0751
  135MOL   C12227190   7.516   5.821   5.930 -0.0243  0.7283 -0.3340
  135MOL   C12327191   7.442   5.800   6.067 -0.8531  0.0919 -0.4210
  135MOL   C12427192   7.349   5.675   6.058  0.3232 -0.1595  0.4153
  135MOL   O12527193   7.379   5.562   6.093 -0.1919  0.4259  0.2776
  135MOL   N12627194   7.230   5.687   6.002 -0.6157  0.6909  0.4116
  135MOL   H12727195   7.551   5.726   5.891 -0.2249 -0.1770  1.6262
  135MOL   H12827196   7.440   5.849   5.857  0.5647  4.5165  0.3815
  135MOL   H12927197   7.514   5.780   6.147  0.4861  0.6964 -1.4704
  135MOL   H13027198   7.185   5.601   5.974  2.6600 -0.6432 -1.0006
  135MOL   H13127199   7.187   5.778   5.997  2.1365  2.0388 -0.1113
  135MOL   C13227200   7.354   5.921   6.106  0.2115  0.7728 -0.5228
  135MOL   C13327201   7.286   5.915   6.249 -0.4936 -0.1938 -0.4448
  135MOL   C13427202   7.159   6.009   6.242 -0.1900 -0.2255 -0.4038
  135MOL   O13527203   7.180   6.128   6.267 -0.8833 -0.1790  0.4353
  135MOL   N13627204   7.037   5.964   6.208 -0.3982 -0.1867 -0.6365
  135MOL   H13727205   7.283   5.935   6.025 -0.8443  0.3116  0.3150
  135MOL   H13827206   7.417   6.011   6.105  0.1941  0.8115  0.6635
  135MOL   H13927207   7.259   5.812   6.272 -1.2859  0.1857  0.3478
  135MOL   H14027208   7.024   5.864   6.199  1.9416 -0.8204  2.2956
  135MOL   H14127209   6.959   6.027   6.223 -0.1503  0.3627 -1.5800
  135MOL   C14227210   7.386   5.950   6.369 -0.1435 -0.1467 -0.1432
  135MOL   C14327211   7.345   5.880   6.502 -0.4960 -0.0558  0.2348
  135MOL   C14427212   7.421   5.939   6.620 -0.0975 -0.2791  0.2806
  135MOL   O14527213   7.543   5.924   6.642  0.2672  0.0979 -0.2920
  135MOL   N14627214   7.349   6.012   6.702 -0.2016 -0.3891  0.4335
  135MOL   H14727215   7.394   6.059   6.369  0.7579 -0.2034  0.4843
  135MOL   H14827216   7.488   5.916   6.349  0.5693  0.0408  2.9901
  135MOL   H14927217   7.239   5.890   6.525 -1.2843 -2.4284 -2.0913
  135MOL   H15027218   7.248   6.010   6.700 -0.2344  0.9417  0.7310
  135MOL   H15127219   7.381   6.082   6.767 -0.3090 -1.0974  1.2571
  135MOL   C15227220   7.373   5.731   6.492 -0.7468 -0.1893 -0.1781
  135MOL   C15327221   7.312   5.632   6.598 -0.6197 -0.3061  0.8054
  135MOL   C15427222   7.396   5.504   6.594 -0.0964 -0.5529  0.0564
  135MOL   O15527223   7.418   5.442   6.699 -0.0092 -0.2267 -0.5318
  135MOL   N15627224   7.451   5.461   6.483  0.7030 -0.1319 -0.1013
  135MOL   H15727225   7.481   5.720   6.494 -0.6273  0.4089 -1.9441
  135MOL   H15827226   7.347   5.684   6.396 -2.7956  0.9832 -0.2370
  135MOL   H15927227   7.335   5.676   6.695 -1.0540  0.2344  0.6659
  135MOL   H16027228   7.426   5.510   6.398 -0.7506 -0.4456  0.1292
  135MOL   H16127229   7.534   5.404   6.485  1.8909  1.4389 -2.2775
  135MOL   C16227230   7.160   5.618   6.607  0.1122  0.4415 -0.1967
  135MOL   C16327231   7.079   5.538   6.502 -0.0936  0.6592  0.9287
  135MOL   C16427232   7.064   5.587   6.354  0.3167 -0.4761  0.3794
  135MOL   O16527233   7.040   5.704   6.327 -0.2260  0.1927  0.1083
  135MOL   N16627234   7.071   5.491   6.264 -0.5087  0.1495 -0.0254
  135MOL   H16727235   7.134   5.723   6.593 -2.7049 -0.2026 -0.1369
  135MOL   H16827236   7.130   5.580   6.704 -1.1027 -0.2704 -0.8232
  135MOL   H16927237   7.140   5.450   6.487  0.8886  1.7009 -1.5157
  135MOL   H17027238   7.057   5.517   6.168 -1.1998 -0.2438 -0.0324
  135MOL   H17127239   7.064   5.395   6.295  2.0165  0.4015  1.4614
  135MOL   C17227240   6.942   5.493   6.552 -0.2769 -0.3619  0.3032
  135MOL   C17327241   6.831   5.602   6.557  0.5094 -0.0678  0.1775
  135MOL   C17427242   6.788   5.637   6.696 -0.3071  0.4415 -0.4593
  135MOL   O17527243   6.771   5.541   6.773 -0.1114 -0.2151 -0.2260
  135MOL   N17627244   6.769   5.764   6.731 -0.6295  0.1292  0.3525
  135MOL   H17727245   6.963   5.445   6.647 -0.1618  1.4219  1.2059
  135MOL   H17827246   6.900   5.417   6.486  0.1399 -0.7589  0.4937
  135MOL   H17927247   6.867   5.694   6.511  1.5740  0.1652  1.4502
  135MOL   H18027248   6.742   5.782   6.826 -0.5807  1.2884  0.1443
  135MOL   H18127249   6.758   5.839   6.664 -1.2589 -1.1981 -1.0752
  135MOL   C18227250   6.707   5.579   6.469 -0.1704  0.2484 -0.0619
  135MOL   C18327251   6.622   5.701   6.430 -0.0848 -0.0652 -0.5014
  135MOL   C18427252   6.493   5.704   6.513 -0.4865 -0.0205  0.1848
  135MOL   O18527253   6.405   5.621   6.493 -0.5944  0.2179 -0.1858
  135MOL   N18627254   6.475   5.794   6.612 -0.7104 -0.5754 -0.7137
  135MOL   H18727255   6.643   5.506   6.518 -0.4585  1.3335  1.2122
  135MOL   H18827256   6.742   5.522   6.383 -1.1742  0.9134 -0.9114
  135MOL   H18927257   6.682   5.784   6.467  2.9205 -2.9205  1.3434
  135MOL   H19027258   6.381   5.803   6.645 -1.1011  1.5696 -2.3162
  135MOL   H19127259   6.550   5.852   6.648  1.5628 -2.8631 -1.5505
  135MOL   C19227260   6.602   5.713   6.277 -0.1406  0.1484  0.0520
  135MOL   C19327261   6.527   5.838   6.236  0.1183  0.1284 -0.0367
  135MOL   C19427262   6.600   5.972   6.273  0.0385 -0.0624  0.7960
  135MOL   O19527263   6.718   5.988   6.292 -0.0088 -0.1852  0.4281
  135MOL   N19627264   6.519   6.077   6.281  0.2412  0.0261 -0.2519
  135MOL   H19727265   6.548   5.625   6.240  0.5123  0.4019 -1.5528
  135MOL   H19827266   6.703   5.710   6.236 -0.5104 -0.4530 -0.8415
  135MOL   H19927267   6.507   5.827   6.129 -0.2311 -2.2452  0.2596
  135MOL   H20027268   6.564   6.167   6.292  1.4979 -0.6237  0.0411
  135MOL   H20127269   6.432   6.067   6.231 -1.5843 -2.5148  3.2689
  135MOL   H20227270   6.426   5.839   6.276  0.2499  1.6712  0.3036
  136MOL     C127271   0.904   3.097   3.245  0.7112  0.2825 -0.6026
  136MOL     C227272   0.815   3.124   3.370  0.5358 -0.7907  0.3551
  136MOL     C327273   0.792   2.997   3.451 -0.3216  0.3914 -0.5372
  136MOL     O427274   0.718   2.910   3.407  0.4006 -0.3624  0.1737
  136MOL     N527275   0.854   2.990   3.566 -0.8465 -0.7306 -0.2607
  136MOL     H627276   1.009   3.080   3.266  0.4759 -0.7451 -0.2221
  136MOL     H727277   0.868   3.015   3.184  1.9478 -0.4794 -0.3114
  136MOL     H827278   0.869   3.202   3.424  0.6425  0.3763 -1.3862
  136MOL     H927279   0.900   3.068   3.611 -3.2250 -0.0376  1.0512
  136MOL    H1027280   0.843   2.907   3.622  0.8186 -2.2644 -2.1634
  136MOL    H1127281   0.908   3.180   3.174  1.5150 -0.2077 -1.1341
  136MOL    C1227282   0.679   3.188   3.322 -0.1649  0.3886  0.1808
  136MOL    C1327283   0.682   3.328   3.266  0.0399  0.4072  0.2084
  136MOL    C1427284   0.788   3.422   3.326 -0.0919 -0.9431 -0.5420
  136MOL    O1527285   0.777   3.447   3.445  0.1308  0.3408 -0.2812
  136MOL    N1627286   0.890   3.455   3.245 -0.2216 -0.7430  0.1768
  136MOL    H1727287   0.606   3.183   3.402 -0.8912  1.7924 -0.3806
  136MOL    H1827288   0.631   3.123   3.249  1.8322 -2.0064  0.9385
  136MOL    H1927289   0.712   3.317   3.161 -3.6229 -1.2041 -0.7261
  136MOL    H2027290   0.963   3.502   3.295  1.1424 -2.2887 -0.3294
  136MOL    H2127291   0.900   3.417   3.151  2.3611  1.1519 -0.3433
  136MOL    C2227292   0.539   3.388   3.269 -0.3032  0.5803  0.1945
  136MOL    C2327293   0.527   3.529   3.210 -0.7105 -0.7710  0.6671
  136MOL    C2427294   0.483   3.641   3.311 -0.4473 -0.0989  0.6678
  136MOL    O2527295   0.397   3.623   3.398  0.1407 -0.4417  0.1171
  136MOL    N2627296   0.542   3.756   3.297 -0.5492 -0.1228  0.5221
  136MOL    H2727297   0.502   3.384   3.371  2.2101  1.7835  1.2064
  136MOL    H2827298   0.462   3.323   3.228  0.3661 -0.8414  1.1590
  136MOL    H2927299   0.623   3.566   3.173 -1.1111 -0.4346 -0.0434
  136MOL    H3027300   0.597   3.767   3.214 -2.5636 -0.9276 -0.9759
  136MOL    H3127301   0.510   3.831   3.357  2.8313  0.4622  1.7151
  136MOL    C3227302   0.433   3.524   3.090  0.0271 -0.2081  0.1692
  136MOL    C3327303   0.412   3.645   2.993 -0.9413  0.0108  0.2083
  136MOL    C3427304   0.319   3.745   3.052  0.9330 -0.1048 -0.8022
  136MOL    O3527305   0.202   3.712   3.088 -0.1019  0.3185 -0.1252
  136MOL    N3627306   0.354   3.863   3.089  0.7668 -0.5888 -0.6656
  136MOL    H3727307   0.336   3.484   3.122 -0.2240  0.9209  0.8471
  136MOL    H3827308   0.479   3.451   3.025  0.9315 -0.3537  0.9677
  136MOL    H3927309   0.500   3.704   2.968  0.7387 -2.2759  0.5213
  136MOL    H4027310   0.439   3.904   3.052 -0.0117  0.8045 -0.9693
  136MOL    H4127311   0.297   3.924   3.147  2.3187  1.2298 -0.9846
  136MOL    C4227312   0.354   3.603   2.846 -0.2016  0.2710 -0.6926
  136MOL    C4327313   0.386   3.701   2.725 -0.0924 -0.4235  0.2031
  136MOL    C4427314   0.333   3.845   2.739  0.0102  0.6476 -0.3036
  136MOL    O4527315   0.215   3.872   2.728  0.2224 -0.0146  0.1775
  136MOL    N4627316   0.423   3.934   2.777  0.1881  0.1048  0.1441
  136MOL    H4727317   0.246   3.595   2.860 -0.2059  0.9872 -0.2706
  136MOL    H4827318   0.386   3.502   2.821 -2.2840  0.0109 -2.5100
  136MOL    H4927319   0.495   3.709   2.724 -0.1013 -0.3507 -0.1120
  136MOL    H5027320   0.522   3.917   2.766  0.1270 -1.4632  1.8032
  136MOL    H5127321   0.383   4.006   2.836 -0.8521 -1.0818  0.8925
  136MOL    C5227322   0.331   3.636   2.594 -0.2959  0.8538  0.1446
  136MOL    C5327323   0.370   3.703   2.462  0.9791 -0.3852  0.8009
  136MOL    C5427324   0.265   3.687   2.345 -0.6614  0.3938  0.3986
  136MOL    O5527325   0.220   3.575   2.314 -0.3826 -0.1492  0.0989
  136MOL    N5627326   0.217   3.789   2.272 -0.1506  0.8254  0.0519
  136MOL    H5727327   0.224   3.622   2.602 -0.4851  2.1526  0.1137
  136MOL    H5827328   0.358   3.531   2.588 -0.5627  0.8900 -1.7721
  136MOL    H5927329   0.369   3.812   2.469 -1.5907 -0.2621 -0.7265
  136MOL    H6027330   0.233   3.882   2.306  0.8255 -0.0963  2.2339
  136MOL    H6127331   0.167   3.774   2.186 -0.1417 -2.6245  0.5512
  136MOL    C6227332   0.517   3.659   2.426  0.0586  0.1007 -0.0951
  136MOL    C6327333   0.573   3.726   2.298 -0.3019 -0.2814  0.0424
  136MOL    C6427334   0.573   3.633   2.181 -0.6811  0.2526  1.0108
  136MOL    O6527335   0.597   3.513   2.192  0.1319  0.1226  0.0139
  136MOL    N6627336   0.570   3.692   2.059  0.0770  0.5696 -0.3061
  136MOL    H6727337   0.499   3.554   2.403 -2.2469 -0.3827  3.5630
  136MOL    H6827338   0.577   3.674   2.516  0.2618 -2.5356  0.2380
  136MOL    H6927339   0.517   3.813   2.264 -0.1240  0.1575  0.8763
  136MOL    H7027340   0.548   3.639   1.976 -1.7066  0.1016  0.4271
  136MOL    H7127341   0.567   3.793   2.056 -0.8743  0.5712  0.5473
  136MOL    C7227342   0.718   3.770   2.325 -0.2985  0.0372 -0.0160
  136MOL    C7327343   0.736   3.904   2.406 -0.5284 -0.1023 -0.5740
  136MOL    C7427344   0.712   4.021   2.310  0.5101  0.1934 -0.2516
  136MOL    O7527345   0.802   4.074   2.243 -0.2371  0.2062 -0.7448
  136MOL    N7627346   0.589   4.060   2.300  0.3105  0.5105 -0.4861
  136MOL    H7727347   0.764   3.784   2.227 -0.2860  0.1386  0.0041
  136MOL    H7827348   0.779   3.698   2.380  1.6118  1.0814 -0.7005
  136MOL    H7927349   0.657   3.902   2.481  1.3403  0.3836  1.4463
  136MOL    H8027350   0.571   4.132   2.232 -0.7373  1.4846  0.8055
  136MOL    H8127351   0.511   4.019   2.350  0.1659  0.4710 -0.7428
  136MOL    C8227352   0.880   3.904   2.477 -0.4669 -0.5992 -0.2930
  136MOL    C8327353   0.892   3.979   2.610  0.1896  0.4106 -0.0973
  136MOL    C8427354   0.788   3.933   2.713 -0.6564 -0.3737 -0.2816
  136MOL    O8527355   0.699   3.856   2.690 -0.1946 -0.3899 -0.3036
  136MOL    N8627356   0.807   3.982   2.838 -0.6079  0.3920  0.4986
  136MOL    H8727357   0.951   3.952   2.410  0.6017 -0.5653  0.8490
  136MOL    H8827358   0.917   3.803   2.497  1.1776  0.1912  0.7499
  136MOL    H8927359   0.992   3.957   2.648  0.3307  1.8579  0.4007
  136MOL    H9027360   0.885   4.046   2.849  1.5732 -1.7747 -1.7236
  136MOL    H9127361   0.739   3.967   2.911 -0.7353 -0.6949  0.1552
  136MOL    C9227362   0.897   4.132   2.592  0.1511 -0.1759 -0.0205
  136MOL    C9327363   1.018   4.193   2.514 -0.2972 -0.2852  0.8765
  136MOL    C9427364   1.145   4.169   2.597  0.2263 -0.0501  0.6336
  136MOL    O9527365   1.143   4.182   2.719 -0.2028  0.2343  0.0474
  136MOL    N9627366   1.257   4.127   2.538 -0.2847 -0.2794 -0.6141
  136MOL    H9727367   0.905   4.169   2.694 -0.0891  0.6450 -0.2993
  136MOL    H9827368   0.803   4.168   2.551  0.3651 -1.1271 -1.3845
  136MOL    H9927369   1.004   4.146   2.416  1.1170 -0.3466  0.6917
  136MOL   H10027370   1.246   4.101   2.441  2.0277 -1.6975 -0.5387
  136MOL   H10127371   1.333   4.093   2.594 -1.4227  0.8163  1.6450
  136MOL   C10227372   0.987   4.346   2.494 -1.1696  0.0233 -0.1455
  136MOL   C10327373   1.097   4.430   2.421  0.2429  0.1744 -0.3386
  136MOL   C10427374   1.093   4.573   2.476 -0.0655 -0.6983  0.9889
  136MOL   O10527375   1.168   4.613   2.567 -0.0227 -0.1154  0.0134
  136MOL   N10627376   1.000   4.653   2.429 -0.0419 -0.4406 -0.3956
  136MOL   H10727377   0.950   4.385   2.588 -0.2413 -1.3836  0.8178
  136MOL   H10827378   0.899   4.364   2.431 -0.1085  1.5996 -1.2349
  136MOL   H10927379   1.196   4.394   2.448  0.9701  3.9508  2.3343
  136MOL   H11027380   1.024   4.750   2.437  2.1783 -0.8417 -1.8774
  136MOL   H11127381   0.926   4.619   2.369  1.5658 -2.9153 -1.0543
  136MOL   C11227382   1.082   4.434   2.265 -0.4521  0.2286  0.4368
  136MOL   C11327383   1.085   4.309   2.181  0.0317  1.2498  0.3709
  136MOL   C11427384   1.213   4.234   2.209  0.8313 -0.0752  0.0805
  136MOL   O11527385   1.313   4.291   2.224  0.4240  0.1599 -0.5262
  136MOL   N11627386   1.220   4.107   2.195 -0.9129  0.1097  0.9689
  136MOL   H11727387   1.151   4.508   2.224 -1.8932  0.9781 -0.6614
  136MOL   H11827388   0.982   4.476   2.254  0.1267  1.6835  0.6472
  136MOL   H11927389   0.998   4.265   2.228 -0.9114  1.3528 -1.2304
  136MOL   H12027390   1.153   4.055   2.140 -0.0973 -0.8569  0.8738
  136MOL   H12127391   1.299   4.057   2.233 -0.6752  1.1249  1.8501
  136MOL   C12227392   1.061   4.328   2.030 -0.7161 -0.0775 -0.4047
  136MOL   C12327393   0.944   4.241   1.966 -0.3846 -0.3527  0.1003
  136MOL   C12427394   0.980   4.099   1.934  0.4229  0.7258  0.2504
  136MOL   O12527395   1.090   4.068   1.882  0.4896  0.2370 -0.8025
  136MOL   N12627396   0.888   4.007   1.951 -0.2978 -0.2873 -0.5812
  136MOL   H12727397   1.150   4.319   1.969  0.8846  1.6730  1.6187
  136MOL   H12827398   1.031   4.433   2.031  1.4498  0.5548  0.7775
  136MOL   H12927399   0.866   4.237   2.042  2.0171 -0.2926  2.6514
  136MOL   H13027400   0.908   3.919   1.907  1.0010  0.3098 -1.2330
  136MOL   H13127401   0.800   4.020   2.000  0.0168 -0.4982  0.0409
  136MOL   C13227402   0.880   4.307   1.844 -0.3218 -0.4047  0.1787
  136MOL   C13327403   0.725   4.295   1.838  0.6122 -0.2164  0.1387
  136MOL   C13427404   0.683   4.259   1.692  0.3479  0.0469  0.1419
  136MOL   O13527405   0.713   4.329   1.595 -0.3360 -0.2696  0.3731
  136MOL   N13627406   0.616   4.150   1.673 -0.2341  0.1287  0.2513
  136MOL   H13727407   0.935   4.270   1.757 -2.7678  1.0032 -2.0469
  136MOL   H13827408   0.896   4.414   1.852 -1.8826 -0.2780  1.8313
  136MOL   H13927409   0.696   4.211   1.901 -0.5934 -1.0570 -1.4856
  136MOL   H14027410   0.567   4.134   1.586  0.1040  0.7356 -0.0511
  136MOL   H14127411   0.599   4.094   1.755  0.3662  0.6818  0.7611
  136MOL   C14227412   0.648   4.421   1.880  0.2275  0.1932  0.1643
  136MOL   C14327413   0.663   4.464   2.027  0.1208  0.2187 -0.0678
  136MOL   C14427414   0.642   4.358   2.134 -0.3468 -0.4890  0.5308
  136MOL   O14527415   0.566   4.262   2.129 -0.1602 -0.4580 -0.3749
  136MOL   N14627416   0.726   4.378   2.240  0.4809 -0.1249  0.4033
  136MOL   H14727417   0.540   4.410   1.863  0.4034 -1.4071  0.0306
  136MOL   H14827418   0.680   4.505   1.819 -2.5014  0.8700 -0.4275
  136MOL   H14927419   0.764   4.505   2.030 -1.0026  3.2622 -1.2524
  136MOL   H15027420   0.767   4.470   2.247 -2.1391  0.9959  1.3905
  136MOL   H15127421   0.721   4.315   2.319 -0.5454 -1.2398 -0.5463
  136MOL   C15227422   0.576   4.596   2.059  0.0446  0.2867 -0.7404
  136MOL   C15327423   0.650   4.730   2.042 -0.0878 -0.3613  0.0420
  136MOL   C15427424   0.748   4.755   2.159  0.4306  0.2555 -0.1071
  136MOL   O15527425   0.788   4.663   2.230 -0.0629 -0.3783 -0.0868
  136MOL   N15627426   0.780   4.882   2.183 -0.1113 -0.1067 -0.3655
  136MOL   H15727427   0.526   4.599   2.156 -2.0122 -0.9823 -1.7369
  136MOL   H15827428   0.499   4.597   1.982  0.1669 -1.5710 -0.8940
  136MOL   H15927429   0.707   4.736   1.950 -0.8896 -0.0045 -0.4425
  136MOL   H16027430   0.736   4.951   2.124  0.4066  0.1336 -0.4783
  136MOL   H16127431   0.857   4.901   2.246 -1.1881  1.1803  0.6088
  136MOL   C16227432   0.545   4.843   2.018 -0.7169  0.8163  0.0727
  136MOL   C16327433   0.424   4.866   2.096 -0.3375 -0.2945 -0.7981
  136MOL   C16427434   0.303   4.911   2.006  0.1373 -0.3960 -0.9568
  136MOL   O16527435   0.312   5.022   1.947 -0.1285 -0.1265  0.0278
  136MOL   N16627436   0.208   4.822   1.982  0.3631 -0.2476 -0.1795
  136MOL   H16727437   0.526   4.835   1.911  2.8059  0.9497 -0.6065
  136MOL   H16827438   0.597   4.938   2.016  0.0428  0.3891 -1.3639
  136MOL   H16927439   0.402   4.763   2.123  1.5719  0.0463  2.3942
  136MOL   H17027440   0.125   4.848   1.930 -1.4096  1.1877  3.2595
  136MOL   H17127441   0.199   4.732   2.027  0.9755  0.0473  0.5295
  136MOL   C17227442   0.453   4.951   2.226 -0.9819  0.5106  0.3552
  136MOL   C17327443   0.397   4.905   2.365 -0.4472  0.0985  0.1717
  136MOL   C17427444   0.248   4.952   2.390 -0.3359  0.5268 -0.1414
  136MOL   O17527445   0.177   4.876   2.455 -0.1077  0.1621 -0.3755
  136MOL   N17627446   0.204   5.062   2.343  0.0514  0.0339  0.0473
  136MOL   H17727447   0.406   5.046   2.202  0.6232  0.9167 -1.2634
  136MOL   H17827448   0.560   4.972   2.235 -1.0707  2.4718 -2.3753
  136MOL   H17927449   0.401   4.797   2.361  1.3608  0.0068  2.9230
  136MOL   H18027450   0.261   5.118   2.282 -0.1290  0.5208  0.3253
  136MOL   H18127451   0.108   5.085   2.363  0.3771 -0.0401  1.8315
  136MOL   C18227452   0.482   4.937   2.489 -0.6369  0.3423 -0.7117
  136MOL   C18327453   0.616   4.864   2.518 -0.6947 -0.0123 -0.3449
  136MOL   C18427454   0.589   4.715   2.546  0.0948 -0.0632  0.0205
  136MOL   O18527455   0.512   4.675   2.634  0.6734 -0.1035 -0.4967
  136MOL   N18627456   0.666   4.624   2.480  0.1016  0.2081  0.1291
  136MOL   H18727457   0.426   4.924   2.581  1.3974  1.5600  0.7088
  136MOL   H18827458   0.502   5.043   2.475  2.1294  0.1428  1.2938
  136MOL   H18927459   0.674   4.868   2.426 -2.2949  3.2944 -1.3056
  136MOL   H19027460   0.710   4.654   2.394  0.9569 -0.6402  0.2692
  136MOL   H19127461   0.654   4.525   2.494  1.6873  0.0842  0.8366
  136MOL   C19227462   0.677   4.929   2.642 -0.0214 -0.1269  0.4359
  136MOL   C19327463   0.823   4.878   2.677 -0.3870  0.5732 -0.4164
  136MOL   C19427464   0.948   4.952   2.629  0.3985  0.0454  1.1662
  136MOL   O19527465   0.940   5.062   2.575  0.0468  0.0066 -0.5408
  136MOL   N19627466   1.064   4.891   2.654 -0.3385  0.2895  0.2420
  136MOL   H19727467   0.611   4.926   2.729  1.5590  1.5502  1.7340
  136MOL   H19827468   0.691   5.037   2.630 -0.5344 -0.2298 -1.0924
  136MOL   H19927469   0.840   4.888   2.785 -1.3804  1.1762 -0.3102
  136MOL   H20027470   1.154   4.923   2.621 -0.1279 -0.4271  0.0945
  136MOL   H20127471   1.059   4.801   2.700 -0.6552 -0.2817 -0.8913
  136MOL   H20227472   0.834   4.773   2.653 -0.8889  0.3395  0.3538
  137MOL     C127473   6.250   0.457   1.021 -0.0087 -0.5138  0.1981
  137MOL     C227474   6.261   0.482   1.176  0.1408  0.1284 -0.0858
  137MOL     C327475   6.206   0.358   1.248 -0.0539 -0.5428 -0.3756
  137MOL     O427476   6.094   0.312   1.223  0.0514 -0.4539  0.0161
  137MOL     N527477   6.276   0.311   1.350  0.0838  0.7172 -1.0371
  137MOL     H627478   6.148   0.429   0.993 -0.1758 -1.4551  1.6960
  137MOL     H727479   6.291   0.532   0.953  0.7482 -2.3762 -1.4539
  137MOL     H827480   6.368   0.496   1.193  0.1882  1.7472 -1.4865
  137MOL     H927481   6.247   0.219   1.379  0.0987  1.2402  0.6754
  137MOL    H1027482   6.364   0.343   1.387 -0.8333 -0.5333  2.3527
  137MOL    H1127483   6.327   0.381   1.006  2.2293  1.5904  0.6273
  137MOL    C1227484   6.203   0.624   1.215  0.4773 -0.1015 -1.0483
  137MOL    C1327485   6.053   0.639   1.258 -0.3960 -0.2439  0.5576
  137MOL    C1427486   5.959   0.629   1.135  0.3106  0.2713  0.2801
  137MOL    O1527487   5.957   0.721   1.053  0.3775  0.7620 -0.1352
  137MOL    N1627488   5.899   0.515   1.101 -0.5892 -0.3200  0.2157
  137MOL    H1727489   6.203   0.680   1.122 -0.0616 -0.8304 -1.4848
  137MOL    H1827490   6.268   0.667   1.292 -0.2664 -2.7147  1.1102
  137MOL    H1927491   6.029   0.560   1.329  1.4407 -2.0085 -0.7442
  137MOL    H2027492   5.862   0.487   1.011  3.1751  0.8192 -1.7688
  137MOL    H2127493   5.926   0.443   1.166 -1.9546 -1.2037 -0.1649
  137MOL    C2227494   6.030   0.776   1.333 -0.2138  0.3857  0.1876
  137MOL    C2327495   5.916   0.785   1.432  0.3149 -0.1488  0.1784
  137MOL    C2427496   5.897   0.936   1.443  0.2115 -0.1960  0.0159
  137MOL    O2527497   5.986   1.001   1.498 -0.6144 -0.1695  0.4171
  137MOL    N2627498   5.781   0.987   1.405  0.5660  0.3543  0.8183
  137MOL    H2727499   6.022   0.852   1.255  2.1092  0.9056  0.3998
  137MOL    H2827500   6.126   0.795   1.381 -0.9798  2.1224  1.0741
  137MOL    H2927501   5.824   0.739   1.398 -0.9983  1.3317  1.6405
  137MOL    H3027502   5.715   0.933   1.352  0.7399  0.8450  0.0981
  137MOL    H3127503   5.765   1.080   1.442 -1.3795  1.1880 -2.0030
  137MOL    C3227504   5.954   0.722   1.565 -0.0264 -0.0176 -0.6382
  137MOL    C3327505   5.907   0.574   1.567 -0.1842 -0.4867 -0.2498
  137MOL    C3427506   5.789   0.555   1.661 -0.4616  0.9435  0.1252
  137MOL    O3527507   5.792   0.603   1.768  0.5516  0.2553 -0.1611
  137MOL    N3627508   5.680   0.476   1.633  0.5245 -0.7524  0.2025
  137MOL    H3727509   5.909   0.779   1.646  0.7653 -0.5938  0.2144
  137MOL    H3827510   6.060   0.719   1.591  0.1317  0.4047 -1.2225
  137MOL    H3927511   5.881   0.532   1.470 -2.1831 -0.4166  0.2362
  137MOL    H4027512   5.657   0.430   1.546  1.1088 -0.9849  0.1717
  137MOL    H4127513   5.625   0.467   1.717  0.4953  2.6953  0.6145
  137MOL    C4227514   6.031   0.485   1.621 -0.4565  0.2046 -0.2049
  137MOL    C4327515   6.004   0.338   1.643 -0.1528  0.7027 -0.0020
  137MOL    C4427516   6.125   0.281   1.721 -0.0769  0.5244  0.0701
  137MOL    O4527517   6.246   0.284   1.693  0.3663 -0.4847  0.3062
  137MOL    N4627518   6.086   0.232   1.839 -0.1257  0.3785  0.0909
  137MOL    H4727519   6.056   0.524   1.719  0.6300 -3.0645  0.8806
  137MOL    H4827520   6.122   0.497   1.562 -1.9060  2.4387 -2.0757
  137MOL    H4927521   5.922   0.327   1.714 -0.1739 -2.5008 -0.4475
  137MOL    H5027522   6.143   0.175   1.899  0.2051 -1.2366 -1.6984
  137MOL    H5127523   5.987   0.236   1.860  0.2133  2.4441  1.4818
  137MOL    C5227524   5.969   0.256   1.517  0.0923 -0.3673  0.0744
  137MOL    C5327525   5.892   0.127   1.550 -0.5997 -0.4831 -0.0950
  137MOL    C5427526   5.923   0.016   1.454  0.4726  0.0500  0.0718
  137MOL    O5527527   5.936   7.555   1.488  0.0721 -0.0698 -0.2720
  137MOL    N5627528   5.937   0.058   1.324  0.3353 -0.0534 -0.1526
  137MOL    H5727529   6.060   0.248   1.458  0.4534 -0.3452  0.6204
  137MOL    H5827530   5.902   0.324   1.465  0.0940 -0.3435  0.1034
  137MOL    H5927531   5.943   0.095   1.641  1.7750 -0.8907 -1.5281
  137MOL    H6027532   5.967   7.651   1.252 -1.2306  0.0989 -0.9632
  137MOL    H6127533   5.923   0.153   1.294  0.3248 -0.6291 -2.0108
  137MOL    C6227534   5.739   0.150   1.575 -0.1441 -0.5831 -0.3791
  137MOL    C6327535   5.633   0.127   1.474 -0.1373 -0.4825 -0.0768
  137MOL    C6427536   5.638   0.231   1.358  0.2709  0.9022 -0.6025
  137MOL    O6527537   5.606   0.346   1.380 -0.0682  0.1732 -0.0945
  137MOL    N6627538   5.663   0.181   1.237 -0.2819  0.4490  0.4684
  137MOL    H6727539   5.714   0.226   1.649  1.5955  0.9397 -1.3126
  137MOL    H6827540   5.721   0.059   1.632  1.1277 -1.3164 -1.1137
  137MOL    H6927541   5.648   0.028   1.430 -0.4762 -1.1244  1.2420
  137MOL    H7027542   5.686   0.086   1.213 -0.0678  0.4038  0.8516
  137MOL    H7127543   5.663   0.247   1.161 -2.1417  0.9007  0.8263
  137MOL    C7227544   5.489   0.129   1.532  0.8141 -0.3472 -0.0162
  137MOL    C7327545   5.448   0.004   1.620 -0.2423 -0.3763 -0.2585
  137MOL    C7427546   5.452   7.533   1.541  0.0996 -0.1464 -0.2891
  137MOL    O7527547   5.401   7.524   1.430 -0.4041  0.4725  0.0839
  137MOL    N7627548   5.528   7.434   1.583 -0.4170 -0.2003  0.0515
  137MOL    H7727549   5.427   0.128   1.442  0.2329  0.6170  0.3581
  137MOL    H7827550   5.473   0.221   1.589 -1.1250 -0.2425 -0.6756
  137MOL    H7927551   5.520   7.651   1.701 -0.1151 -0.2092 -0.3503
  137MOL    H8027552   5.514   7.341   1.548 -0.9295 -1.0505  2.4381
  137MOL    H8127553   5.569   7.440   1.675  0.4122 -0.3895 -0.2939
  137MOL    C8227554   5.306   0.037   1.689 -0.0338  0.0001  0.2515
  137MOL    C8327555   5.223   7.573   1.751  0.7396 -0.2026  0.2376
  137MOL    C8427556   5.083   7.632   1.797  0.1981 -0.6341 -0.2408
  137MOL    O8527557   5.066   0.043   1.897  0.8783  0.3347  0.4263
  137MOL    N8627558   4.976   7.605   1.724  0.0497  0.1183 -0.3076
  137MOL    H8727559   5.253   0.077   1.603  1.2038  2.3949  0.5678
  137MOL    H8827560   5.309   0.127   1.750  1.4545 -0.6464  1.1722
  137MOL    H8927561   5.219   7.510   1.662 -1.1336  1.0430 -0.5896
  137MOL    H9027562   4.990   7.544   1.644 -2.1396  0.6207 -1.1040
  137MOL    H9127563   4.890   7.656   1.734 -0.6388 -0.7966 -1.3562
  137MOL    C9227564   5.295   7.512   1.877 -0.2599  0.1894 -0.8979
  137MOL    C9327565   5.266   7.364   1.912  0.2656 -0.6099  0.0521
  137MOL    C9427566   5.295   7.267   1.799 -0.5267 -0.0399  0.2304
  137MOL    O9527567   5.201   7.230   1.726 -0.1774 -0.1358  0.1509
  137MOL    N9627568   5.421   7.217   1.782  0.1505  0.6375 -0.1620
  137MOL    H9727569   5.279   7.575   1.964  1.2109 -0.9624  0.2387
  137MOL    H9827570   5.404   7.515   1.871 -0.1923 -1.0233 -0.4074
  137MOL    H9927571   5.347   7.330   1.976 -0.2788  1.4848  1.9054
  137MOL   H10027572   5.503   7.252   1.828  1.3732 -1.8705 -0.3228
  137MOL   H10127573   5.445   7.136   1.726  0.5455 -0.3395  1.3740
  137MOL   C10227574   5.138   7.328   1.985  0.3450  0.2073  0.5736
  137MOL   C10327575   5.102   7.412   2.116  0.5563 -0.0730  0.2648
  137MOL   C10427576   5.227   7.413   2.210 -0.1412 -0.1278 -0.0828
  137MOL   O10527577   5.272   7.314   2.263  1.1142  0.2840 -0.1039
  137MOL   N10627578   5.290   7.531   2.223  0.2810 -0.1154 -0.6874
  137MOL   H10727579   5.141   7.222   2.011  1.6979  0.5719  1.9537
  137MOL   H10827580   5.057   7.317   1.913  0.6227 -1.6855  0.5313
  137MOL   H10927581   5.084   7.514   2.081 -0.0663 -0.0173  0.7358
  137MOL   H11027582   5.377   7.546   2.273  0.0613 -1.9037  0.2982
  137MOL   H11127583   5.268   7.605   2.158  1.4803  0.8793 -0.0036
  137MOL   C11227584   4.970   7.350   2.177  0.5577 -0.1521 -0.3321
  137MOL   C11327585   4.858   7.456   2.185 -0.5333 -0.0111 -0.1260
  137MOL   C11427586   4.766   7.420   2.307  0.5732 -0.4881  0.7187
  137MOL   O11527587   4.799   7.454   2.416  0.1589  0.1927  0.4539
  137MOL   N11627588   4.654   7.348   2.288  0.0212 -0.1401 -0.0947
  137MOL   H11727589   4.991   7.303   2.273 -2.9991  0.7731  0.9704
  137MOL   H11827590   4.933   7.275   2.107 -0.9627  0.8661 -0.6393
  137MOL   H11927591   4.904   7.551   2.214 -0.3694 -0.9143  2.7984
  137MOL   H12027592   4.623   7.308   2.200 -3.0836 -0.3632  1.0503
  137MOL   H12127593   4.594   7.318   2.364 -1.8454  1.8459 -0.7306
  137MOL   C12227594   4.789   7.463   2.045 -0.7539  0.1558  1.1198
  137MOL   C12327595   4.668   7.555   2.028 -0.4146  0.7439 -0.9018
  137MOL   C12427596   4.595   7.547   1.892  0.4841 -0.2976 -0.0431
  137MOL   O12527597   4.653   7.501   1.793 -0.4713  0.1638 -0.1661
  137MOL   N12627598   4.469   7.589   1.887 -0.0170 -0.7162 -0.6693
  137MOL   H12727599   4.747   7.365   2.022  0.5773 -0.2016  0.1399
  137MOL   H12827600   4.862   7.478   1.965 -3.0621 -0.9131 -1.2912
  137MOL   H12927601   4.595   7.545   2.109 -0.2801 -0.1280 -0.8874
  137MOL   H13027602   4.422   7.584   1.798 -0.6109 -1.0783 -0.3381
  137MOL   H13127603   4.425   7.593   1.978 -0.0670  0.4459 -0.7396
  137MOL   C13227604   4.724   0.041   2.048  0.1909  0.1266 -0.0077
  137MOL   C13327605   4.695   0.102   2.190 -0.6963  0.1808 -0.3861
  137MOL   C13427606   4.550   0.151   2.184 -0.1460 -0.1732 -0.0818
  137MOL   O13527607   4.456   0.076   2.216  0.1700  0.9340  0.3164
  137MOL   N13627608   4.534   0.281   2.151 -0.6672 -0.4898 -0.1719
  137MOL   H13727609   4.678   0.111   1.979 -1.3556  0.9845  1.8698
  137MOL   H13827610   4.827   0.046   2.013  0.6144 -1.9768  0.8229
  137MOL   H13927611   4.707   0.025   2.266 -0.1825  0.9074  0.2716
  137MOL   H14027612   4.613   0.342   2.136 -2.1164  1.7638  1.0784
  137MOL   H14127613   4.445   0.322   2.127 -1.5123 -2.5045 -0.5538
  137MOL   C14227614   4.807   0.201   2.235  1.4363  0.0846  0.6536
  137MOL   C14327615   4.816   0.236   2.385  0.0192  0.0960  0.0551
  137MOL   C14427616   4.710   0.341   2.415  0.5230 -0.1343 -0.3676
  137MOL   O14527617   4.724   0.459   2.368  0.3230  0.4487 -0.4859
  137MOL   N14627618   4.608   0.318   2.488  0.5411  0.6583  0.3375
  137MOL   H14727619   4.797   0.292   2.175 -3.6750  0.5583  1.9944
  137MOL   H14827620   4.898   0.153   2.202  1.0310  1.3384 -2.4949
  137MOL   H14927621   4.798   0.142   2.439  0.9595 -0.1681 -0.0904
  137MOL   H15027622   4.545   0.394   2.508  1.1207  1.0761  0.6099
  137MOL   H15127623   4.585   0.228   2.528  1.5869  0.5494  0.7104
  137MOL   C15227624   4.954   0.282   2.426  0.6279  0.0942  0.1571
  137MOL   C15327625   4.964   0.296   2.579 -0.1817 -0.1009 -0.0761
  137MOL   C15427626   4.972   0.450   2.605 -0.3752  0.2733  0.2900
  137MOL   O15527627   5.072   0.510   2.566 -0.9425 -0.1921 -0.3291
  137MOL   N15627628   4.870   0.511   2.664  0.0612 -0.3931 -0.0135
  137MOL   H15727629   4.994   0.368   2.372  1.3434 -0.2501  0.1302
  137MOL   H15827630   5.023   0.205   2.390  1.4661  2.5853 -3.8538
  137MOL   H15927631   4.877   0.258   2.633  0.4015 -2.3090 -0.6253
  137MOL   H16027632   4.876   0.611   2.679 -0.2208 -0.5398  1.1189
  137MOL   H16127633   4.786   0.464   2.695 -0.4129 -2.7545 -4.4941
  137MOL   C16227634   5.093   0.240   2.635 -0.3420  0.7452 -0.3824
  137MOL   C16327635   5.111   0.080   2.647  0.9928 -0.2798  0.1695
  137MOL   C16427636   4.987   0.010   2.710  0.3541  0.5876 -0.0799
  137MOL   O16527637   4.950   0.049   2.820 -0.3702 -0.0211  0.3107
  137MOL   N16627638   4.919   7.576   2.640  0.5330 -0.3228  0.4810
  137MOL   H16727639   5.102   0.269   2.740  3.0020  0.4730 -0.5334
  137MOL   H16827640   5.179   0.275   2.578 -1.1543  1.6796 -1.0604
  137MOL   H16927641   5.115   0.041   2.546  1.5156  0.3253 -0.0414
  137MOL   H17027642   4.943   7.576   2.542 -0.3974  1.5642  0.2234
  137MOL   H17127643   4.824   7.563   2.670  0.8893  1.3844  2.5130
  137MOL   C17227644   5.243   0.045   2.722 -0.1032  0.6626  0.6095
  137MOL   C17327645   5.264   7.556   2.779  0.8510 -0.6071 -0.0391
  137MOL   C17427646   5.396   7.563   2.857 -0.7509  1.0665 -0.1999
  137MOL   O17527647   5.405   7.623   2.965 -0.3238 -0.1455  0.4987
  137MOL   N17627648   5.495   7.494   2.807  0.4731  0.2922  0.1934
  137MOL   H17727649   5.256   0.109   2.809 -0.2192  3.0126 -1.0622
  137MOL   H17827650   5.313   0.081   2.647 -2.7211  1.4784 -1.5556
  137MOL   H17927651   5.191   7.551   2.860 -0.4965 -1.1020 -1.2662
  137MOL   H18027652   5.587   7.487   2.849  0.4012  1.7806  0.6250
  137MOL   H18127653   5.493   7.458   2.712 -1.0323  1.8194 -0.3810
  137MOL   C18227654   5.246   7.443   2.678 -0.3096  0.4656  0.5732
  137MOL   C18327655   5.176   7.318   2.733  0.1303 -1.0868 -0.1022
  137MOL   C18427656   5.252   7.219   2.823  0.0884 -0.1425  0.4638
  137MOL   O18527657   5.357   7.168   2.785  0.3324 -0.3189 -0.5372
  137MOL   N18627658   5.195   7.198   2.939  0.4980  0.3866 -0.1887
  137MOL   H18727659   5.332   7.418   2.616 -0.8618 -0.9452  0.3607
  137MOL   H18827660   5.167   7.474   2.611  1.4777  0.5892 -1.5073
  137MOL   H18927661   5.091   7.344   2.796 -1.2303 -0.1916 -2.2459
  137MOL   H19027662   5.107   7.244   2.958  0.0378 -0.7439  0.5160
  137MOL   H19127663   5.239   7.142   3.010 -1.5061 -0.2324  0.6094
  137MOL   C19227664   5.117   7.249   2.606 -0.3302 -0.1468  0.3880
  137MOL   C19327665   5.000   7.155   2.639 -0.6396 -0.9144 -0.0210
  137MOL   C19427666   4.946   7.075   2.523 -0.3906  0.5659 -0.3528
  137MOL   O19527667   5.001   6.966   2.502  0.4251  0.5644  0.2891
  137MOL   N19627668   4.847   7.118   2.452 -0.0451 -0.2545  0.1871
  137MOL   H19727669   5.197   7.194   2.557  0.0150  1.3478 -0.7828
  137MOL   H19827670   5.076   7.321   2.535  0.5859  0.7429  0.7406
  137MOL   H19927671   5.028   7.094   2.724  2.2673 -1.0302 -0.9873
  137MOL   H20027672   4.804   7.208   2.464  0.1687 -0.2130  0.6458
  137MOL   H20127673   4.838   7.071   2.362 -0.8617 -0.1790  0.2253
  137MOL   H20227674   4.918   7.213   2.682 -0.2509 -0.6041  0.3161
  138MOL     C127675   6.023   0.003   3.712  0.2175  0.2867  0.5664
  138MOL     C227676   5.951   7.534   3.762  0.1523 -0.5736 -0.2729
  138MOL     C327677   5.799   7.571   3.745  0.0093 -0.4427 -0.4361
  138MOL     O427678   5.745   0.006   3.809  0.3457 -0.0912 -0.4882
  138MOL     N527679   5.731   7.503   3.655  0.2042 -0.5671 -0.3122
  138MOL     H627680   6.000   0.014   3.606  1.5383 -0.3384  0.2016
  138MOL     H727681   5.977   0.084   3.770 -0.6202 -0.2896  0.7234
  138MOL     H827682   5.987   7.452   3.700  2.7490  0.5282 -0.3038
  138MOL     H927683   5.777   7.435   3.595 -1.2585 -0.4315 -1.6179
  138MOL    H1027684   5.643   7.535   3.618  0.0444 -0.5076  0.1258
  138MOL    H1127685   6.131   0.006   3.722  0.5573  0.1026 -2.7681
  138MOL    C1227686   5.994   7.490   3.908  0.1597  0.2860  0.5317
  138MOL    C1327687   5.920   7.364   3.962 -1.0023  0.7777  0.5968
  138MOL    C1427688   5.935   7.243   3.862 -0.0451  0.9005 -0.7974
  138MOL    O1527689   5.876   7.243   3.754 -0.2793 -0.4948 -0.2906
  138MOL    N1627690   6.009   7.135   3.897  0.0283  0.2493  0.6276
  138MOL    H1727691   5.980   7.566   3.986 -2.0898  0.2829  0.1492
  138MOL    H1827692   6.100   7.466   3.896 -0.2433 -0.7223 -1.0236
  138MOL    H1927693   5.975   7.334   4.051 -0.5672  1.4416  0.5532
  138MOL    H2027694   6.035   7.068   3.827 -0.9186  0.7809 -0.2420
  138MOL    H2127695   6.052   7.126   3.988  1.0573 -0.8705  0.0373
  138MOL    C2227696   5.773   7.370   3.999 -0.0372  0.6687 -0.3952
  138MOL    C2327697   5.696   7.234   4.020 -0.5091  0.4282 -0.1209
  138MOL    C2427698   5.555   7.283   4.057 -0.1904  0.2918 -0.2082
  138MOL    O2527699   5.514   7.299   4.172  0.3428  0.1906 -0.0725
  138MOL    N2627700   5.471   7.318   3.959  0.1808 -0.5751 -0.3968
  138MOL    H2727701   5.715   7.434   3.933  1.7728  1.7343 -0.9661
  138MOL    H2827702   5.752   7.432   4.086  3.3157  0.7063  0.4606
  138MOL    H2927703   5.697   7.170   3.932 -0.8241 -0.6482  0.6498
  138MOL    H3027704   5.498   7.327   3.862 -0.3555  1.7295 -0.3674
  138MOL    H3127705   5.379   7.352   3.984  0.8838  0.8046  0.3491
  138MOL    C3227706   5.751   7.145   4.133 -0.4590 -0.3657  0.2641
  138MOL    C3327707   5.695   6.996   4.137  0.1905 -0.5814 -0.3386
  138MOL    C3427708   5.734   6.938   4.274 -0.0560 -0.8441 -0.2432
  138MOL    O3527709   5.852   6.927   4.309  0.7438  0.1992 -0.1248
  138MOL    N3627710   5.645   6.892   4.359  0.2603  0.1150  0.0294
  138MOL    H3727711   5.725   7.187   4.230 -1.0357 -1.9317  0.8137
  138MOL    H3827712   5.858   7.121   4.126 -0.7279 -1.8461  0.9238
  138MOL    H3927713   5.587   6.989   4.139  0.1627 -1.1947 -2.4600
  138MOL    H4027714   5.548   6.921   4.353  0.5435  1.7116  2.4636
  138MOL    H4127715   5.686   6.860   4.446  0.6345  1.4539  0.3570
  138MOL    C4227716   5.744   6.910   4.021 -0.2027  0.6106  0.3028
  138MOL    C4327717   5.635   6.871   3.921  0.6278 -0.6874 -0.7631
  138MOL    C4427718   5.545   6.765   3.981 -0.0676  0.0670  0.0758
  138MOL    O4527719   5.591   6.679   4.057 -0.2878  0.9332 -0.3667
  138MOL    N4627720   5.418   6.767   3.937 -0.0355  0.2743  0.3625
  138MOL    H4727721   5.780   6.814   4.057 -2.2319 -0.3100 -0.0023
  138MOL    H4827722   5.826   6.959   3.969 -0.7772  2.0400  0.7264
  138MOL    H4927723   5.574   6.959   3.899  1.1832  0.0190  0.4790
  138MOL    H5027724   5.380   6.843   3.882  0.9286 -0.5006 -1.4031
  138MOL    H5127725   5.344   6.705   3.970 -0.7779  1.0822  0.2468
  138MOL    C5227726   5.687   6.824   3.782 -0.2032  0.4929  0.0698
  138MOL    C5327727   5.753   6.927   3.689 -0.1390 -0.1793  0.1347
  138MOL    C5427728   5.654   7.019   3.629 -0.0334 -0.1563  0.1572
  138MOL    O5527729   5.566   6.978   3.556 -0.0979 -0.0440  0.5281
  138MOL    N5627730   5.666   7.151   3.650 -0.4530 -0.0795 -0.3851
  138MOL    H5727731   5.609   6.788   3.715  1.2939  1.5224 -2.2796
  138MOL    H5827732   5.750   6.735   3.785  0.1214  0.7079 -0.4149
  138MOL    H5927733   5.813   6.984   3.759  0.5418 -0.8290  0.0791
  138MOL    H6027734   5.746   7.193   3.694 -1.0763  0.5510  0.1631
  138MOL    H6127735   5.596   7.214   3.614 -0.4042  0.1282 -0.1215
  138MOL    C6227736   5.830   6.859   3.572 -1.0884  0.1519 -0.2558
  138MOL    C6327737   5.971   6.802   3.593 -0.2878 -0.0552  0.0071
  138MOL    C6427738   6.074   6.913   3.597  0.4663  0.1285  0.5898
  138MOL    O6527739   6.095   6.959   3.706 -0.1022  0.0806  0.5946
  138MOL    N6627740   6.126   6.956   3.482  0.0161 -0.1789 -0.4533
  138MOL    H6727741   5.844   6.946   3.507 -0.8420 -0.4104 -0.9583
  138MOL    H6827742   5.754   6.797   3.524 -3.8531  2.8634  0.4731
  138MOL    H6927743   5.981   6.751   3.689 -0.3055  0.5237  0.3205
  138MOL    H7027744   6.173   7.045   3.481 -0.8621  0.2976  0.2536
  138MOL    H7127745   6.092   6.915   3.396 -0.8396 -0.1013 -0.1542
  138MOL    C7227746   6.005   6.696   3.488  0.1100  0.1904 -0.1546
  138MOL    C7327747   6.137   6.617   3.493 -0.2545  0.7503  0.0841
  138MOL    C7427748   6.168   6.562   3.355 -0.6184 -0.1925  0.1975
  138MOL    O7527749   6.090   6.494   3.287 -0.1157 -0.0914  0.1571
  138MOL    N7627750   6.285   6.586   3.297  0.1367 -0.2174 -0.2308
  138MOL    H7727751   5.996   6.749   3.393 -0.3099 -0.5579 -0.5318
  138MOL    H7827752   5.931   6.617   3.480  0.2033  0.2716 -2.1363
  138MOL    H7927753   6.233   6.661   3.519  1.2738 -0.6631 -2.8845
  138MOL    H8027754   6.286   6.553   3.202 -0.0297 -0.5452 -0.1201
  138MOL    H8127755   6.363   6.611   3.357 -0.6958  0.8478  0.4338
  138MOL    C8227756   6.131   6.494   3.586  0.1618  0.2119 -0.2535
  138MOL    C8327757   6.271   6.424   3.610 -0.8004 -0.0868 -0.1489
  138MOL    C8427758   6.277   6.276   3.552 -0.3219 -0.2337 -0.3385
  138MOL    O8527759   6.200   6.188   3.591 -0.4124 -0.2748  0.3191
  138MOL    N8627760   6.370   6.242   3.461 -0.1739 -0.2599 -0.1821
  138MOL    H8727761   6.078   6.413   3.537 -1.8652  0.9882  0.5816
  138MOL    H8827762   6.078   6.526   3.677  2.2115  2.2796  0.2794
  138MOL    H8927763   6.337   6.492   3.557  0.0675 -0.3301  0.6167
  138MOL    H9027764   6.419   6.319   3.420 -0.2687  1.4060  2.6806
  138MOL    H9127765   6.366   6.150   3.419 -0.1709  0.8343 -2.6109
  138MOL    C9227766   6.317   6.428   3.758  1.2085  0.2723  0.0608
  138MOL    C9327767   6.354   6.569   3.810  0.2366 -0.2618 -0.0514
  138MOL    C9427768   6.487   6.609   3.744  0.5182 -0.2689  0.7187
  138MOL    O9527769   6.585   6.541   3.756  0.3526 -0.0697  0.6560
  138MOL    N9627770   6.487   6.724   3.671 -0.0976 -0.6206  0.3205
  138MOL    H9727771   6.389   6.349   3.778  1.2709 -0.1635 -1.8080
  138MOL    H9827772   6.233   6.397   3.820  1.1386 -0.5329 -0.4207
  138MOL    H9927773   6.277   6.637   3.774 -2.0749 -3.0338 -0.5338
  138MOL   H10027774   6.571   6.750   3.621 -0.7949 -2.0497 -1.6434
  138MOL   H10127775   6.400   6.776   3.663 -0.8661 -1.9937 -0.4158
  138MOL   C10227776   6.357   6.579   3.958 -0.4375  0.2871  0.1059
  138MOL   C10327777   6.391   6.705   4.028 -0.7667 -0.0188  0.4117
  138MOL   C10427778   6.393   6.672   4.178  0.5919  0.4158  0.1989
  138MOL   O10527779   6.285   6.643   4.234 -0.0203  0.8108 -0.1937
  138MOL   N10627780   6.499   6.693   4.257 -0.2605  0.9134 -0.0376
  138MOL   H10727781   6.416   6.496   3.996  0.8043  0.4508 -1.4279
  138MOL   H10827782   6.256   6.548   3.987 -0.2288 -1.1765 -0.6638
  138MOL   H10927783   6.493   6.731   3.999 -1.2617  3.3493  1.4103
  138MOL   H11027784   6.501   6.703   4.357  2.4632  1.1170 -0.0750
  138MOL   H11127785   6.589   6.704   4.212  0.8951 -2.9848  1.0480
  138MOL   C11227786   6.304   6.831   3.999  0.3340 -0.6312 -0.3204
  138MOL   C11327787   6.316   6.944   4.100  0.0439 -0.6627 -0.2615
  138MOL   C11427788   6.182   6.962   4.169 -0.3448 -0.7297  0.0327
  138MOL   O11527789   6.111   7.064   4.172 -0.5371 -0.7969 -0.3579
  138MOL   N11627790   6.127   6.847   4.208 -0.2283  0.0699 -0.0874
  138MOL   H11727791   6.203   6.794   3.987 -0.5309  1.1228  1.3607
  138MOL   H11827792   6.337   6.872   3.904  0.4078  2.3170  0.9228
  138MOL   H11927793   6.388   6.931   4.180 -0.0777  1.4739  0.2277
  138MOL   H12027794   6.186   6.765   4.204 -2.0389 -1.3753  1.7078
  138MOL   H12127795   6.037   6.841   4.253  0.1106  1.0389  0.7801
  138MOL   C12227796   6.361   7.074   4.032 -0.2720 -0.2627  0.0765
  138MOL   C12327797   6.390   7.196   4.127  0.1532  0.2493  0.7412
  138MOL   C12427798   6.321   7.322   4.073  0.0057 -0.7156  0.0520
  138MOL   O12527799   6.335   7.357   3.957  0.1543  0.0048 -0.0381
  138MOL   N12627800   6.236   7.380   4.149  0.1982 -0.5787  0.2744
  138MOL   H12727801   6.277   7.100   3.968  0.0922  1.6042  0.3322
  138MOL   H12827802   6.441   7.065   3.959 -0.3265  0.8478 -0.1331
  138MOL   H12927803   6.362   7.176   4.230  0.4661 -1.5813  0.4895
  138MOL   H13027804   6.188   7.467   4.131 -0.4054 -0.2360  3.2560
  138MOL   H13127805   6.195   7.330   4.226  0.9125 -1.5195  0.0472
  138MOL   C13227806   6.540   7.228   4.135  0.0826 -0.4844 -0.1547
  138MOL   C13327807   6.634   7.127   4.204 -0.4477  0.4045  1.7934
  138MOL   C13427808   6.602   7.120   4.352  0.7939  0.5894  0.5098
  138MOL   O13527809   6.561   7.213   4.418  0.3939  0.9397 -0.4870
  138MOL   N13627810   6.623   6.997   4.398  0.3026  0.1562  0.4834
  138MOL   H13727811   6.547   7.319   4.195  0.0337 -0.0687 -0.7812
  138MOL   H13827812   6.581   7.252   4.037  0.4164 -2.6984 -0.5806
  138MOL   H13927813   6.627   7.027   4.161  1.1448  0.1998  1.9588
  138MOL   H14027814   6.692   6.942   4.350  0.8286 -0.5695  2.0352
  138MOL   H14127815   6.621   6.995   4.499  1.0990 -0.3777  0.4826
  138MOL   C14227816   6.788   7.164   4.182  0.8907 -0.5659  0.3122
  138MOL   C14327817   6.832   7.308   4.206 -0.0045 -0.4661 -0.2796
  138MOL   C14427818   6.838   7.387   4.064  1.0415 -0.5199 -0.7327
  138MOL   O14527819   6.905   7.342   3.973  0.2267  0.8365  0.6888
  138MOL   N14627820   6.757   7.488   4.053  0.2985  0.4686  0.2688
  138MOL   H14727821   6.816   7.138   4.080 -3.5390  0.9370 -1.4120
  138MOL   H14827822   6.850   7.105   4.250 -0.1598 -2.9044 -0.7099
  138MOL   H14927823   6.763   7.346   4.281  0.8969 -0.9502  0.8000
  138MOL   H15027824   6.693   7.501   4.130  0.7377 -2.0282  1.0805
  138MOL   H15127825   6.742   7.530   3.962  4.6002 -1.2303 -1.3784
  138MOL   C15227826   6.975   7.308   4.273  0.5358 -0.2354 -0.4390
  138MOL   C15327827   7.051   7.439   4.292  0.1444  0.4819  0.5530
  138MOL   C15427828   7.199   7.420   4.340  0.2517  0.6623 -0.0348
  138MOL   O15527829   7.228   7.356   4.439 -0.1351  0.3821  0.5427
  138MOL   N15627830   7.303   7.486   4.287  0.2236  0.1537  0.2555
  138MOL   H15727831   7.041   7.238   4.223  0.4699  0.1036 -1.0058
  138MOL   H15827832   6.954   7.263   4.370 -1.5078  0.8845 -0.3337
  138MOL   H15927833   7.061   7.484   4.193 -1.0485 -0.9755 -0.2621
  138MOL   H16027834   7.394   7.463   4.324  1.1739 -0.6187 -2.4026
  138MOL   H16127835   7.296   7.544   4.204  1.6591  2.2564  1.5447
  138MOL   C16227836   6.960   7.521   4.389  0.2485  0.1767  0.3299
  138MOL   C16327837   7.021   7.650   4.434 -0.6400 -0.6947  0.5620
  138MOL   C16427838   6.937   0.065   4.529 -0.3252 -0.2877 -0.0401
  138MOL   O16527839   6.827   0.099   4.495  0.3562  0.2934  0.3509
  138MOL   N16627840   6.974   0.080   4.658  0.0700 -0.0977  0.2240
  138MOL   H16727841   6.932   7.459   4.475 -0.6435  0.6860  0.4155
  138MOL   H16827842   6.873   7.536   4.325  2.5028  0.4364 -2.7854
  138MOL   H16927843   7.117   7.635   4.484 -1.3401 -0.0269  2.1672
  138MOL   H17027844   7.064   0.046   4.689 -0.0105 -0.0435  0.5227
  138MOL   H17127845   6.900   0.121   4.713 -0.1778 -0.0044 -0.1799
  138MOL   C17227846   7.071   0.089   4.325  0.5361 -0.3707 -0.1729
  138MOL   C17327847   7.146   0.223   4.351  0.8201  0.0126 -0.3226
  138MOL   C17427848   7.164   0.309   4.226  0.8946  0.4611  0.2573
  138MOL   O17527849   7.183   0.259   4.116 -0.9465  0.0322  0.2655
  138MOL   N17627850   7.147   0.438   4.240  0.3821  0.5214  0.0481
  138MOL   H17727851   6.989   0.121   4.262  0.4591 -2.2328 -1.0625
  138MOL   H17827852   7.128   0.029   4.254 -1.4300 -1.1507 -1.1026
  138MOL   H17927853   7.083   0.276   4.422  1.6007 -0.1788  0.5259
  138MOL   H18027854   7.134   0.482   4.330 -1.4203 -0.3679  0.2385
  138MOL   H18127855   7.166   0.491   4.156  1.3285 -1.9021 -1.3081
  138MOL   C18227856   7.287   0.214   4.412  0.3751  0.1896  0.4936
  138MOL   C18327857   7.294   0.200   4.568  0.0133 -0.4077  0.8190
  138MOL   C18427858   7.355   0.323   4.637 -0.2889 -0.2017  0.2606
  138MOL   O18527859   7.468   0.324   4.679  0.5460 -0.3407 -0.1251
  138MOL   N18627860   7.276   0.428   4.664  0.5930 -0.1323  0.0816
  138MOL   H18727861   7.349   0.302   4.391  1.4448 -0.3656  1.2900
  138MOL   H18827862   7.345   0.136   4.363  1.1363  0.9927  0.1000
  138MOL   H18927863   7.191   0.198   4.601 -0.7942  1.8188 -1.4517
  138MOL   H19027864   7.189   0.439   4.613 -0.0788 -0.4642  1.1379
  138MOL   H19127865   7.333   0.500   4.705  3.3794 -2.9444  1.4230
  138MOL   C19227866   7.362   0.062   4.605 -0.2745  0.2708  0.1779
  138MOL   C19327867   7.344   0.023   4.754 -0.5606 -0.1420 -0.0041
  138MOL   C19427868   7.467   0.003   4.839 -0.1550  0.0537  0.5213
  138MOL   O19527869   7.493   7.550   4.892  0.2770  0.2021 -0.3779
  138MOL   N19627870   7.540   0.112   4.850  0.2582  0.0039  0.1052
  138MOL   H19727871   7.469   0.070   4.586 -0.1147 -0.1494  0.8634
  138MOL   H19827872   7.339   7.641   4.531  3.2454 -1.3030  0.6255
  138MOL   H19927873   7.282   0.096   4.806 -1.5526 -2.0066  1.5041
  138MOL   H20027874   7.521   0.193   4.793 -0.8402 -0.3239 -0.0047
  138MOL   H20127875   7.625   0.116   4.904 -0.8001  0.9622  1.7784
  138MOL   H20227876   7.285   7.588   4.760  0.9145 -1.0680  0.6807
  139MOL     C127877   2.922   3.623   2.940 -0.3671 -0.0427 -0.0267
  139MOL     C227878   2.960   3.577   3.080 -0.6201  0.4263  0.2356
  139MOL     C327879   3.109   3.527   3.073  0.6221  0.1585  0.0546
  139MOL     O427880   3.137   3.436   2.989 -0.4843  0.2138 -0.2688
  139MOL     N527881   3.196   3.581   3.161 -0.0963  0.5795 -0.0404
  139MOL     H627882   2.844   3.698   2.935 -3.2250 -2.8999  0.0591
  139MOL     H727883   3.008   3.665   2.886 -0.3037 -1.1816 -0.8338
  139MOL     H827884   2.950   3.667   3.139 -2.4120 -0.8203  1.8809
  139MOL     H927885   3.286   3.536   3.167 -0.9850 -1.1761  0.2659
  139MOL    H1027886   3.172   3.653   3.228  0.1292  1.6563 -1.1087
  139MOL    H1127887   2.895   3.541   2.874  0.9061 -1.0858  0.7184
  139MOL    C1227888   2.870   3.461   3.131  0.3529 -0.5589 -0.7364
  139MOL    C1327889   2.728   3.497   3.157  0.0336  0.3704  0.0264
  139MOL    C1427890   2.710   3.585   3.278  0.9600 -0.3141  0.2568
  139MOL    O1527891   2.730   3.538   3.391 -0.2827 -0.3793 -0.6900
  139MOL    N1627892   2.685   3.712   3.256  0.0988 -0.3863  0.1492
  139MOL    H1727893   2.918   3.429   3.223 -0.1086  0.2337 -0.2148
  139MOL    H1827894   2.872   3.375   3.064  0.1739 -0.6067 -0.6808
  139MOL    H1927895   2.708   3.565   3.074  0.5222  0.8695  0.3117
  139MOL    H2027896   2.660   3.765   3.338  2.8170 -0.1721  0.8939
  139MOL    H2127897   2.650   3.740   3.165 -1.3418 -0.6584  0.6154
  139MOL    C2227898   2.636   3.370   3.155 -0.1246  0.0169 -0.1428
  139MOL    C2327899   2.580   3.336   3.019 -0.2933  0.0035 -0.2369
  139MOL    C2427900   2.496   3.453   2.958  0.0469  0.2900 -0.2706
  139MOL    O2527901   2.539   3.520   2.857 -0.3079  0.2219  0.3652
  139MOL    N2627902   2.390   3.486   3.026 -0.3187 -0.4632 -0.3501
  139MOL    H2727903   2.553   3.382   3.224  0.3193 -0.1473  0.4263
  139MOL    H2827904   2.684   3.279   3.190 -0.7061 -0.1394  0.2523
  139MOL    H2927905   2.662   3.324   2.949 -0.0159 -1.0528  0.2630
  139MOL    H3027906   2.361   3.428   3.103 -1.2968 -0.9862 -1.0931
  139MOL    H3127907   2.338   3.566   2.993  2.0256  1.4337  0.4281
  139MOL    C3227908   2.491   3.207   3.025 -0.4072 -0.1817  0.2496
  139MOL    C3327909   2.558   3.071   2.974 -0.0989 -0.4672 -0.9409
  139MOL    C3427910   2.488   3.012   2.858 -0.0304 -0.3668 -0.5064
  139MOL    O3527911   2.377   2.964   2.879 -0.0466  0.4772  0.3285
  139MOL    N3627912   2.533   3.008   2.735 -0.2624 -0.2686  0.1537
  139MOL    H3727913   2.395   3.230   2.978 -0.2397  1.9541  0.8975
  139MOL    H3827914   2.483   3.193   3.133 -1.2146 -0.5242  0.1510
  139MOL    H3927915   2.661   3.095   2.946  1.2673 -1.3544  3.0787
  139MOL    H4027916   2.627   3.041   2.718  0.2701 -1.6122  0.4165
  139MOL    H4127917   2.485   2.963   2.658  2.3041 -1.9722 -0.5444
  139MOL    C4227918   2.573   2.960   3.083 -0.0356  0.5436  0.8541
  139MOL    C4327919   2.671   2.847   3.049  0.1021  0.3585 -0.2641
  139MOL    C4427920   2.622   2.725   3.123 -0.2265 -0.3918 -0.0222
  139MOL    O4527921   2.669   2.699   3.235  0.5854  0.0776 -0.2896
  139MOL    N4627922   2.545   2.646   3.056  0.0106  0.3128  0.0374
  139MOL    H4727923   2.475   2.925   3.117 -0.4741  2.1270  1.2372
  139MOL    H4827924   2.620   3.008   3.169 -1.4204  2.1897  0.7192
  139MOL    H4927925   2.656   2.833   2.942 -1.0003  3.0972 -0.5004
  139MOL    H5027926   2.508   2.559   3.090  0.5375 -1.0277 -2.7228
  139MOL    H5127927   2.524   2.675   2.962 -1.9655 -0.6208  0.1774
  139MOL    C5227928   2.824   2.868   3.071  0.4472  0.0764  0.7400
  139MOL    C5327929   2.917   2.791   2.969  0.2181  0.0243 -0.3693
  139MOL    C5427930   3.064   2.795   3.010  0.2652  0.0093  0.2203
  139MOL    O5527931   3.109   2.889   3.072 -0.2177  0.2989  0.1655
  139MOL    N5627932   3.138   2.694   2.971 -0.3049 -0.1682 -0.3215
  139MOL    H5727933   2.855   2.851   3.174 -0.1754 -1.5523  0.6784
  139MOL    H5827934   2.843   2.975   3.059 -1.3968  0.3885  0.4122
  139MOL    H5927935   2.883   2.687   2.972 -0.6425  0.3363  0.9631
  139MOL    H6027936   3.238   2.689   2.985 -0.5089  1.2473  2.0357
  139MOL    H6127937   3.090   2.625   2.914 -1.1886 -0.0976  0.3214
  139MOL    C6227938   2.900   2.802   2.816  0.3061  0.4428  0.0590
  139MOL    C6327939   2.966   2.926   2.738  0.4920  0.7804  0.1756
  139MOL    C6427940   2.906   3.061   2.785  0.3080  0.1987 -1.3220
  139MOL    O6527941   2.796   3.095   2.750  0.6082 -0.5122 -0.0675
  139MOL    N6627942   2.973   3.140   2.869 -0.5317 -0.0788 -0.8056
  139MOL    H6727943   2.793   2.806   2.798  0.2075  0.0107  0.5315
  139MOL    H6827944   2.936   2.712   2.766 -3.0826 -1.2821  0.5772
  139MOL    H6927945   3.071   2.940   2.761  0.5167  1.3489 -0.2683
  139MOL    H7027946   2.927   3.220   2.911  3.7659  1.8568  0.4478
  139MOL    H7127947   3.069   3.117   2.890 -0.3300  1.2468 -0.2545
  139MOL    C7227948   2.962   2.908   2.587 -0.1270 -0.4491  0.6658
  139MOL    C7327949   2.822   2.887   2.515 -0.1934 -0.4777  1.1641
  139MOL    C7427950   2.775   2.745   2.515  0.1330 -0.0546 -0.2121
  139MOL    O7527951   2.853   2.649   2.520 -0.1952 -0.2369 -0.2846
  139MOL    N7627952   2.648   2.728   2.519  0.5894 -0.1270  0.6607
  139MOL    H7727953   3.028   2.822   2.570 -0.1891  0.0472 -2.4266
  139MOL    H7827954   3.015   2.988   2.535 -1.1681 -0.0087  0.2758
  139MOL    H7927955   2.750   2.951   2.565  0.0444  0.4010  0.3968
  139MOL    H8027956   2.610   2.636   2.535  1.9712 -0.9678 -0.6932
  139MOL    H8127957   2.590   2.808   2.497  1.0393 -0.5026 -2.0696
  139MOL    C8227958   2.826   2.932   2.362 -0.0108  0.7316  0.0804
  139MOL    C8327959   2.749   3.059   2.324  0.2302  0.2298 -0.1435
  139MOL    C8427960   2.608   3.062   2.371 -0.4450  0.2097  0.8268
  139MOL    O8527961   2.531   2.971   2.340  0.5284  0.1426 -0.1966
  139MOL    N8627962   2.569   3.160   2.445  0.1680  0.1577 -0.3124
  139MOL    H8727963   2.777   2.850   2.311 -0.8915 -0.7266  3.1248
  139MOL    H8827964   2.928   2.933   2.323  1.0442 -2.3864  2.5298
  139MOL    H8927965   2.796   3.145   2.372  0.4313 -0.0979  0.2478
  139MOL    H9027966   2.472   3.167   2.473  0.0340 -0.6067 -0.5942
  139MOL    H9127967   2.629   3.239   2.465 -0.7730  1.4572 -2.4367
  139MOL    C9227968   2.758   3.071   2.160 -1.0034  0.7412 -0.1857
  139MOL    C9327969   2.690   3.190   2.093  0.2550 -0.2571  0.6928
  139MOL    C9427970   2.703   3.174   1.940  0.0127 -0.6221  0.1258
  139MOL    O9527971   2.817   3.156   1.895  0.1908 -0.3248  0.3953
  139MOL    N9627972   2.598   3.161   1.862  0.5523 -0.1343  0.1236
  139MOL    H9727973   2.714   2.982   2.116 -0.0347 -0.1811  0.6721
  139MOL    H9827974   2.867   3.069   2.154 -1.0257 -4.3324 -0.7991
  139MOL    H9927975   2.586   3.182   2.125  1.0902 -1.9299  3.1214
  139MOL   H10027976   2.511   3.145   1.910  1.7683 -1.8235  1.8363
  139MOL   H10127977   2.611   3.168   1.762  1.0514  0.8805  0.2539
  139MOL   C10227978   2.744   3.329   2.136 -0.2260 -0.3046  0.2692
  139MOL   C10327979   2.643   3.427   2.193  0.2581 -0.1761  0.5766
  139MOL   C10427980   2.550   3.484   2.084 -0.6776 -0.0498  0.0568
  139MOL   O10527981   2.578   3.588   2.019 -0.0294  1.1542 -0.0372
  139MOL   N10627982   2.428   3.428   2.082 -0.8861  0.7857 -0.1812
  139MOL   H10727983   2.801   3.382   2.059 -3.5192 -0.7021 -2.5171
  139MOL   H10827984   2.825   3.309   2.207 -1.1624 -2.5723  0.7444
  139MOL   H10927985   2.585   3.375   2.269 -1.3973  0.2961 -0.3249
  139MOL   H11027986   2.352   3.477   2.037  1.7362  4.0863 -1.2276
  139MOL   H11127987   2.417   3.350   2.145  0.1781 -0.3142 -1.3336
  139MOL   C11227988   2.717   3.551   2.261  0.0061 -0.0378  0.0949
  139MOL   C11327989   2.661   3.604   2.392  0.0268  0.4120 -0.1231
  139MOL   C11427990   2.717   3.515   2.514 -0.0782  0.4308  0.2181
  139MOL   O11527991   2.715   3.392   2.508 -0.0441  0.4941  0.1060
  139MOL   N11627992   2.740   3.579   2.625 -0.3525  0.1139 -0.4993
  139MOL   H11727993   2.725   3.634   2.190 -0.9234  0.2017  0.2639
  139MOL   H11827994   2.822   3.521   2.273 -0.3047 -2.1954 -2.2447
  139MOL   H11927995   2.710   3.702   2.396  0.4264  0.2289 -0.4670
  139MOL   H12027996   2.716   3.677   2.628  0.3256  0.2481  0.7940
  139MOL   H12127997   2.763   3.522   2.706  2.2160 -2.6700 -3.0529
  139MOL   C12227998   2.506   3.619   2.387  0.2960 -0.3052 -0.5570
  139MOL   C12327999   2.435   3.667   2.517 -0.4686 -0.4394 -0.3750
  139MOL   C12428000   2.315   3.582   2.549  0.5619 -0.4568 -1.1829
  139MOL   O12528001   2.202   3.589   2.495  0.4605 -0.0876 -0.0054
  139MOL   N12628002   2.322   3.507   2.661  0.5280 -0.0052 -0.5446
  139MOL   H12728003   2.470   3.518   2.368 -0.7326  0.2541 -1.6692
  139MOL   H12828004   2.472   3.682   2.305 -0.3478 -0.8245 -0.6878
  139MOL   H12928005   2.505   3.665   2.600  0.8086  1.5391 -1.3620
  139MOL   H13028006   2.252   3.452   2.707  1.7896 -0.4320  0.9257
  139MOL   H13128007   2.411   3.515   2.709  0.0335 -0.1511  0.4271
  139MOL   C13228008   2.387   3.811   2.514 -0.5202  0.4336 -0.6889
  139MOL   C13328009   2.494   3.918   2.471  0.3016  0.4129  0.8913
  139MOL   C13428010   2.614   3.933   2.568  0.2398  0.0540 -0.2211
  139MOL   O13528011   2.607   3.877   2.675 -0.1106  0.3319  0.2202
  139MOL   N13628012   2.710   4.020   2.523  0.3831  0.3805  0.0775
  139MOL   H13728013   2.350   3.836   2.613  0.9545  0.4481 -0.1253
  139MOL   H13828014   2.308   3.819   2.440 -0.0824 -0.3470 -1.2552
  139MOL   H13928015   2.535   3.879   2.378 -0.0574 -0.1826  0.9812
  139MOL   H14028016   2.711   4.022   2.422  1.3070  2.1275  0.0864
  139MOL   H14128017   2.790   4.036   2.582 -0.1480 -0.0398  0.9222
  139MOL   C14228018   2.428   4.054   2.462  0.7146 -0.0518  0.7425
  139MOL   C14328019   2.455   4.152   2.340 -0.0798 -0.8024  0.0878
  139MOL   C14428020   2.565   4.115   2.241  0.8495  0.2812 -0.4566
  139MOL   O14528021   2.656   4.038   2.259  0.0199  0.3067  0.6656
  139MOL   N14628022   2.561   4.168   2.121 -0.5239  0.2555  0.1698
  139MOL   H14728023   2.435   4.106   2.558  0.9411 -2.7301  2.2519
  139MOL   H14828024   2.320   4.042   2.454  0.8697  0.5010 -2.5321
  139MOL   H14928025   2.356   4.150   2.294 -0.5269  2.0798  0.8202
  139MOL   H15028026   2.501   4.234   2.075 -0.9432  1.1337  1.9405
  139MOL   H15128027   2.625   4.120   2.059 -1.5180 -1.0527  0.1469
  139MOL   C15228028   2.489   4.296   2.394  0.4910 -0.9056  0.2087
  139MOL   C15328029   2.365   4.370   2.462 -0.3184 -0.3396  0.5017
  139MOL   C15428030   2.284   4.427   2.343 -0.2223  0.7563  0.2358
  139MOL   O15528031   2.332   4.509   2.264 -0.2366  0.2197 -0.4903
  139MOL   N15628032   2.156   4.392   2.350  0.2953 -0.6680  0.4040
  139MOL   H15728033   2.531   4.368   2.324 -1.7294  1.4870  1.2765
  139MOL   H15828034   2.557   4.282   2.478  0.1669  1.6361  0.9214
  139MOL   H15928035   2.309   4.295   2.518  0.3265 -1.2744 -0.0920
  139MOL   H16028036   2.092   4.415   2.275 -0.5406 -0.8235  1.0656
  139MOL   H16128037   2.138   4.325   2.423  0.7227  0.8612  1.9561
  139MOL   C16228038   2.414   4.498   2.542  0.3014 -0.0156  0.1348
  139MOL   C16328039   2.304   4.584   2.617  0.3310 -0.0384  0.2986
  139MOL   C16428040   2.203   4.500   2.708 -0.6656 -0.2384 -0.4196
  139MOL   O16528041   2.162   4.392   2.672  0.1836  0.0845  0.2035
  139MOL   N16628042   2.162   4.564   2.816 -0.0056 -0.4821  0.1081
  139MOL   H16728043   2.475   4.558   2.474  1.9813 -0.0253  1.6079
  139MOL   H16828044   2.490   4.478   2.617  0.2336  0.1893  0.2586
  139MOL   H16928045   2.365   4.638   2.689  0.8269  0.2268 -0.3177
  139MOL   H17028046   2.176   4.662   2.837  0.2661 -0.3552 -0.6430
  139MOL   H17128047   2.101   4.519   2.883 -2.0563 -1.0592 -2.1104
  139MOL   C17228048   2.214   4.683   2.534  0.0258  0.2718 -0.2573
  139MOL   C17328049   2.288   4.792   2.448  0.0069  0.6033 -0.0354
  139MOL   C17428050   2.395   4.874   2.525  0.5157  0.2053  1.0990
  139MOL   O17528051   2.363   4.957   2.607  0.5115 -0.6884 -0.0317
  139MOL   N17628052   2.524   4.855   2.500 -0.5165 -0.2086  0.1915
  139MOL   H17728053   2.147   4.739   2.600  0.3613  1.6055 -1.0208
  139MOL   H17828054   2.145   4.633   2.467 -2.4313  2.5280  0.5199
  139MOL   H17928055   2.345   4.738   2.372 -2.0064 -1.3927 -0.1834
  139MOL   H18028056   2.555   4.787   2.432 -0.0964 -0.9786  1.1423
  139MOL   H18128057   2.588   4.903   2.562  0.4341 -0.8220 -0.3005
  139MOL   C18228058   2.174   4.883   2.376  0.3339 -0.2158  0.1964
  139MOL   C18328059   2.120   4.834   2.242 -0.9283  0.1032 -0.2648
  139MOL   C18428060   2.237   4.854   2.140  0.0400 -0.9480  0.0263
  139MOL   O18528061   2.246   4.955   2.070 -0.3966 -0.0417  0.8222
  139MOL   N18628062   2.328   4.754   2.130 -0.2521  0.2099 -0.3994
  139MOL   H18728063   2.213   4.984   2.363  0.5592 -0.2429  0.6629
  139MOL   H18828064   2.094   4.891   2.449  1.1478  0.6186  1.0135
  139MOL   H18928065   2.095   4.731   2.265 -0.8451  0.5231  1.8577
  139MOL   H19028066   2.409   4.764   2.070  0.0241 -0.5351 -0.1494
  139MOL   H19128067   2.310   4.672   2.185 -0.1146  0.5819  0.2113
  139MOL   C19228068   1.990   4.911   2.204  0.5287 -0.2457 -0.8263
  139MOL   C19328069   1.864   4.861   2.280  0.0612  0.2879 -0.1010
  139MOL   C19428070   1.834   4.911   2.426 -0.0358 -0.4074 -0.6037
  139MOL   O19528071   1.881   5.013   2.478  0.3071 -0.0043  0.2266
  139MOL   N19628072   1.757   4.827   2.491 -0.1713  0.4596  0.5059
  139MOL   H19728073   1.976   4.891   2.098 -1.2465 -1.7610 -0.3234
  139MOL   H19828074   2.013   5.018   2.208  0.4010 -0.2795  1.4862
  139MOL   H19928075   1.774   4.882   2.222  0.7036  2.0921 -0.4458
  139MOL   H20028076   1.709   4.752   2.443  0.5883 -1.8513  3.2183
  139MOL   H20128077   1.741   4.833   2.591  0.1679 -0.5788  0.6315
  139MOL   H20228078   1.865   4.752   2.290  1.9865 -0.2327 -4.8312
  140MOL     C128079   2.075   0.005   2.197  0.2952 -0.2277  0.1489
  140MOL     C228080   2.171   0.061   2.083 -0.2123 -0.1581 -0.2985
  140MOL     C328081   2.307   7.645   2.095  0.0455  0.3404  0.5026
  140MOL     O428082   2.388   0.031   2.179 -0.4034  0.6174  0.3740
  140MOL     N528083   2.337   7.534   2.024  0.4030 -1.0620  0.5007
  140MOL     H628084   1.969   0.007   2.172 -0.2683  0.7612  2.4400
  140MOL     H728085   2.094   7.555   2.208 -2.2827 -0.6864  0.5039
  140MOL     H828086   2.127   0.026   1.989  0.5909 -0.4863 -0.5623
  140MOL     H928087   2.426   7.488   2.038  1.0440 -0.1538 -0.5095
  140MOL    H1028088   2.264   7.497   1.964 -0.2912 -1.5359  1.6286
  140MOL    H1128089   2.086   0.061   2.290  0.8398 -0.8783  0.4753
  140MOL    C1228090   2.170   0.220   2.082 -0.1900 -0.2639  0.4030
  140MOL    C1328091   2.261   0.288   1.980  0.0812 -0.1305  0.3555
  140MOL    C1428092   2.372   0.375   2.052 -0.4697 -0.1517  0.1642
  140MOL    O1528093   2.338   0.481   2.107 -0.1631 -0.0803 -0.2756
  140MOL    N1628094   2.491   0.318   2.066 -0.2899  0.3786  0.8273
  140MOL    H1728095   2.217   0.245   2.176  1.6776 -0.1709 -0.5286
  140MOL    H1828096   2.073   0.269   2.084  0.7547  1.8313 -2.5972
  140MOL    H1928097   2.308   0.208   1.922  1.5778  0.7098  0.3742
  140MOL    H2028098   2.500   0.221   2.042  2.0702  0.9356 -0.7128
  140MOL    H2128099   2.561   0.375   2.112 -1.6374  1.9607  0.9736
  140MOL    C2228100   2.193   0.378   1.868 -0.2381  0.5003 -0.1683
  140MOL    C2328101   2.122   0.307   1.742  0.5578 -1.1352 -0.6754
  140MOL    C2428102   2.212   0.215   1.656  0.3714  0.0150  0.1135
  140MOL    O2528103   2.216   0.095   1.674  0.5176  0.5890  0.4037
  140MOL    N2628104   2.290   0.278   1.571 -0.1968 -0.2680  0.9523
  140MOL    H2728105   2.268   0.436   1.814 -0.8449  0.6453 -0.8705
  140MOL    H2828106   2.128   0.446   1.922 -0.3725 -0.4795  0.9239
  140MOL    H2928107   2.042   0.244   1.780  0.4729 -0.5679  0.1137
  140MOL    H3028108   2.298   0.379   1.579  0.1681 -0.2806  0.7405
  140MOL    H3128109   2.337   0.223   1.502  1.4094  0.7897  1.1629
  140MOL    C3228110   2.042   0.420   1.668  0.0662 -0.2421  0.8268
  140MOL    C3328111   1.960   0.372   1.537  0.2010  0.1048 -0.1336
  140MOL    C3428112   1.899   0.480   1.456 -0.4415 -0.6091 -0.8922
  140MOL    O3528113   1.851   0.448   1.348  0.0170 -0.0397 -0.1205
  140MOL    N3628114   1.913   0.609   1.489 -0.7004 -0.9713  0.0447
  140MOL    H3728115   2.109   0.503   1.647  1.2067 -0.8989  1.8187
  140MOL    H3828116   1.975   0.470   1.739 -1.4735  0.3884 -1.0217
  140MOL    H3928117   2.037   0.334   1.469  0.6860 -1.4398  1.2389
  140MOL    H4028118   1.959   0.625   1.577  1.3983 -0.1342 -1.1616
  140MOL    H4128119   1.878   0.686   1.433 -1.3752 -3.1145 -2.5895
  140MOL    C4228120   1.876   0.243   1.569 -0.8466 -0.6418  0.5536
  140MOL    C4328121   1.759   0.261   1.672  0.2472  0.2146 -0.0165
  140MOL    C4428122   1.737   0.137   1.764 -0.2345 -0.6372  0.2767
  140MOL    O4528123   1.726   0.021   1.718 -0.0872  0.3834  0.7268
  140MOL    N4628124   1.744   0.157   1.893  0.1817 -0.0319 -0.1322
  140MOL    H4728125   1.942   0.167   1.609 -0.1706 -0.1921  0.3131
  140MOL    H4828126   1.840   0.210   1.471  1.6960  0.1346 -0.7124
  140MOL    H4928127   1.789   0.345   1.735 -0.3776  1.6237 -1.5680
  140MOL    H5028128   1.718   0.076   1.948  0.4636  0.2427  0.4174
  140MOL    H5128129   1.763   0.249   1.930 -0.1597  0.3765 -0.9639
  140MOL    C5228130   1.627   0.302   1.602 -0.5015  0.5553 -0.5866
  140MOL    C5328131   1.575   0.442   1.628  0.5585 -0.7693  0.3739
  140MOL    C5428132   1.540   0.458   1.772 -0.3174 -0.1872 -0.0128
  140MOL    O5528133   1.436   0.402   1.811  0.1413 -0.2669  0.0666
  140MOL    N5628134   1.611   0.545   1.841  0.3912  0.2979 -0.0606
  140MOL    H5728135   1.547   0.229   1.614  0.2130 -0.0140  0.8793
  140MOL    H5828136   1.642   0.286   1.495 -1.3836 -0.3970 -0.5806
  140MOL    H5928137   1.659   0.508   1.605  0.4647 -1.2702 -1.5537
  140MOL    H6028138   1.585   0.563   1.937  1.1468  0.0281  0.2006
  140MOL    H6128139   1.698   0.584   1.808  0.6550  0.8898  1.3079
  140MOL    C6228140   1.452   0.473   1.533 -0.4420  0.5530 -0.2563
  140MOL    C6328141   1.487   0.516   1.388 -0.2463 -0.3377  0.1119
  140MOL    C6428142   1.509   0.665   1.380 -0.2171 -0.1421  0.2286
  140MOL    O6528143   1.421   0.738   1.415  0.0878 -0.0469 -0.5547
  140MOL    N6628144   1.625   0.698   1.330  0.3496  0.1608  0.4056
  140MOL    H6728145   1.377   0.540   1.578 -1.3455 -1.2706  1.0197
  140MOL    H6828146   1.400   0.379   1.517 -3.1055  1.7075  1.1926
  140MOL    H6928147   1.582   0.470   1.362 -0.6275 -1.0203 -0.0995
  140MOL    H7028148   1.645   0.791   1.295 -0.0288  0.0176 -0.2043
  140MOL    H7128149   1.680   0.622   1.294  0.5309  0.4130  0.1408
  140MOL    C7228150   1.377   0.480   1.286 -0.1813  0.7628  0.2126
  140MOL    C7328151   1.424   0.412   1.158 -0.0543  0.2203 -0.4024
  140MOL    C7428152   1.307   0.398   1.054  0.1375 -0.1144 -0.5728
  140MOL    O7528153   1.266   0.292   1.012 -0.3520  0.1588 -0.1843
  140MOL    N7628154   1.241   0.506   1.016 -0.6025 -0.5037 -0.2134
  140MOL    H7728155   1.306   0.561   1.268  0.3610  0.7418 -2.2053
  140MOL    H7828156   1.309   0.401   1.315  1.0050 -0.2446  0.2865
  140MOL    H7928157   1.504   0.467   1.109 -1.0749 -0.5490 -3.0323
  140MOL    H8028158   1.162   0.493   0.955 -0.5757  2.2636 -0.8660
  140MOL    H8128159   1.269   0.599   1.043 -0.1065 -0.3263 -1.2840
  140MOL    C8228160   1.485   0.273   1.189  0.5684 -0.6523  0.0947
  140MOL    C8328161   1.595   0.202   1.100 -0.1157 -1.0965  0.3503
  140MOL    C8428162   1.588   0.049   1.101 -0.2483 -0.0406 -0.7867
  140MOL    O8528163   1.637   7.638   1.190  0.1655 -0.0587  0.0583
  140MOL    N8628164   1.516   0.004   0.999  0.2809  0.0703 -0.1164
  140MOL    H8728165   1.399   0.205   1.187  1.4623 -1.8430  1.2754
  140MOL    H8828166   1.508   0.260   1.295 -1.0751 -0.8299  0.4485
  140MOL    H8928167   1.577   0.236   0.998  1.9962 -1.3928 -0.1524
  140MOL    H9028168   1.483   0.073   0.933 -1.0836  0.0537  0.5352
  140MOL    H9128169   1.495   7.563   0.989  1.7047 -0.2556 -0.0309
  140MOL    C9228170   1.736   0.252   1.152 -0.2462 -0.7015  0.0468
  140MOL    C9328171   1.850   0.209   1.053  0.1328 -1.0864  0.4946
  140MOL    C9428172   1.959   0.143   1.136  1.0369  0.1292  0.3780
  140MOL    O9528173   1.985   0.024   1.118 -0.2918 -0.4159 -0.2179
  140MOL    N9628174   2.016   0.228   1.224 -0.3020  0.6386 -0.4901
  140MOL    H9728175   1.752   0.227   1.257 -0.8515 -0.5968  0.1665
  140MOL    H9828176   1.731   0.360   1.158  1.5498 -0.5055 -1.3063
  140MOL    H9928177   1.825   0.129   0.984  0.4166 -0.8350  0.0949
  140MOL   H10028178   1.974   0.319   1.236  0.8438  1.1054  0.1156
  140MOL   H10128179   2.108   0.204   1.259  0.1179 -0.4515 -2.2938
  140MOL   C10228180   1.895   0.330   0.970  0.0833 -0.1186 -0.0774
  140MOL   C10328181   1.800   0.375   0.854  0.0370  0.3393 -0.1761
  140MOL   C10428182   1.803   0.270   0.745  0.4334 -0.5177 -0.2030
  140MOL   O10528183   1.907   0.208   0.720 -0.2889  0.3366 -0.2225
  140MOL   N10628184   1.685   0.255   0.683 -0.8157 -0.2426 -0.5283
  140MOL   H10728185   1.991   0.294   0.932 -0.5421 -3.0586  0.9793
  140MOL   H10828186   1.919   0.411   1.038  1.9036 -0.0332 -0.7908
  140MOL   H10928187   1.700   0.382   0.896 -0.0374 -1.0611 -0.1002
  140MOL   H11028188   1.619   0.329   0.700 -1.0531 -1.1412  2.7155
  140MOL   H11128189   1.671   0.181   0.615 -0.2026 -0.4353 -0.4497
  140MOL   C11228190   1.831   0.522   0.809  0.9493 -0.0637  0.4614
  140MOL   C11328191   1.772   0.639   0.894  0.2753 -0.0609 -0.2781
  140MOL   C11428192   1.624   0.668   0.849  0.0220  0.9412  0.4369
  140MOL   O11528193   1.549   0.579   0.800  0.6593 -0.6952 -0.1844
  140MOL   N11628194   1.587   0.793   0.850  0.0039 -0.1521  0.4059
  140MOL   H11728195   1.829   0.528   0.700  1.7964 -1.1632  0.3833
  140MOL   H11828196   1.939   0.534   0.818  0.6433  2.4026  1.2840
  140MOL   H11928197   1.765   0.602   0.996 -0.3130  0.1662 -0.2337
  140MOL   H12028198   1.497   0.825   0.817 -0.0604 -1.2544 -0.5409
  140MOL   H12128199   1.654   0.864   0.877  0.7801 -0.4680 -0.6448
  140MOL   C12228200   1.857   0.767   0.899 -0.5839  0.2896  0.9108
  140MOL   C12328201   1.995   0.767   0.974  0.1195  0.1021 -0.9504
  140MOL   C12428202   1.973   0.739   1.125  0.2364 -0.0179 -0.8416
  140MOL   O12528203   1.900   0.814   1.186 -0.8570 -0.5646  0.1143
  140MOL   N12628204   2.032   0.631   1.173 -0.1801 -0.1492 -0.2573
  140MOL   H12728205   1.814   0.861   0.933  0.2135  0.1799  2.2719
  140MOL   H12828206   1.881   0.776   0.794 -0.2432 -2.2151  0.7277
  140MOL   H12928207   2.054   0.688   0.926 -2.2497 -0.8448 -2.3602
  140MOL   H13028208   2.081   0.580   1.102  0.1325 -0.6043  0.2771
  140MOL   H13128209   2.026   0.603   1.270  0.6909  0.6022  0.0299
  140MOL   C13228210   2.063   0.903   0.949 -0.5566 -0.0223 -0.0793
  140MOL   C13328211   2.199   0.929   1.009 -0.8668  0.2025 -0.8054
  140MOL   C13428212   2.238   1.077   1.009  0.7623 -0.6918  0.4376
  140MOL   O13528213   2.336   1.114   0.950  0.1091 -0.5297  0.6746
  140MOL   N13628214   2.173   1.164   1.080  0.3596 -0.1553 -0.0069
  140MOL   H13728215   1.998   0.984   0.981  0.5485  1.7975 -2.2697
  140MOL   H13828216   2.058   0.921   0.841  1.7527  0.6192 -0.1051
  140MOL   H13928217   2.185   0.897   1.113  1.3592  1.8839  0.0560
  140MOL   H14028218   2.193   1.263   1.070 -1.4947  0.2611  0.1162
  140MOL   H14128219   2.088   1.143   1.130  0.3833  1.8149  0.9074
  140MOL   C14228220   2.306   0.841   0.942 -0.3481 -0.0448  0.1829
  140MOL   C14328221   2.444   0.816   1.011 -0.2416  0.6250 -0.3444
  140MOL   C14428222   2.550   0.774   0.910  0.2310 -0.3235 -0.1374
  140MOL   O14528223   2.527   0.751   0.791 -0.4267 -0.3173  0.0141
  140MOL   N14628224   2.672   0.748   0.952 -0.7341  0.2710 -0.7769
  140MOL   H14728225   2.302   0.886   0.843 -0.6063  0.0473  0.2354
  140MOL   H14828226   2.265   0.743   0.918 -1.1674  0.5879 -1.0635
  140MOL   H14928227   2.479   0.910   1.054 -0.7293  0.8379 -0.4075
  140MOL   H15028228   2.742   0.710   0.890  0.5021 -0.4828  1.0584
  140MOL   H15128229   2.695   0.766   1.049  2.5776 -1.8160 -1.1218
  140MOL   C15228230   2.441   0.715   1.127 -0.2684 -0.1509  0.0839
  140MOL   C15328231   2.509   0.760   1.261 -0.3541  0.3421  0.6428
  140MOL   C15428232   2.661   0.774   1.255  0.5110  1.1168 -1.1893
  140MOL   O15528233   2.733   0.670   1.259 -0.5812 -0.8457  0.1432
  140MOL   N15628234   2.723   0.889   1.241 -0.1553  0.0123  0.4526
  140MOL   H15728235   2.482   0.617   1.106  2.0697  1.1135 -1.5094
  140MOL   H15828236   2.341   0.685   1.159  0.0858 -1.3919  0.0355
  140MOL   H15928237   2.467   0.859   1.278 -3.1594 -0.7548  0.3553
  140MOL   H16028238   2.669   0.974   1.238 -0.3802 -0.1126  0.9250
  140MOL   H16128239   2.823   0.880   1.243 -0.0634  0.8962 -0.1983
  140MOL   C16228240   2.462   0.665   1.370 -0.1640  0.0172  0.9824
  140MOL   C16328241   2.518   0.677   1.511  0.9538 -1.1499 -0.3298
  140MOL   C16428242   2.509   0.540   1.576 -0.5764  0.2755 -0.2240
  140MOL   O16528243   2.401   0.504   1.616 -0.0915 -0.5366 -0.0366
  140MOL   N16628244   2.622   0.470   1.588 -0.3957 -0.1928  0.6703
  140MOL   H16728245   2.474   0.562   1.338  0.1245 -0.1450  1.5849
  140MOL   H16828246   2.355   0.678   1.384 -0.3785  0.0891 -0.7039
  140MOL   H16928247   2.625   0.700   1.506  1.2478 -2.4655 -0.2188
  140MOL   H17028248   2.620   0.373   1.617 -1.5402 -0.6519 -0.8895
  140MOL   H17128249   2.711   0.509   1.562 -0.7095  0.3563  0.3942
  140MOL   C17228250   2.449   0.788   1.592 -0.1032 -0.0994  0.1080
  140MOL   C17328251   2.529   0.840   1.718 -0.6884 -0.3863  0.2809
  140MOL   C17428252   2.459   0.798   1.851  0.3687  0.0684  0.1740
  140MOL   O17528253   2.373   0.869   1.901 -0.5365  0.5617  0.4038
  140MOL   N17628254   2.491   0.681   1.908  0.0243  0.1615 -0.6249
  140MOL   H17728255   2.348   0.756   1.616  0.1853 -1.0744  0.0375
  140MOL   H17828256   2.429   0.872   1.526  0.1863 -0.4891 -0.4758
  140MOL   H17928257   2.619   0.778   1.716 -0.1098  0.3734  1.8712
  140MOL   H18028258   2.446   0.658   1.995 -1.2321  0.2747 -1.2319
  140MOL   H18128259   2.554   0.615   1.865 -1.8517 -1.0371 -1.5820
  140MOL   C18228260   2.583   0.989   1.721  0.3288 -0.3749 -0.6083
  140MOL   C18328261   2.689   1.026   1.618 -0.2648 -0.0081  0.1697
  140MOL   C18428262   2.825   0.984   1.668  0.6428 -0.2459 -0.4731
  140MOL   O18528263   2.902   0.911   1.605  0.6411 -0.4530  0.1343
  140MOL   N18628264   2.861   1.020   1.797 -0.7625 -0.2273  0.5337
  140MOL   H18728265   2.613   1.019   1.822  1.9791 -0.8707 -0.9322
  140MOL   H18828266   2.499   1.049   1.686  1.6017  2.1077  0.4258
  140MOL   H18928267   2.681   0.957   1.535 -1.2556  2.1455 -1.5661
  140MOL   H19028268   2.819   1.102   1.839 -1.0169  0.7831 -1.6290
  140MOL   H19128269   2.948   0.987   1.836 -1.3224 -2.1805  0.1915
  140MOL   C19228270   2.679   1.169   1.556  0.2161  0.8731  0.3307
  140MOL   C19328271   2.705   1.279   1.657  0.3024 -0.7540  0.0769
  140MOL   C19428272   2.594   1.295   1.759  0.3328  0.1586 -0.0319
  140MOL   O19528273   2.622   1.274   1.880  0.2755  0.2818  0.1481
  140MOL   N19628274   2.468   1.321   1.721  0.4322 -0.2068  0.3409
  140MOL   H19728275   2.579   1.184   1.515 -0.8504 -2.7116  1.4186
  140MOL   H19828276   2.742   1.179   1.467  0.1156  1.2705  0.3047
  140MOL   H19928277   2.806   1.269   1.697  0.8003 -0.8889 -1.1937
  140MOL   H20028278   2.440   1.350   1.629  2.0794 -1.7906 -0.6892
  140MOL   H20128279   2.389   1.326   1.785 -0.1330  0.5300 -0.4086
  140MOL   H20228280   2.718   1.373   1.602  0.9926 -2.1264 -2.1875
  141MOL     C128281   4.092   5.638   2.423  0.6756  0.7977 -0.0131
  141MOL     C228282   4.247   5.615   2.396  0.4269 -0.8116 -0.7164
  141MOL     C328283   4.311   5.518   2.497 -0.3954 -0.8833  0.5750
  141MOL     O428284   4.311   5.532   2.620 -0.3096 -0.0955  0.4997
  141MOL     N528285   4.376   5.417   2.440  0.3477  0.9749 -0.1692
  141MOL     H628286   4.047   5.561   2.485  0.2137  0.4367 -0.7839
  141MOL     H728287   4.072   5.731   2.476 -0.2509 -0.3098  1.6116
  141MOL     H828288   4.261   5.573   2.297  3.0111  4.2666 -2.6595
  141MOL     H928289   4.432   5.351   2.492 -0.7361 -0.3685 -0.6847
  141MOL    H1028290   4.351   5.409   2.343 -3.5630 -0.9449  0.8901
  141MOL    H1128291   4.033   5.643   2.332 -0.7403  0.7879  0.8938
  141MOL    C1228292   4.331   5.745   2.404  0.0579 -0.5777 -0.5955
  141MOL    C1328293   4.348   5.834   2.272 -0.0015  0.0808  0.7621
  141MOL    C1428294   4.431   5.761   2.171  0.1797  0.5772 -0.2210
  141MOL    O1528295   4.546   5.726   2.187  0.1553 -0.0607  0.4281
  141MOL    N1628296   4.369   5.726   2.061 -0.6112 -0.2325 -0.2974
  141MOL    H1728297   4.434   5.720   2.430  0.7361  0.7965 -1.8321
  141MOL    H1828298   4.297   5.800   2.492 -0.8884 -0.1099 -1.2405
  141MOL    H1928299   4.249   5.847   2.229 -0.2596 -2.3620  0.5316
  141MOL    H2028300   4.276   5.760   2.040 -0.7562  1.0978  2.3876
  141MOL    H2128301   4.415   5.668   1.992 -2.2695 -0.5351 -1.1838
  141MOL    C2228302   4.413   5.976   2.302 -0.0005  0.0218 -0.4264
  141MOL    C2328303   4.337   6.070   2.406 -0.7221  0.7345  0.4433
  141MOL    C2428304   4.195   6.117   2.358  0.5081 -0.3125 -0.4394
  141MOL    O2528305   4.179   6.203   2.273 -0.4130 -0.2879  0.6335
  141MOL    N2628306   4.092   6.057   2.423 -0.3727 -0.4410  0.3580
  141MOL    H2728307   4.440   6.033   2.213  0.3948  2.4338  1.1875
  141MOL    H2828308   4.516   5.967   2.335 -0.0359 -0.7608 -0.5092
  141MOL    H2928309   4.326   6.013   2.498  0.0579  0.4378  0.3542
  141MOL    H3028310   3.995   6.078   2.403 -0.7232 -1.6054  0.8569
  141MOL    H3128311   4.111   5.990   2.495  1.4161  0.7969  1.0799
  141MOL    C3228312   4.420   6.191   2.461 -0.4364 -0.1422  0.1162
  141MOL    C3328313   4.369   6.237   2.601 -0.3706 -0.4307 -0.1189
  141MOL    C3428314   4.240   6.318   2.592 -0.8487 -0.5851 -0.0129
  141MOL    O3528315   4.235   6.434   2.548 -0.7013 -0.1388 -0.2492
  141MOL    N3628316   4.135   6.259   2.637  0.0248 -0.2290 -0.3292
  141MOL    H3728317   4.427   6.272   2.389 -0.2150  0.0899  0.3939
  141MOL    H3828318   4.521   6.154   2.480 -0.7928  1.1593  5.5160
  141MOL    H3928319   4.350   6.147   2.659 -1.2861  0.4221  0.9029
  141MOL    H4028320   4.041   6.295   2.645  0.3375  0.2893  1.2680
  141MOL    H4128321   4.141   6.159   2.651  0.1765 -0.2308 -0.4071
  141MOL    C4228322   4.477   6.334   2.674  0.1144  0.2352 -0.4309
  141MOL    C4328323   4.505   6.299   2.823  0.2631 -0.1055  0.3111
  141MOL    C4428324   4.383   6.323   2.914 -0.5078 -0.5069  0.3116
  141MOL    O4528325   4.323   6.432   2.900  0.4638  0.8086  0.3186
  141MOL    N4628326   4.346   6.233   3.002 -0.6570  0.4506 -0.3491
  141MOL    H4728327   4.442   6.437   2.674  1.2898  0.6455  0.0985
  141MOL    H4828328   4.568   6.335   2.614  1.1134  0.3740  1.0651
  141MOL    H4928329   4.533   6.194   2.815 -0.5642 -0.3744  0.8478
  141MOL    H5028330   4.409   6.154   3.011  0.5659  1.2402 -1.6683
  141MOL    H5128331   4.273   6.267   3.062 -2.2180  0.5870 -2.2745
  141MOL    C5228332   4.640   6.370   2.864 -0.0464  0.3345 -0.2625
  141MOL    C5328333   4.694   6.361   3.011 -0.3986  0.4255  0.1975
  141MOL    C5428334   4.699   6.221   3.077  0.1317  0.2760 -0.1433
  141MOL    O5528335   4.609   6.138   3.052  0.1250 -0.4604 -0.3618
  141MOL    N5628336   4.801   6.195   3.155 -0.4196 -0.3303  0.2817
  141MOL    H5728337   4.635   6.477   2.847 -1.9274 -0.0467 -2.2337
  141MOL    H5828338   4.718   6.326   2.802  1.3837  1.9218  0.3785
  141MOL    H5928339   4.797   6.393   2.997  0.2199 -2.1334 -1.3757
  141MOL    H6028340   4.885   6.250   3.164  1.3394 -2.7559 -0.6561
  141MOL    H6128341   4.796   6.109   3.208  0.3899 -0.7437 -0.3058
  141MOL    C6228342   4.613   6.458   3.100  0.7947 -0.3385 -0.2312
  141MOL    C6328343   4.689   6.570   3.189 -0.4995 -0.3170  0.0165
  141MOL    C6428344   4.725   6.524   3.330  0.2980 -0.0365  0.3158
  141MOL    O6528345   4.834   6.560   3.375  0.1202  0.0240  0.1651
  141MOL    N6628346   4.639   6.460   3.404  1.0441 -0.5947 -0.3862
  141MOL    H6728347   4.544   6.403   3.163 -0.8421 -0.2623 -1.9240
  141MOL    H6828348   4.542   6.509   3.035 -0.6719 -1.1484  0.7242
  141MOL    H6928349   4.782   6.601   3.142 -0.3534 -1.8781 -0.7664
  141MOL    H7028350   4.543   6.451   3.373  0.1195  0.4741  2.0772
  141MOL    H7128351   4.670   6.433   3.496 -0.3591 -3.8856 -0.8132
  141MOL    C7228352   4.611   6.707   3.189 -1.0344 -0.0054 -0.5644
  141MOL    C7328353   4.626   6.774   3.054 -0.1720  0.5895 -0.4632
  141MOL    C7428354   4.758   6.851   3.048  0.1366  0.4206 -0.3022
  141MOL    O7528355   4.787   6.921   3.145 -0.7888  0.9579 -0.2077
  141MOL    N7628356   4.831   6.852   2.933 -0.1171  0.2552 -0.7963
  141MOL    H7728357   4.660   6.764   3.267 -0.1285  0.3082 -1.3552
  141MOL    H7828358   4.505   6.692   3.210 -1.1628  0.0670 -1.1537
  141MOL    H7928359   4.619   6.695   2.979 -1.8666 -0.3772  0.6771
  141MOL    H8028360   4.805   6.784   2.863 -0.6949 -1.3625  0.9472
  141MOL    H8128361   4.928   6.879   2.944 -0.9047  2.9606 -0.1645
  141MOL    C8228362   4.510   6.875   3.040  0.1835 -1.1148  0.0698
  141MOL    C8328363   4.374   6.814   2.985 -0.3454 -0.7086  0.0079
  141MOL    C8428364   4.374   6.820   2.830 -0.1094 -0.6257  0.3366
  141MOL    O8528365   4.377   6.933   2.784  0.1715  0.4915 -0.0908
  141MOL    N8628366   4.371   6.715   2.753 -0.1764  0.5241 -0.0701
  141MOL    H8728367   4.551   6.951   2.973  0.8420 -1.2142  0.3493
  141MOL    H8828368   4.496   6.918   3.139  3.0023  0.3940 -0.1208
  141MOL    H8928369   4.373   6.711   3.022  1.2668 -1.0735 -0.9383
  141MOL    H9028370   4.361   6.623   2.793 -1.6246  0.4781 -0.5192
  141MOL    H9128371   4.357   6.717   2.653 -0.2215  0.1650 -0.0727
  141MOL    C9228372   4.241   6.870   3.049 -0.1099  0.3853 -0.7376
  141MOL    C9328373   4.192   6.808   3.189 -0.2079 -0.1018  0.8826
  141MOL    C9428374   4.254   6.875   3.313 -0.4376  0.2687 -0.5133
  141MOL    O9528375   4.365   6.848   3.351 -0.4406  0.2494 -0.5961
  141MOL    N9628376   4.174   6.958   3.381  0.7270 -0.2132 -0.4103
  141MOL    H9728377   4.154   6.859   2.984 -0.8015 -1.5855  0.4885
  141MOL    H9828378   4.227   6.977   3.066 -1.0857  0.2798 -0.8442
  141MOL    H9928379   4.091   6.848   3.199 -0.2894 -0.2076  0.4821
  141MOL   H10028380   4.205   6.999   3.468  0.0433 -1.0046  0.2159
  141MOL   H10128381   4.086   6.994   3.346 -1.6201 -5.5859 -0.4590
  141MOL   C10228382   4.193   6.660   3.198 -0.4365 -0.0787  0.3418
  141MOL   C10328383   4.089   6.598   3.287  0.8042  0.2370  0.0302
  141MOL   C10428384   4.131   6.453   3.313 -0.1110 -0.2446  0.6336
  141MOL   O10528385   4.170   6.377   3.218 -0.0347  0.1142  0.5926
  141MOL   N10628386   4.129   6.402   3.435  0.2519 -0.6718 -0.4315
  141MOL   H10728387   4.283   6.629   3.251 -0.5548  1.0900  1.2342
  141MOL   H10828388   4.190   6.615   3.099 -1.3170 -0.1062  0.3775
  141MOL   H10928389   4.084   6.660   3.376  0.1183 -0.5988  0.5772
  141MOL   H11028390   4.160   6.306   3.442  1.1072 -0.3568  0.1174
  141MOL   H11128391   4.129   6.464   3.515 -0.9269  0.2982 -1.1520
  141MOL   C11228392   3.952   6.615   3.217  0.3900 -0.1823 -0.6521
  141MOL   C11328393   3.833   6.599   3.313 -0.2965  0.5581 -0.1663
  141MOL   C11428394   3.708   6.545   3.242  0.1371  0.4279 -0.3278
  141MOL   O11528395   3.680   6.584   3.132 -0.2418 -0.5027  0.7184
  141MOL   N11628396   3.631   6.456   3.301  0.2618 -0.4333  0.1615
  141MOL   H11728397   3.945   6.538   3.140  1.7040 -0.3244 -0.6453
  141MOL   H11828398   3.944   6.705   3.155  1.1039 -1.4529 -2.6429
  141MOL   H11928399   3.860   6.526   3.389  0.6217 -0.4182 -1.4022
  141MOL   H12028400   3.537   6.447   3.265 -0.3278  1.6893  1.1010
  141MOL   H12128401   3.640   6.436   3.400 -0.6914  0.6961  0.4869
  141MOL   C12228402   3.814   6.738   3.376  0.3457 -0.3876 -0.3403
  141MOL   C12328403   3.747   6.742   3.514 -0.1764 -0.3548  0.0780
  141MOL   C12428404   3.590   6.745   3.484  0.5028 -0.6406  0.0087
  141MOL   O12528405   3.547   6.851   3.437  0.0737  0.3361  0.3150
  141MOL   N12628406   3.506   6.647   3.514  0.2371 -0.0891  0.2149
  141MOL   H12728407   3.771   6.815   3.312  0.0482 -0.7158 -0.5363
  141MOL   H12828408   3.917   6.773   3.385  0.2657 -0.1656 -0.2868
  141MOL   H12928409   3.776   6.655   3.573  0.1066 -1.2046 -1.2710
  141MOL   H13028410   3.406   6.647   3.497  0.7963  0.6589 -3.5699
  141MOL   H13128411   3.543   6.569   3.566 -0.6016  0.2164  1.2899
  141MOL   C13228412   3.783   6.863   3.597 -0.0718 -0.9166  0.2804
  141MOL   C13328413   3.710   6.874   3.734 -0.4284  0.1144  0.6666
  141MOL   C13428414   3.735   7.016   3.798  0.3156  0.0439  0.2441
  141MOL   O13528415   3.645   7.076   3.851  0.3359  0.6952 -0.0790
  141MOL   N13628416   3.858   7.068   3.784  0.2946  0.2460 -0.1238
  141MOL   H13728417   3.752   6.947   3.535 -1.4118 -0.5411  1.4425
  141MOL   H13828418   3.890   6.885   3.607 -0.3889  0.2860  1.0701
  141MOL   H13928419   3.601   6.872   3.731 -0.4406 -0.6161  1.2845
  141MOL   H14028420   3.919   7.041   3.708 -0.6347 -2.3396 -0.0119
  141MOL   H14128421   3.871   7.163   3.817 -0.4774  1.1479 -2.2874
  141MOL   C14228422   3.777   6.763   3.823 -0.2966  0.2778 -0.3817
  141MOL   C14328423   3.686   6.625   3.848 -0.0840  0.5971 -0.1742
  141MOL   C14428424   3.585   6.647   3.964  0.8599  0.4526 -0.6333
  141MOL   O14528425   3.627   6.679   4.072 -0.1818 -0.2927 -0.3616
  141MOL   N14628426   3.454   6.637   3.934 -0.2467  0.0746 -0.0133
  141MOL   H14728427   3.794   6.809   3.921 -1.6235  1.1726 -0.5536
  141MOL   H14828428   3.869   6.742   3.769 -0.9215  0.5464 -1.5506
  141MOL   H14928429   3.621   6.617   3.760 -0.5175  0.5952  0.1434
  141MOL   H15028430   3.375   6.665   3.990 -0.4702 -0.1326 -0.2262
  141MOL   H15128431   3.422   6.601   3.846 -0.2384  0.5016 -0.1944
  141MOL   C15228432   3.777   6.499   3.879  0.0352 -0.0886  0.0008
  141MOL   C15328433   3.848   6.431   3.763 -0.2526 -0.3186 -0.2237
  141MOL   C15428434   3.750   6.365   3.664  0.1665  0.5789 -0.4133
  141MOL   O15528435   3.697   6.428   3.578 -0.1853 -0.1265  0.9510
  141MOL   N15628436   3.732   6.236   3.668  0.0508 -0.2356  0.4126
  141MOL   H15728437   3.713   6.422   3.921  0.6121 -0.5313  0.0707
  141MOL   H15828438   3.843   6.524   3.961 -1.5868  1.5113  0.8491
  141MOL   H15928439   3.878   6.518   3.704 -2.1320 -0.0013 -0.7722
  141MOL   H16028440   3.783   6.185   3.739  1.5739 -0.3462 -0.7191
  141MOL   H16128441   3.675   6.185   3.601 -0.5129  0.9964 -0.0553
  141MOL   C16228442   3.978   6.353   3.800 -0.5442 -0.1882  0.2393
  141MOL   C16328443   3.958   6.240   3.912 -0.0475 -0.3027  0.3208
  141MOL   C16428444   4.077   6.244   4.007  0.5648  0.4370  0.4608
  141MOL   O16528445   4.191   6.245   3.962  0.5668  0.3786 -0.9445
  141MOL   N16628446   4.055   6.258   4.131 -0.4432  0.2755 -0.2754
  141MOL   H16728447   4.059   6.422   3.825 -1.1207  0.6662 -0.2289
  141MOL   H16828448   4.008   6.307   3.706 -2.6983 -0.3482 -0.3896
  141MOL   H16928449   3.863   6.258   3.962  0.2914 -0.7589  1.1319
  141MOL   H17028450   4.138   6.258   4.189  0.5857  0.3921 -1.7189
  141MOL   H17128451   3.967   6.253   4.179 -0.6632  1.8716 -0.4881
  141MOL   C17228452   3.959   6.097   3.853 -0.0658  0.2225 -0.3857
  141MOL   C17328453   3.850   6.005   3.905  0.2644  0.6842  0.1418
  141MOL   C17428454   3.865   5.974   4.055  0.5302  0.5372 -0.3157
  141MOL   O17528455   3.951   5.893   4.096  0.7118 -0.0160 -0.0721
  141MOL   N17628456   3.778   6.031   4.140 -0.6108 -0.5556 -0.4358
  141MOL   H17728457   4.056   6.050   3.840 -0.7175 -0.8176 -1.7025
  141MOL   H17828458   3.942   6.098   3.745 -0.4406 -0.1165 -0.3314
  141MOL   H17928459   3.755   6.054   3.887 -0.4156 -0.4517  0.5472
  141MOL   H18028460   3.811   6.016   4.234 -1.2268 -0.7067 -0.2410
  141MOL   H18128461   3.686   6.068   4.117 -0.0657  0.6702 -0.6826
  141MOL   C18228462   3.844   5.872   3.822  0.0255 -0.1839  0.0448
  141MOL   C18328463   3.743   5.769   3.863  0.1910  0.7062  0.2728
  141MOL   C18428464   3.810   5.630   3.907 -0.1680  0.2791 -0.1885
  141MOL   O18528465   3.780   5.526   3.849 -0.2902 -1.0855 -0.3900
  141MOL   N18628466   3.894   5.637   4.006  0.4129 -0.6850  0.0929
  141MOL   H18728467   3.942   5.826   3.837 -0.2197 -0.9078 -0.5789
  141MOL   H18828468   3.843   5.890   3.715 -0.2451 -0.0550  0.0685
  141MOL   H18928469   3.692   5.810   3.950 -0.5064  0.0133  0.1915
  141MOL   H19028470   3.945   5.559   4.045  2.3020  1.6448  2.5027
  141MOL   H19128471   3.923   5.731   4.029  0.0987 -0.3415 -0.8548
  141MOL   C19228472   3.639   5.759   3.757 -0.0081  0.0634 -0.3043
  141MOL   C19328473   3.584   5.888   3.686  0.4701 -0.4187 -0.1997
  141MOL   C19428474   3.455   5.866   3.614  0.1098 -0.2732  0.0041
  141MOL   O19528475   3.364   5.814   3.673  0.5146  0.0493  0.1650
  141MOL   N19628476   3.450   5.892   3.485 -0.9808  0.2655 -0.1456
  141MOL   H19728477   3.557   5.699   3.796 -0.0322 -0.4594 -1.1539
  141MOL   H19828478   3.686   5.705   3.675  2.8960  2.7294 -0.4549
  141MOL   H19928479   3.557   5.970   3.753  5.2684  0.0428  1.3552
  141MOL   H20028480   3.363   5.865   3.442 -0.7781  0.5535 -0.7351
  141MOL   H20128481   3.533   5.924   3.436  0.1879 -1.0086  0.9681
  141MOL   H20228482   3.658   5.932   3.619  0.9096 -0.6601  0.1247
  142MOL     C128483   6.754   2.798   7.342 -0.2485 -0.2124 -0.7817
  142MOL     C228484   6.649   2.830   7.234 -0.5794  0.0273  0.2240
  142MOL     C328485   6.686   2.958   7.154  0.1390 -0.4155  0.1967
  142MOL     O428486   6.735   3.054   7.215 -0.1721 -0.5144 -0.3067
  142MOL     N528487   6.672   2.968   7.025  0.5329 -0.0989 -0.1004
  142MOL     H628488   6.744   2.865   7.427 -0.6555 -1.8040  0.4320
  142MOL     H728489   6.744   2.696   7.377 -3.1453  0.7141  1.2748
  142MOL     H828490   6.658   2.749   7.161 -0.8493  2.2214 -2.3106
  142MOL     H928491   6.634   2.886   6.978  0.8783  0.0600 -0.6643
  142MOL    H1028492   6.719   3.041   6.974  3.8285 -2.7026 -1.0212
  142MOL    H1128493   6.857   2.805   7.307 -0.1183  1.1510 -0.1512
  142MOL    C1228494   6.506   2.823   7.293  0.5227  0.1936  0.7493
  142MOL    C1328495   6.476   2.938   7.386 -0.2618  0.1939 -0.3159
  142MOL    C1428496   6.493   2.888   7.535  0.0403  0.0524  0.1017
  142MOL    O1528497   6.449   2.783   7.567  0.3430  0.1804 -0.2665
  142MOL    N1628498   6.556   2.967   7.624  0.3962  0.3156 -0.0777
  142MOL    H1728499   6.479   2.724   7.329  0.2318 -0.0149 -0.0199
  142MOL    H1828500   6.446   2.838   7.203  1.0414  1.7692  0.6464
  142MOL    H1928501   6.547   3.021   7.381  0.9982 -0.6773  2.1628
  142MOL    H2028502   6.540   2.952   0.065  1.4297  0.9013  0.1842
  142MOL    H2128503   6.590   3.059   7.600 -1.2880  1.8741  3.2453
  142MOL    C2228504   6.332   2.994   7.372  0.2131  0.0497 -0.0712
  142MOL    C2328505   6.298   3.063   7.245 -0.1088  0.6262 -0.2466
  142MOL    C2428506   6.378   3.195   7.241 -0.1214  0.3934 -0.5699
  142MOL    O2528507   6.360   3.298   7.311 -0.4793 -0.0571  0.2091
  142MOL    N2628508   6.479   3.194   7.158  0.1650  0.6569 -0.0158
  142MOL    H2728509   6.302   3.056   7.456  0.7181 -0.8129  0.7524
  142MOL    H2828510   6.268   2.906   7.368  1.3248 -0.8454  1.2096
  142MOL    H2928511   6.327   3.006   7.157 -0.2760 -0.0285  0.1092
  142MOL    H3028512   6.496   3.109   7.108  1.6433  0.7875  0.2271
  142MOL    H3128513   6.551   3.265   7.169 -1.2871  2.4181 -1.5220
  142MOL    C3228514   6.139   3.084   7.234 -0.2386  0.4783 -0.6037
  142MOL    C3328515   6.070   3.067   7.100 -0.5178  0.6026 -0.2397
  142MOL    C3428516   6.117   2.940   7.022  0.3368 -0.6031  0.7928
  142MOL    O3528517   6.215   2.943   6.949 -0.3629  0.2367 -0.0898
  142MOL    N3628518   6.057   2.825   7.048  0.3476  0.2128  0.3803
  142MOL    H3728519   6.112   3.177   7.284  1.9307  1.2655 -0.8189
  142MOL    H3828520   6.088   3.012   7.298  1.0713 -0.1097 -0.2078
  142MOL    H3928521   5.970   3.055   7.142 -0.1365  0.3041  0.5953
  142MOL    H4028522   5.984   2.819   7.118  0.5732 -6.0622  0.3079
  142MOL    H4128523   6.071   2.741   6.994  1.1980  0.9237 -0.5263
  142MOL    C4228524   6.080   3.203   7.017 -0.2128 -0.1831 -0.1570
  142MOL    C4328525   6.028   3.335   7.083  0.1435 -0.3006 -0.1059
  142MOL    C4428526   5.877   3.314   7.117  0.0155 -0.3003  0.6409
  142MOL    O4528527   5.792   3.318   7.031  0.2181  0.2194  0.3152
  142MOL    N4628528   5.835   3.302   7.244 -0.0773  0.0559 -0.9139
  142MOL    H4728529   6.029   3.183   6.923  1.2768  2.7393 -1.6563
  142MOL    H4828530   6.184   3.207   6.984 -0.1870 -0.0999 -0.0691
  142MOL    H4928531   6.084   3.360   7.173  0.3042  0.0440 -0.3013
  142MOL    H5028532   5.735   3.316   7.254  0.1318  1.8505 -1.0217
  142MOL    H5128533   5.904   3.293   7.318 -1.5610 -1.8681  0.3033
  142MOL    C5228534   6.039   3.462   6.998  0.1316 -0.1881 -0.4939
  142MOL    C5328535   6.012   3.597   7.073 -0.0858 -0.4093  0.6618
  142MOL    C5428536   5.909   3.682   6.998  0.8951  0.1750  0.4127
  142MOL    O5528537   5.946   3.731   6.888 -0.0492 -0.0216  0.0086
  142MOL    N5628538   5.785   3.687   7.044 -0.0912  0.1000 -0.4545
  142MOL    H5728539   5.971   3.442   6.915 -0.8220  1.7530 -0.1921
  142MOL    H5828540   6.133   3.464   6.944 -0.9587  2.2755 -2.3621
  142MOL    H5928541   5.974   3.577   7.173 -0.0545 -0.9206  0.5747
  142MOL    H6028542   5.763   3.634   7.128  2.5170 -0.5832 -0.1412
  142MOL    H6128543   5.711   3.741   7.002  0.1750 -0.0662 -1.1416
  142MOL    C6228544   6.139   3.686   7.103 -0.1794  0.5159  0.1975
  142MOL    C6328545   6.233   3.634   7.212 -0.1270  0.0190  0.5463
  142MOL    C6428546   6.170   3.615   7.348 -0.0479 -0.1465  0.1543
  142MOL    O6528547   6.106   3.703   7.404  0.0220 -0.4020 -0.5956
  142MOL    N6628548   6.176   3.497   7.408  0.4698  0.3765  0.5917
  142MOL    H6728549   6.118   3.793   7.105  0.0546  0.5468  0.9832
  142MOL    H6828550   6.195   3.675   7.010 -0.4573 -0.0512  0.0952
  142MOL    H6928551   6.249   3.530   7.184 -1.7460 -0.6941  2.1108
  142MOL    H7028552   6.241   3.425   7.377 -0.7457  0.4171 -2.2115
  142MOL    H7128553   6.137   3.488   7.501 -1.0638  0.0721 -0.0670
  142MOL    C7228554   6.361   3.719   7.211 -0.9804 -0.5935 -0.9805
  142MOL    C7328555   6.490   3.644   7.235  0.2692 -1.0199 -0.5983
  142MOL    C7428556   6.505   3.612   7.384 -0.6440  0.6195 -1.2679
  142MOL    O7528557   6.517   3.712   7.456  0.0145  0.0104 -0.2763
  142MOL    N7628558   6.489   3.492   7.429 -0.0635 -0.5081  0.0247
  142MOL    H7728559   6.349   3.801   7.282 -0.9134 -0.7866 -0.7514
  142MOL    H7828560   6.355   3.779   7.120 -0.7768  1.0840  0.0874
  142MOL    H7928561   6.479   3.552   7.178  1.2237  0.4722 -3.3004
  142MOL    H8028562   6.451   3.425   7.364 -0.0146  0.1006 -0.6318
  142MOL    H8128563   6.516   3.449   7.517 -0.3618 -1.0603 -0.1470
  142MOL    C8228564   6.609   3.728   7.184 -0.5855 -0.5297 -0.4812
  142MOL    C8328565   6.744   3.655   7.162 -0.3284  0.2064 -0.5136
  142MOL    C8428566   6.732   3.520   7.094  0.1408 -0.5355 -0.0359
  142MOL    O8528567   6.712   3.415   7.152 -0.7555  0.3355  0.0154
  142MOL    N8628568   6.754   3.517   6.964 -0.0956  0.0186 -0.4295
  142MOL    H8728569   6.624   3.817   7.245  1.9513 -0.9898 -0.3446
  142MOL    H8828570   6.582   3.767   7.086 -1.0754  0.1052 -0.1013
  142MOL    H8928571   6.799   3.726   7.101 -0.8059  2.0580  1.1811
  142MOL    H9028572   6.756   3.426   6.921  1.2289 -0.7091  1.1169
  142MOL    H9128573   6.791   3.600   6.920  0.0630  1.2150  1.8775
  142MOL    C9228574   6.830   3.653   7.289  0.7324 -0.2678  0.0665
  142MOL    C9328575   6.988   3.637   7.272 -0.7617  0.1714  0.2682
  142MOL    C9428576   7.041   3.506   7.234 -0.1412  0.9257  0.3169
  142MOL    O9528577   6.994   3.399   7.280 -0.3690  0.1251 -0.5219
  142MOL    N9628578   7.152   3.494   7.156 -0.3082  0.4957  0.4903
  142MOL    H9728579   6.804   3.580   7.365 -2.0967 -1.3886 -1.9143
  142MOL    H9828580   6.805   3.748   7.336 -2.3531 -0.7250 -0.5627
  142MOL    H9928581   7.008   3.702   7.187 -3.2777  0.2747 -0.2752
  142MOL   H10028582   7.200   3.581   7.134  0.5751 -0.1607 -0.2378
  142MOL   H10128583   7.203   3.410   7.131 -0.0098  0.7489  0.2441
  142MOL   C10228584   7.070   3.688   7.401  0.3716  0.1116  0.3434
  142MOL   C10328585   7.054   3.837   7.445  0.2848 -0.5504 -0.2647
  142MOL   C10428586   7.059   3.943   7.329 -0.1734 -1.0917  0.1371
  142MOL   O10528587   7.160   3.976   7.268  0.0698 -0.2455 -0.1928
  142MOL   N10628588   6.942   3.999   7.293 -0.1798  0.1084  0.1823
  142MOL   H10728589   7.173   3.693   7.364 -0.7894 -1.4617 -3.3694
  142MOL   H10828590   7.064   3.619   7.485  3.5914 -1.0763 -0.3223
  142MOL   H10928591   6.950   3.830   7.478  0.4733  1.7919  0.8765
  142MOL   H11028592   6.850   3.976   7.328  0.2095 -1.8980 -0.0919
  142MOL   H11128593   6.960   4.067   7.221  0.8212  0.3357  0.6392
  142MOL   C11228594   7.136   3.876   7.576 -0.4921  0.0184  0.2241
  142MOL   C11328595   7.103   4.013   7.639 -0.0713 -0.1086 -0.1970
  142MOL   C11428596   7.202   4.031   0.096 -0.4871 -0.3295  0.4963
  142MOL   O11528597   7.183   3.994   0.208  0.4546  0.4857  1.1078
  142MOL   N11628598   7.318   4.087   0.056  0.1087  0.6914 -0.1768
  142MOL   H11728599   7.242   3.881   7.549 -0.8081 -1.1928 -1.2557
  142MOL   H11828600   7.115   3.792   7.642  0.2871 -0.1569  0.2533
  142MOL   H11928601   7.114   4.090   7.562  0.3756 -1.3401 -1.3858
  142MOL   H12028602   7.387   4.101   0.129  1.2863 -0.1853 -1.1140
  142MOL   H12128603   7.347   4.114   7.620  1.6604  0.1321  0.1419
  142MOL   C12228604   6.957   4.023   0.037 -0.4415  0.2232 -0.1834
  142MOL   C12328605   6.896   4.157   0.079  0.3064  0.6585 -0.3138
  142MOL   C12428606   6.766   4.130   0.156 -0.3212  0.0988 -0.2149
  142MOL   O12528607   6.707   4.026   0.125  0.4527  0.2618 -0.2534
  142MOL   N12628608   6.722   4.216   0.248  0.0544 -0.0330 -0.3242
  142MOL   H12728609   6.969   3.968   0.130  0.4254  1.2316  0.3112
  142MOL   H12828610   6.886   3.974   7.628 -1.7524  0.4496  1.0368
  142MOL   H12928611   6.966   4.214   0.141  0.3563  0.3819 -0.1141
  142MOL   H13028612   6.748   4.314   0.241  0.4871  0.0714  2.2650
  142MOL   H13128613   6.639   4.198   0.302  0.9109  0.2756  1.1370
  142MOL   C13228614   6.852   4.242   7.606  0.2601 -0.2223 -0.2523
  142MOL   C13328615   6.891   4.386   7.627  0.8960 -0.4729 -0.1362
  142MOL   C13428616   6.786   4.454   0.049 -0.6441 -0.6944 -0.4166
  142MOL   O13528617   6.678   4.477   7.656  0.3324  0.0238 -0.5459
  142MOL   N13628618   6.817   4.485   0.176 -0.1048  0.2181 -0.0641
  142MOL   H13728619   6.749   4.223   7.578  0.4678 -0.0329 -1.1564
  142MOL   H13828620   6.904   4.199   7.520  0.7449  0.4306 -0.2870
  142MOL   H13928621   6.978   4.386   0.036  1.4150  0.9035 -0.7911
  142MOL   H14028622   6.913   4.493   0.206 -0.5357  1.2980  1.0593
  142MOL   H14128623   6.747   4.529   0.234 -1.5201 -1.0969 -0.7441
  142MOL   C14228624   6.922   4.458   7.488 -0.0387  0.0266  0.0339
  142MOL   C14328625   7.075   4.490   7.466 -0.2096  0.6575 -0.5898
  142MOL   C14428626   7.160   4.358   7.476 -0.3676  0.2056  0.3214
  142MOL   O14528627   7.236   4.333   7.573 -0.3618 -0.5395 -0.0188
  142MOL   N14628628   7.153   4.278   7.371  0.1822 -0.7189  0.3721
  142MOL   H14728629   6.845   4.534   7.472 -0.2018 -0.0041  0.6616
  142MOL   H14828630   6.884   4.402   7.403  1.2684  0.9143 -1.1696
  142MOL   H14928631   7.088   4.543   7.372  0.5495  1.3883 -0.0802
  142MOL   H15028632   7.109   4.319   7.290  1.6511 -0.2766 -0.2151
  142MOL   H15128633   7.213   4.196   7.372 -0.0130 -0.8869 -1.3546
  142MOL   C15228634   7.126   4.594   7.569  0.1689  0.4108  0.2478
  142MOL   C15328635   7.074   4.732   7.546 -0.3570  0.1827 -0.6537
  142MOL   C15428636   7.123   4.791   7.411 -0.4251 -0.2897 -1.0630
  142MOL   O15528637   7.042   4.845   7.339  0.0054 -0.4678  0.7756
  142MOL   N15628638   7.252   4.795   7.385 -0.0501 -0.5345 -0.1153
  142MOL   H15728639   7.235   4.597   7.559  0.0180  0.4910 -1.4711
  142MOL   H15828640   7.094   4.565   0.012 -1.0626  0.4334 -0.1311
  142MOL   H15928641   6.966   4.732   7.535 -0.3432 -2.1392 -0.8863
  142MOL   H16028642   7.271   4.846   7.300 -0.0715  0.5492  0.5205
  142MOL   H16128643   7.326   4.765   7.447 -1.5716 -0.8493  1.5996
  142MOL   C16228644   7.107   4.828   0.007  0.5585 -0.1633  0.1077
  142MOL   C16328645   7.007   4.942   0.037 -0.6538 -0.3963  0.6206
  142MOL   C16428646   7.022   5.062   7.592 -0.2440  0.1456 -0.0206
  142MOL   O16528647   7.125   5.128   7.599 -0.3067  0.4772 -0.5985
  142MOL   N16628648   6.920   5.090   7.513  0.3209 -0.2278 -0.1574
  142MOL   H16728649   7.201   4.883   7.656  0.4236  0.0729  0.1210
  142MOL   H16828650   7.111   4.755   0.088 -1.2268 -2.1139 -1.5336
  142MOL   H16928651   6.903   4.909   0.028 -1.1784  1.5282 -0.6443
  142MOL   H17028652   6.832   5.040   7.513 -0.1470  0.5549  1.8700
  142MOL   H17128653   6.934   5.158   7.440  1.1198 -0.1983  0.0192
  142MOL   C17228654   7.023   4.993   0.184  0.0817 -0.1691 -0.5413
  142MOL   C17328655   6.931   5.113   0.233 -0.1246  0.8344 -0.3039
  142MOL   C17428656   7.024   5.231   0.281  0.6838  0.1971 -0.2532
  142MOL   O17528657   6.984   5.318   0.362  0.6194  0.3451 -0.2314
  142MOL   N17628658   7.145   5.250   0.225  0.5671 -0.0966  0.0428
  142MOL   H17728659   7.130   5.001   0.202 -0.1808  1.0005  0.6102
  142MOL   H17828660   6.994   4.912   0.251 -0.0266  1.6275  1.6480
  142MOL   H17928661   6.872   5.138   0.145 -1.4057 -1.8542 -0.2511
  142MOL   H18028662   7.182   5.182   0.161  1.4228  0.9757 -0.6032
  142MOL   H18128663   7.213   5.317   0.259  0.2479  1.7070 -2.7028
  142MOL   C18228664   6.834   5.064   0.342  1.3546 -0.7844 -0.2370
  142MOL   C18328665   6.699   5.008   0.287  0.6325  0.8077  0.0330
  142MOL   C18428666   6.582   5.105   0.299 -0.0788  0.6947 -0.3120
  142MOL   O18528667   6.572   5.173   0.399  0.4082 -0.4545 -0.3927
  142MOL   N18628668   6.504   5.123   0.196  0.1392  0.3165 -0.0613
  142MOL   H18728669   6.829   5.135   0.423 -2.3191 -1.6686  0.3974
  142MOL   H18828670   6.877   4.976   0.391 -1.9361 -2.0076  0.5632
  142MOL   H18928671   6.715   4.993   0.180  2.6117  0.8491  0.3108
  142MOL   H19028672   6.528   5.068   0.115  0.6318  0.4014  0.0282
  142MOL   H19128673   6.431   5.193   0.202  1.3319  1.5189  0.9337
  142MOL   C19228674   6.671   4.861   0.330  0.5739 -0.2892 -0.0757
  142MOL   C19328675   6.551   4.798   0.266 -0.1152  0.3835  0.1885
  142MOL   C19428676   6.534   4.645   0.286 -0.1667  0.1146 -0.3737
  142MOL   O19528677   6.634   4.584   0.335  0.4737 -0.3205 -0.2101
  142MOL   N19628678   6.418   4.585   0.255 -0.2073 -0.0361 -0.3419
  142MOL   H19728679   6.669   4.857   0.439 -1.8964  2.0239  0.0369
  142MOL   H19828680   6.755   4.798   0.305 -0.0087 -0.4248 -1.7431
  142MOL   H19928681   6.460   4.844   0.304 -0.6224 -0.4482 -0.0171
  142MOL   H20028682   6.341   4.646   0.231  1.6550  1.5602 -2.4936
  142MOL   H20128683   6.400   4.486   0.244 -1.9397  0.1365  0.6729
  142MOL   H20228684   6.553   4.824   0.160 -1.0670 -1.3323 -0.2535
  143MOL     C128685   7.562   2.797   6.837 -0.5052  0.2908  0.6069
  143MOL     C228686   0.021   2.871   6.776  0.2478  0.4565  0.1964
  143MOL     C328687   0.085   2.772   6.669  0.0880  0.1615 -0.8412
  143MOL     O428688   0.118   2.658   6.693 -0.5595 -0.0693 -0.6809
  143MOL     N528689   0.104   2.813   6.547 -0.5606 -0.8182 -0.3776
  143MOL     H628690   7.606   2.716   6.896 -0.6305 -1.8806 -2.1623
  143MOL     H728691   7.491   2.870   6.875 -1.2213  0.6395 -1.3466
  143MOL     H828692   7.640   2.956   6.719  0.4460  0.9334  0.7670
  143MOL     H928693   0.085   2.908   6.519 -0.3393 -0.0121  2.1022
  143MOL    H1028694   0.152   2.757   6.478  1.0275 -0.8133  0.6882
  143MOL    H1128695   7.505   2.752   6.756  1.6631 -0.3423 -0.6159
  143MOL    C1228696   0.112   2.923   6.891  0.3082 -0.6732 -0.2077
  143MOL    C1328697   0.173   3.063   6.858  0.3136 -0.5381 -0.4841
  143MOL    C1428698   0.293   3.057   6.760  0.8066 -0.1555  0.3064
  143MOL    O1528699   0.400   3.002   6.780  0.1261  0.2138  0.6909
  143MOL    N1628700   0.277   3.111   6.636  0.4217  0.3730  0.3784
  143MOL    H1728701   0.192   2.849   6.901 -0.3967 -1.0869  2.8209
  143MOL    H1828702   0.059   2.921   6.986  0.2292  2.5447 -0.1232
  143MOL    H1928703   0.097   3.124   6.809 -0.2860  1.8151  3.1966
  143MOL    H2028704   0.204   3.179   6.622  1.6338  1.7316  0.5612
  143MOL    H2128705   0.352   3.092   6.571 -0.3231 -0.7964 -0.1472
  143MOL    C2228706   0.208   3.135   6.994 -0.3928 -0.5699  0.7980
  143MOL    C2328707   0.278   3.274   6.975 -0.2633 -0.3428 -0.6499
  143MOL    C2428708   0.431   3.259   6.995  0.0469 -0.9941  0.0191
  143MOL    O2528709   0.479   3.186   7.086  0.0958 -0.1610 -0.2312
  143MOL    N2628710   0.513   3.324   6.912  0.2427 -0.3645 -0.3698
  143MOL    H2728711   0.281   3.070   7.043 -1.3372 -1.5041  0.9912
  143MOL    H2828712   0.121   3.146   7.060 -0.0490  1.1220  1.0036
  143MOL    H2928713   0.256   3.307   6.873 -0.9538  0.6086 -0.2088
  143MOL    H3028714   0.476   3.363   6.826 -2.4203  2.8816  2.1235
  143MOL    H3128715   0.607   3.346   6.940  1.3187 -2.2021 -2.3888
  143MOL    C3228716   0.219   3.393   7.061 -0.3712  0.2849  0.8456
  143MOL    C3328717   0.099   3.476   6.995  0.7129 -0.4429  0.1393
  143MOL    C3428718   0.148   3.544   6.873 -0.2801  0.0481  0.1250
  143MOL    O3528719   0.221   3.643   6.875 -0.6771  0.1459 -0.1508
  143MOL    N3628720   0.113   3.500   6.753  0.7673  0.0080 -0.7486
  143MOL    H3728721   0.299   3.464   7.080 -0.5477  1.0392 -1.0284
  143MOL    H3828722   0.203   3.348   7.159  2.2883  0.9960  1.6371
  143MOL    H3928723   0.029   3.394   6.978 -1.1967  0.7141  2.1802
  143MOL    H4028724   0.142   3.558   6.675  0.1111  1.3288 -0.0429
  143MOL    H4128725   0.061   3.416   6.734 -0.3401  0.7441 -0.9896
  143MOL    C4228726   0.026   3.574   7.094  0.2309  0.2640 -0.1252
  143MOL    C4328727   7.542   3.524   7.150 -0.2856 -0.0614 -0.1803
  143MOL    C4428728   7.435   3.555   7.040  0.8047 -0.4654  0.5842
  143MOL    O4528729   7.374   3.663   7.029  0.2275 -0.6167  0.0088
  143MOL    N4628730   7.406   3.454   6.955  0.6194  0.0236 -0.2379
  143MOL    H4728731   0.010   3.668   7.041 -3.2520  1.4312  2.7848
  143MOL    H4828732   0.103   3.590   7.168  0.1663 -1.8938  0.4346
  143MOL    H4928733   7.529   3.418   7.174  0.2833 -0.1677 -0.3290
  143MOL    H5028734   7.453   3.367   6.974  1.3231  0.9369  2.4525
  143MOL    H5128735   7.360   3.477   6.869 -1.2276 -1.8742  0.2204
  143MOL    C5228736   7.512   3.605   7.281  0.5655 -0.2014 -0.4305
  143MOL    C5328737   7.586   3.562   7.406  0.5371 -0.5349  0.1537
  143MOL    C5428738   7.554   3.418   7.452 -0.1676 -0.1945 -0.2247
  143MOL    O5528739   7.440   3.366   7.468 -0.2094 -0.4576  0.8550
  143MOL    N5628740   0.006   3.347   7.466  0.0669  0.2083  0.7092
  143MOL    H5728741   7.407   3.583   7.304  0.4910  0.2034 -0.3794
  143MOL    H5828742   7.506   3.713   7.268  0.0594 -0.2073 -0.2941
  143MOL    H5928743   0.034   3.564   7.377  0.8485  0.3183  1.3003
  143MOL    H6028744   0.003   3.248   7.483  0.3388 -0.0055 -0.4257
  143MOL    H6128745   0.093   3.390   7.438 -0.0429 -0.7306 -1.1616
  143MOL    C6228746   7.572   3.665   7.523  0.1521 -0.2142 -0.2127
  143MOL    C6328747   0.039   3.683   7.612  0.1979  0.7747  0.2137
  143MOL    C6428748   7.651   3.753   0.080  0.3316  0.4096  0.0066
  143MOL    O6528749   7.600   3.861   0.080  0.1807 -0.5710  0.2512
  143MOL    N6628750   0.035   3.697   0.194  0.5168  0.4424 -0.2321
  143MOL    H6728751   7.490   3.632   7.587 -0.0699  0.5021 -0.1153
  143MOL    H6828752   7.556   3.766   7.485  0.6793  0.0552  0.2719
  143MOL    H6928753   0.066   3.579   7.632 -0.8611  0.4165 -0.2251
  143MOL    H7028754   0.063   3.600   0.201 -0.2641 -0.0071 -2.8865
  143MOL    H7128755   0.033   3.764   0.270  1.2307 -0.9971  1.0838
  143MOL    C7228756   0.152   3.749   7.533 -0.1331 -0.6179  0.7154
  143MOL    C7328757   0.299   3.702   7.543  0.4707 -0.0588 -0.8658
  143MOL    C7428758   0.332   3.591   7.443  0.6909  0.2728 -0.1633
  143MOL    O7528759   0.256   3.494   7.444  0.1695  0.4691 -0.0130
  143MOL    N7628760   0.434   3.611   7.366 -0.2346 -0.3215 -0.1441
  143MOL    H7728761   0.167   3.854   7.559  1.1959  0.2986 -3.3298
  143MOL    H7828762   0.128   3.750   7.427  0.3572  0.0973  0.6052
  143MOL    H7928763   0.353   3.792   7.513  1.5340 -1.2063 -2.4889
  143MOL    H8028764   0.480   3.701   7.364 -1.3295  0.2925  1.1332
  143MOL    H8128765   0.462   3.535   7.307  1.0255  1.9092 -2.5042
  143MOL    C8228766   0.350   3.660   0.032  0.2441  0.0060  0.1223
  143MOL    C8328767   0.493   3.608   0.057 -0.5735 -0.3164 -0.0091
  143MOL    C8428768   0.596   3.719   0.014 -0.4805 -0.2347 -0.2370
  143MOL    O8528769   0.644   3.730   7.561  0.3613  0.0898 -0.0304
  143MOL    N8628770   0.625   3.809   0.111 -0.0108  0.1155 -0.1960
  143MOL    H8728771   0.282   3.590   0.082  0.4761 -0.9052 -0.8314
  143MOL    H8828772   0.338   3.746   0.099  2.6877 -0.3895  1.1367
  143MOL    H8928773   0.502   3.591   0.164 -1.0012  1.6862  0.3613
  143MOL    H9028774   0.576   3.807   0.199 -0.6366 -0.7388 -0.5468
  143MOL    H9128775   0.696   3.876   0.086 -0.5995  0.4969 -0.8658
  143MOL    C9228776   0.544   3.469   7.648 -0.1022 -0.1667  0.8727
  143MOL    C9328777   0.649   3.392   0.073 -0.4180 -0.6002  0.5775
  143MOL    C9428778   0.782   3.472   0.091 -0.6089 -0.1529 -0.2948
  143MOL    O9528779   0.815   3.503   0.204 -0.4905 -0.0809  0.1118
  143MOL    N9628780   0.864   3.492   7.646  0.3498  0.2717 -0.2129
  143MOL    H9728781   0.564   3.488   7.543  0.0748  0.5835  1.0394
  143MOL    H9828782   0.453   3.410   7.656  1.5435 -2.6630  2.0610
  143MOL    H9928783   0.633   3.365   0.177  0.2270  0.9677  1.1070
  143MOL   H10028784   0.951   3.542   0.006  1.5236 -1.7772  0.0355
  143MOL   H10128785   0.847   3.447   7.557 -4.1691  0.8933  0.2179
  143MOL   C10228786   0.679   3.267   7.648 -0.2871 -0.4148  0.3165
  143MOL   C10328787   0.612   3.137   0.046  0.0796 -0.3521 -0.1131
  143MOL   C10428788   0.700   3.053   0.133  0.2450  0.8940 -0.1690
  143MOL   O10528789   0.801   2.993   0.087  0.2393 -0.0042  0.0430
  143MOL   N10628790   0.682   3.054   0.263  0.0902  0.7939  0.0121
  143MOL   H10728791   0.787   3.249   7.648 -0.0810  0.7755  1.2831
  143MOL   H10828792   0.665   3.303   7.546  1.4614 -0.5775  0.0008
  143MOL   H10928793   0.533   3.171   0.113 -0.8247 -1.8894 -0.3809
  143MOL   H11028794   0.605   3.109   0.299 -1.7944 -2.5684  1.2685
  143MOL   H11128795   0.758   3.019   0.319  0.5900 -0.5636 -1.4776
  143MOL   C11228796   0.562   3.053   7.581  0.3355  0.0999 -0.3203
  143MOL   C11328797   0.404   3.039   7.584 -0.0186 -0.5557 -0.4467
  143MOL   C11428798   0.341   3.171   7.552  0.8818  0.2490 -0.2332
  143MOL   O11528799   0.282   3.238   7.639 -0.3065  0.2697  0.2106
  143MOL   N11628800   0.350   3.221   7.430 -0.1331  0.7324 -0.3316
  143MOL   H11728801   0.622   2.962   7.584  2.8035  1.7096  1.5604
  143MOL   H11828802   0.598   3.098   7.488  0.5663  0.0937 -0.2334
  143MOL   H11928803   0.390   2.988   7.489  0.1960 -0.0889 -0.7287
  143MOL   H12028804   0.378   3.164   7.351  2.0026 -1.7315  2.1312
  143MOL   H12128805   0.342   3.322   7.423  0.0411  0.8534  1.2101
  143MOL   C12228806   0.336   2.965   0.049  0.0923  0.0223  0.0721
  143MOL   C12328807   0.394   2.824   0.059  0.2830  0.5638  0.2881
  143MOL   C12428808   0.378   2.738   7.591  0.3357  0.4829 -0.5565
  143MOL   O12528809   0.470   2.736   7.510 -0.3475  0.1214  0.1347
  143MOL   N12628810   0.264   2.665   7.575 -0.0475  0.1687 -0.9914
  143MOL   H12728811   0.228   2.977   0.044  0.1644  0.5267 -0.3423
  143MOL   H12828812   0.358   3.013   0.145  3.9719  0.0954 -0.7746
  143MOL   H12928813   0.503   2.827   0.065  0.5028 -1.5666 -1.9148
  143MOL   H13028814   0.258   2.600   7.498 -1.7056 -1.1520  0.2214
  143MOL   H13128815   0.188   2.668   7.641  0.5851 -2.8564 -0.0449
  143MOL   C13228816   0.343   2.751   0.182 -0.0266 -0.0245 -0.1879
  143MOL   C13328817   0.440   2.743   0.301 -0.6671  0.1447  0.1569
  143MOL   C13428818   0.571   2.663   0.259  0.1351 -0.2993  0.1860
  143MOL   O13528819   0.568   2.543   0.245  0.3482  0.3373  0.1506
  143MOL   N13628820   0.682   2.727   0.221  0.9362  0.0172  0.1033
  143MOL   H13728821   0.315   2.647   0.164  1.8192 -0.9125  1.7721
  143MOL   H13828822   0.253   2.799   0.220 -0.9197 -0.5731 -1.5768
  143MOL   H13928823   0.469   2.844   0.331  2.3541 -0.0565 -1.8262
  143MOL   H14028824   0.747   2.673   0.167  0.9988 -0.4203  0.6086
  143MOL   H14128825   0.676   2.827   0.204  1.8863 -0.5946 -4.3283
  143MOL   C14228826   0.367   2.670   0.420 -0.7639 -0.4001 -0.3252
  143MOL   C14328827   0.322   2.754   0.537 -0.1375 -0.4537 -0.1718
  143MOL   C14428828   0.213   2.856   0.491  0.1427 -0.0788  0.7220
  143MOL   O14528829   0.246   2.965   0.434 -0.6729 -0.5525  0.3566
  143MOL   N14628830   0.092   2.835   0.526  0.7624 -0.2503 -0.3588
  143MOL   H14728831   0.430   2.587   0.451  0.7180  0.1667 -1.7753
  143MOL   H14828832   0.279   2.617   0.383 -1.6209  0.6973  0.1219
  143MOL   H14928833   0.265   2.692   0.607 -1.7462  2.3532  1.0766
  143MOL   H15028834   0.024   2.910   0.531  1.7412  0.7256 -1.4816
  143MOL   H15128835   0.061   2.743   0.555 -3.7316  1.7523  1.7191
  143MOL   C15228836   0.444   2.821   0.610 -0.8066  0.3089  0.7074
  143MOL   C15328837   0.474   2.767   0.751 -0.2603  0.0348 -0.6644
  143MOL   C15428838   0.521   2.621   0.743  0.2317  0.2694 -0.3890
  143MOL   O15528839   0.636   2.602   0.716  0.1244  0.0289  0.5446
  143MOL   N15628840   0.435   2.518   0.759  0.1936  0.2308 -0.3704
  143MOL   H15728841   0.435   2.930   0.612 -3.2515  0.2462 -2.9264
  143MOL   H15828842   0.536   2.783   0.565 -1.9687 -2.5777  0.6597
  143MOL   H15928843   0.565   2.812   0.791 -0.8128 -0.3867  1.0962
  143MOL   H16028844   0.464   2.422   0.773  0.7219  0.2805 -1.1237
  143MOL   H16128845   0.335   2.531   0.765  0.0335 -1.7358  2.6176
  143MOL   C16228846   0.368   2.803   0.849  0.1063 -0.0037  0.0338
  143MOL   C16328847   0.402   2.800   0.996 -0.1005 -0.0193 -0.7354
  143MOL   C16428848   0.293   2.734   1.080  0.3337  0.5149 -0.3413
  143MOL   O16528849   0.189   2.785   1.110  0.1648 -0.0503 -0.0272
  143MOL   N16628850   0.310   2.610   1.117  0.2746 -0.1283 -0.0150
  143MOL   H16728851   0.274   2.750   0.838 -0.9125  2.0057 -1.3382
  143MOL   H16828852   0.346   2.907   0.823 -0.8039 -0.6886 -2.0459
  143MOL   H16928853   0.490   2.736   0.993 -0.3857 -0.4029 -0.9786
  143MOL   H17028854   0.395   2.562   1.093  0.6181 -0.5196  1.8824
  143MOL   H17128855   0.232   2.568   1.167  1.6005 -1.3035  1.1099
  143MOL   C17228856   0.435   2.944   1.057  0.0538  0.2198  0.4001
  143MOL   C17328857   0.510   2.933   1.193 -0.3130  0.0446  0.8534
  143MOL   C17428858   0.509   3.070   1.261 -0.4239 -0.0138  0.0681
  143MOL   O17528859   0.589   3.159   1.231  0.5044 -0.2855  0.2466
  143MOL   N17628860   0.410   3.095   1.356 -0.5876  0.0563 -0.3096
  143MOL   H17728861   0.348   3.010   1.058 -0.7823 -0.8539  1.0296
  143MOL   H17828862   0.501   3.001   0.993 -0.1559 -0.2227 -0.2236
  143MOL   H17928863   0.451   2.874   1.263  0.4407 -0.3418  1.1699
  143MOL   H18028864   0.333   3.033   1.377  0.7884 -1.9589 -0.9947
  143MOL   H18128865   0.409   3.188   1.396  0.6270 -1.7547  4.2671
  143MOL   C18228866   0.646   2.866   1.173 -0.6336 -0.2387  0.6819
  143MOL   C18328867   0.662   2.733   1.255 -0.6014  0.3421  1.0007
  143MOL   C18428868   0.750   2.760   1.381  0.0860  1.2764 -0.7109
  143MOL   O18528869   0.864   2.799   1.367  0.3669 -0.2560 -0.0593
  143MOL   N18628870   0.699   2.738   1.505  0.3411  0.4874  0.4351
  143MOL   H18728871   0.722   2.940   1.199 -0.8361  0.2553 -0.1181
  143MOL   H18828872   0.669   2.862   1.067 -0.6540  1.2979  0.6091
  143MOL   H18928873   0.565   2.702   1.291 -1.4924  1.3149 -0.4898
  143MOL   H19028874   0.607   2.699   1.519 -0.2268  0.5196 -2.8783
  143MOL   H19128875   0.757   2.769   1.582 -0.3224  0.5020  0.9246
  143MOL   C19228876   0.729   2.627   1.171  0.4732 -0.4977 -0.2279
  143MOL   C19328877   0.720   2.498   1.252 -0.6889 -0.3619  0.2713
  143MOL   C19428878   0.764   2.385   1.162 -0.4069  0.3009  0.1296
  143MOL   O19528879   0.869   2.396   1.105  0.1875  0.2843 -0.4657
  143MOL   N19628880   0.691   2.273   1.183  0.0237  0.2245  0.8998
  143MOL   H19728881   0.830   2.649   1.138  0.4224  0.3903  0.2040
  143MOL   H19828882   0.669   2.609   1.082  0.2786 -0.0457 -0.1866
  143MOL   H19928883   0.779   2.507   1.343  0.8350  0.0550 -0.7371
  143MOL   H20028884   0.602   2.277   1.230  0.2537  0.9075  1.3041
  143MOL   H20128885   0.721   2.181   1.154 -0.4596 -0.3655  2.2188
  143MOL   H20228886   0.614   2.485   1.273 -0.5030  1.5401  2.5747
  144MOL     C128887   7.527   0.932   1.203  0.8352 -0.5987  0.5487
  144MOL     C228888   7.546   0.816   1.304 -0.2623 -0.1150 -0.5961
  144MOL     C328889   7.641   0.721   1.238  0.3184 -0.0122 -0.6404
  144MOL     O428890   7.615   0.653   1.134  0.1210 -0.1114  0.1117
  144MOL     N528891   0.100   0.700   1.298 -0.2813  0.0036 -0.5399
  144MOL     H628892   7.497   0.904   1.102  1.1019  0.8125  0.0630
  144MOL     H728893   7.460   1.011   1.237  0.1275 -1.0928  0.3199
  144MOL     H828894   7.584   0.854   1.399 -0.6734 -0.2357 -0.3787
  144MOL     H928895   0.116   0.746   1.386 -0.1656 -1.7542  0.3687
  144MOL    H1028896   0.178   0.646   1.262 -1.3518 -1.3417 -0.8672
  144MOL    H1128897   7.623   0.980   1.181 -0.0553 -0.2133 -2.7391
  144MOL    C1228898   7.410   0.737   1.328  0.6449  0.1970  0.1608
  144MOL    C1328899   7.295   0.804   1.408  0.0258  0.7512 -0.0258
  144MOL    C1428900   7.342   0.832   1.549  0.1015 -0.0555  0.1044
  144MOL    O1528901   7.389   0.746   1.622  0.7159  0.0992  0.1038
  144MOL    N1628902   7.329   0.953   1.594 -0.2714 -0.3347  0.0155
  144MOL    H1728903   7.427   0.637   1.367 -0.8352 -0.6957 -1.4119
  144MOL    H1828904   7.374   0.707   1.230 -0.2442  1.2400  0.1569
  144MOL    H1928905   7.286   0.902   1.361  1.4579  0.0174 -1.8993
  144MOL    H2028906   7.360   0.983   1.686 -2.0186  0.1673  0.4491
  144MOL    H2128907   7.299   1.016   1.521 -0.9765 -0.9576 -0.2254
  144MOL    C2228908   7.164   0.729   1.396  0.4305  0.3170 -0.5068
  144MOL    C2328909   7.086   0.769   1.271 -0.9594  0.7130  0.2457
  144MOL    C2428910   6.978   0.866   1.300 -0.9913 -0.0783  0.6589
  144MOL    O2528911   6.874   0.837   1.358 -0.0860  0.0072  0.0459
  144MOL    N2628912   7.003   0.987   1.249  0.0906  0.0948  0.2387
  144MOL    H2728913   7.109   0.758   1.486 -0.7482 -0.5548 -0.9390
  144MOL    H2828914   7.172   0.621   1.408 -1.8603  0.3729  2.3847
  144MOL    H2928915   7.152   0.823   1.203  0.1571  0.7777  1.3722
  144MOL    H3028916   7.085   1.007   1.193 -0.0560 -0.4240 -0.1713
  144MOL    H3128917   6.937   1.062   1.260  1.6520  1.9339 -2.2315
  144MOL    C3228918   7.029   0.635   1.203  0.2317  0.4378 -0.3081
  144MOL    C3328919   7.139   0.534   1.148 -0.8972  0.8109  0.0839
  144MOL    C3428920   7.216   0.596   1.022 -0.1571  0.1873 -0.1619
  144MOL    O3528921   7.175   0.693   0.963  0.4982 -0.6358 -0.5461
  144MOL    N3628922   7.322   0.529   0.989 -0.5513 -0.0043 -0.7562
  144MOL    H3728923   6.952   0.660   1.129  0.7945  1.9676 -0.3967
  144MOL    H3828924   6.970   0.578   1.275  1.5630 -1.5705 -0.7543
  144MOL    H3928925   7.214   0.515   1.226 -1.0308  0.4834  0.1329
  144MOL    H4028926   7.390   0.573   0.928  0.8750 -1.0441  0.0517
  144MOL    H4128927   7.334   0.434   1.020 -4.9827  0.3856  2.6223
  144MOL    C4228928   7.073   0.402   1.107  0.2300  0.2981  0.3729
  144MOL    C4328929   7.110   0.279   1.198 -0.0339  0.7098 -0.3235
  144MOL    C4428930   7.262   0.250   1.186  0.3054  0.3604  0.0131
  144MOL    O4528931   7.335   0.268   1.084  0.1450 -0.4041 -0.2813
  144MOL    N4628932   7.322   0.228   1.302  0.3458 -0.0383 -0.3056
  144MOL    H4728933   7.101   0.363   1.009  1.9902  1.3303  0.4510
  144MOL    H4828934   6.965   0.417   1.104  0.2447  0.8748  2.0060
  144MOL    H4928935   7.085   0.296   1.302  0.1333  1.0377 -0.3353
  144MOL    H5028936   7.275   0.200   1.387  0.5877 -0.7275 -0.4006
  144MOL    H5128937   7.420   0.207   1.308  0.2179 -0.3047  1.0557
  144MOL    C5228938   7.036   0.155   1.142 -0.5682  0.6434 -0.2322
  144MOL    C5328939   7.045   0.026   1.221  0.3728  0.4414  0.4073
  144MOL    C5428940   7.096   7.565   1.137 -0.5637  0.6311  0.6067
  144MOL    O5528941   7.029   7.525   1.038  0.0837  0.3807 -0.3699
  144MOL    N5628942   7.215   7.507   1.163 -0.2659  0.0671  0.4267
  144MOL    H5728943   7.053   0.147   1.035  1.4708  0.6288  0.0701
  144MOL    H5828944   6.932   0.186   1.153 -0.8642  0.2947 -1.8927
  144MOL    H5928945   7.123   0.038   1.297  0.1562  0.9350  0.5505
  144MOL    H6028946   7.246   7.428   1.109 -0.3484 -0.3003  0.9190
  144MOL    H6128947   7.261   7.545   1.244 -0.1165  2.8437 -0.8727
  144MOL    C6228948   6.923   7.648   1.309  0.6805  0.3313  1.0094
  144MOL    C6328949   6.956   7.600   1.454  0.3767  0.0321  0.1099
  144MOL    C6428950   7.019   0.062   1.537 -0.9476  0.3514 -0.4485
  144MOL    O6528951   7.142   0.091   1.527  0.0652 -1.3544  0.0133
  144MOL    N6628952   6.934   0.133   1.609  0.7201  0.4093 -0.6306
  144MOL    H6728953   6.853   7.585   1.255  2.3561 -0.7726  0.0682
  144MOL    H6828954   6.877   0.089   1.323 -0.1718 -0.1312  1.4836
  144MOL    H6928955   6.860   7.570   1.495 -0.4570  2.7825  0.2871
  144MOL    H7028956   6.959   0.219   1.655 -1.3312  0.6546  0.0749
  144MOL    H7128957   6.838   0.131   1.578 -0.2010 -1.6145  2.1103
  144MOL    C7228958   7.041   7.475   1.463 -0.0622  0.8086  0.9443
  144MOL    C7328959   6.981   7.346   1.395 -0.1020 -0.4517  0.4886
  144MOL    C7428960   6.864   7.296   1.473 -0.3719  0.3632 -0.7351
  144MOL    O7528961   6.873   7.256   1.587 -0.5726 -0.2363  0.5814
  144MOL    N7628962   6.749   7.309   1.404  0.2594 -0.2611 -0.4490
  144MOL    H7728963   7.047   7.452   1.569  0.3476 -1.4684  0.4667
  144MOL    H7828964   7.143   7.488   1.425 -0.5311  0.5676 -0.4301
  144MOL    H7928965   6.957   7.385   1.296  2.4869  2.1254  0.8240
  144MOL    H8028966   6.747   7.338   1.307  1.3985  1.1755 -0.0624
  144MOL    H8128967   6.665   7.291   1.457  1.0630 -3.0357 -0.0669
  144MOL    C8228968   7.085   7.230   1.371 -0.0626 -0.4391 -0.1692
  144MOL    C8328969   7.063   7.150   1.242  0.4643  0.0175 -0.2521
  144MOL    C8428970   6.997   7.013   1.261 -0.2293 -0.3185 -0.1419
  144MOL    O8528971   7.057   6.910   1.244 -0.2177  0.0535  0.3271
  144MOL    N8628972   6.867   7.002   1.291 -0.4847 -0.2656  0.8925
  144MOL    H8728973   7.097   7.161   1.455  0.1222 -0.2701 -0.0574
  144MOL    H8828974   7.183   7.278   1.376  1.0175 -2.5121 -0.8680
  144MOL    H8928975   6.978   7.203   1.198 -1.6755 -1.3039  2.0851
  144MOL    H9028976   6.810   7.082   1.314  0.6349  0.4384  1.2817
  144MOL    H9128977   6.829   6.910   1.308 -1.0383 -0.2799 -0.3808
  144MOL    C9228978   7.194   7.151   1.150  0.1298  0.0562  0.2544
  144MOL    C9328979   7.176   7.167   0.996  0.2103  0.3123  0.0848
  144MOL    C9428980   7.124   7.046   0.921  0.1976  0.1044  0.1912
  144MOL    O9528981   7.195   6.947   0.897 -0.2186 -0.4430 -0.1310
  144MOL    N9628982   6.996   7.043   0.902 -0.0916  0.0907  0.0917
  144MOL    H9728983   7.259   7.064   1.157  2.0584  1.5095  1.0590
  144MOL    H9828984   7.258   7.228   1.195 -1.6987  3.0585 -2.0949
  144MOL    H9928985   7.100   7.243   0.977  0.4346  0.6657  0.5977
  144MOL   H10028986   6.933   7.107   0.950 -0.3776 -1.1384  1.3812
  144MOL   H10128987   6.962   6.953   0.873 -0.6114 -0.0113  0.9997
  144MOL   C10228988   7.303   7.223   0.932 -0.5722 -0.0774  0.2667
  144MOL   C10328989   7.287   7.286   0.788  1.3124 -0.1614 -0.4608
  144MOL   C10428990   7.427   7.318   0.716  0.0339 -0.7600 -0.1412
  144MOL   O10528991   7.488   7.421   0.749 -0.1351  0.2360  0.3178
  144MOL   N10628992   7.483   7.224   0.639  0.0991  0.2982  0.8468
  144MOL   H10728993   7.380   7.147   0.937  1.5483  1.6966 -3.3232
  144MOL   H10828994   7.336   7.304   0.997 -0.2898  0.0202  0.0069
  144MOL   H10928995   7.243   7.209   0.724 -2.8302  0.1619  1.8573
  144MOL   H11028996   7.577   7.252   0.616  0.0488 -0.5919 -0.5382
  144MOL   H11128997   7.423   7.149   0.608 -0.4943  0.9196  0.4630
  144MOL   C11228998   7.198   7.409   0.784 -0.2801 -0.2258  0.2294
  144MOL   C11328999   7.150   7.479   0.650  0.2170  0.7807  0.8331
  144MOL   C11429000   7.062   7.593   0.693 -0.1453 -0.3454 -0.3061
  144MOL   O11529001   6.941   7.584   0.700  0.4414  0.5036 -0.0139
  144MOL   N11629002   7.129   0.048   0.720  0.2452  0.3779  0.4835
  144MOL   H11729003   7.224   7.485   0.857 -1.5023  0.1039  0.3310
  144MOL   H11829004   7.104   7.380   0.831  0.1172  0.2076  1.3026
  144MOL   H11929005   7.233   7.518   0.592  0.6698 -1.2765  0.0549
  144MOL   H12029006   7.074   0.128   0.747  1.8963  1.7674 -0.0970
  144MOL   H12129007   7.230   0.047   0.724  0.2317  0.1114  0.8157
  144MOL   C12229008   7.091   7.375   0.556  0.6283  0.8639  0.6713
  144MOL   C12329009   7.179   7.325   0.440 -0.5927 -0.6114 -0.3380
  144MOL   C12429010   7.245   7.434   0.365 -0.4892  0.1336 -0.2535
  144MOL   O12529011   7.174   7.522   0.318  0.1819  0.4757 -0.7297
  144MOL   N12629012   7.377   7.438   0.350 -0.3072  0.3137  0.7160
  144MOL   H12729013   6.992   7.402   0.518 -0.3953 -0.6267  2.2131
  144MOL   H12829014   7.064   7.286   0.613 -1.1767  0.9411 -0.0124
  144MOL   H12929015   7.256   7.273   0.497 -0.3058  0.1015 -0.0802
  144MOL   H13029016   7.431   7.371   0.404 -0.2066 -2.1750 -2.2641
  144MOL   H13129017   7.424   7.498   0.284 -0.8336  2.7582  2.5328
  144MOL   C13229018   7.098   7.234   0.345 -0.1828 -0.4024 -0.0615
  144MOL   C13329019   7.157   7.139   0.238  0.5227 -0.7269 -0.6645
  144MOL   C13429020   7.036   7.076   0.162 -0.8060  0.7013 -0.3307
  144MOL   O13529021   6.960   6.994   0.217 -0.3420 -0.2242 -0.4695
  144MOL   N13629022   7.018   7.113   0.038  0.0716 -0.0357 -0.2715
  144MOL   H13729023   7.033   7.302   0.289 -0.9246 -1.1004 -0.0660
  144MOL   H13829024   7.022   7.181   0.402  0.5676 -2.5651 -1.0435
  144MOL   H13929025   7.214   7.198   0.165  0.1785  1.9373  1.1257
  144MOL   H14029026   7.059   7.193   7.648 -0.8745 -0.5365 -2.0071
  144MOL   H14129027   6.953   7.055   7.644  0.4228 -0.8790  0.2409
  144MOL   C14229028   7.258   7.035   0.293 -0.6572 -0.0675  0.1913
  144MOL   C14329029   7.200   6.928   0.393 -0.4915  0.1098 -0.1436
  144MOL   C14429030   7.215   6.981   0.533 -0.6664  0.0341 -0.1565
  144MOL   O14529031   7.333   6.999   0.580 -0.0404 -0.6077 -0.6817
  144MOL   N14629032   7.109   6.999   0.611  0.8116 -0.6447  0.0335
  144MOL   H14729033   7.336   7.093   0.342  0.6533  0.3359 -2.2857
  144MOL   H14829034   7.304   6.979   0.211 -1.1236  1.2616 -1.0076
  144MOL   H14929035   7.096   6.901   0.372 -0.2343 -0.9767 -0.0643
  144MOL   H15029036   7.017   6.968   0.582  1.0855 -1.0203 -0.4316
  144MOL   H15129037   7.129   7.016   0.708  0.1759 -0.3518  0.1180
  144MOL   C15229038   7.270   6.790   0.377  0.3310 -0.3055  0.6468
  144MOL   C15329039   7.186   6.665   0.412 -0.5732  0.3172 -0.6049
  144MOL   C15429040   7.195   6.627   0.562 -0.2398  0.1404 -0.2550
  144MOL   O15529041   7.285   6.553   0.606  0.0839  0.1087  0.2213
  144MOL   N15629042   7.104   6.685   0.645  0.1837  0.1828 -0.1426
  144MOL   H15729043   7.364   6.811   0.429 -0.0791  0.8377  0.9585
  144MOL   H15829044   7.311   6.785   0.276  0.6826 -2.8200  0.8972
  144MOL   H15929045   7.088   6.701   0.380 -1.0397  0.8983  1.3771
  144MOL   H16029046   7.050   6.767   0.622  0.6843  0.5854  0.1164
  144MOL   H16129047   7.097   6.658   0.742  1.0874 -1.0299 -0.4067
  144MOL   C16229048   7.238   6.545   0.314  0.0344 -0.1229  0.5769
  144MOL   C16329049   7.128   6.431   0.288  0.2150  0.3946  0.0823
  144MOL   C16429050   7.208   6.302   0.247 -0.0911  0.1507  0.3996
  144MOL   O16529051   7.186   6.190   0.287  0.2262 -0.4805 -0.4602
  144MOL   N16629052   7.309   6.317   0.160 -0.0850  0.3208  0.1746
  144MOL   H16729053   7.334   6.506   0.347 -0.7534 -0.1056  3.0279
  144MOL   H16829054   7.265   6.582   0.216 -3.0332  0.0183 -0.2724
  144MOL   H16929055   7.087   6.412   0.387 -0.5995  1.8655  0.0534
  144MOL   H17029056   7.344   6.398   0.111  1.0594 -1.9981 -3.1055
  144MOL   H17129057   7.338   6.225   0.129  0.2754  0.0509  1.2912
  144MOL   C17229058   7.024   6.471   0.172 -0.5317  0.0791 -0.3385
  144MOL   C17329059   6.916   6.361   0.130 -0.3976 -0.7530 -0.2866
  144MOL   C17429060   6.947   6.309   7.645 -0.2415  1.0438 -0.1903
  144MOL   O17529061   6.899   6.353   7.546 -0.0796 -0.7631  0.2268
  144MOL   N17629062   7.045   6.217   7.638 -0.8511  0.0331 -0.8176
  144MOL   H17729063   7.087   6.490   0.085  1.2433  0.8454  1.0832
  144MOL   H17829064   6.972   6.559   0.210 -1.1872 -1.0390  1.4478
  144MOL   H17929065   6.931   6.274   0.194 -1.4067 -1.3574 -0.8483
  144MOL   H18029066   7.096   6.195   0.065 -0.4436  0.1335 -1.0383
  144MOL   H18129067   7.093   6.188   7.555 -0.1237  2.0592 -1.1485
  144MOL   C18229068   6.772   6.406   0.142 -0.6954 -0.0324 -0.0524
  144MOL   C18329069   6.654   6.303   0.123  0.2802  0.9578  0.5618
  144MOL   C18429070   6.514   6.373   0.148 -0.8060 -0.3475  0.0888
  144MOL   O18529071   6.469   6.390   0.262 -0.1880 -0.0953 -0.7770
  144MOL   N18629072   6.449   6.392   0.041  0.2797  0.0111  0.5252
  144MOL   H18729073   6.768   6.487   0.070 -1.0419 -1.1923 -1.3493
  144MOL   H18829074   6.752   6.451   0.239 -0.0759 -0.0377  0.0803
  144MOL   H18929075   6.664   6.272   0.019  2.4006  0.8004  0.7800
  144MOL   H19029076   6.357   6.431   0.047 -0.3358 -1.3984  0.4453
  144MOL   H19129077   6.475   6.363   7.605  0.7930  1.4189  0.2200
  144MOL   C19229078   6.674   6.174   0.217  0.9353  0.1263  0.4334
  144MOL   C19329079   6.744   6.053   0.143 -0.2026  0.1607 -0.3981
  144MOL   C19429080   6.691   6.027   7.651 -1.2242  0.0402 -0.0500
  144MOL   O19529081   6.574   6.008   7.624  0.0291 -0.2867 -0.0830
  144MOL   N19629082   6.773   6.031   7.548  0.2945  0.5591  0.5250
  144MOL   H19729083   6.578   6.149   0.261 -0.6418 -1.7441 -3.8796
  144MOL   H19829084   6.738   6.210   0.298  2.3603 -0.1523 -0.5453
  144MOL   H19929085   6.847   6.087   0.133 -0.1132  0.2603  0.7910
  144MOL   H20029086   6.744   6.019   7.452  0.6715  1.0324  0.3508
  144MOL   H20129087   6.870   6.046   7.569  0.3702  0.5948  0.1544
  144MOL   H20229088   6.754   5.964   0.205  0.1394  1.0291  0.8080
  145MOL     C129089   4.531   3.152   6.742  0.6184  0.0240 -0.0408
  145MOL     C229090   4.560   3.231   6.865  0.2465 -0.7261  0.4178
  145MOL     C329091   4.524   3.147   6.992  0.3991 -0.3015  0.1446
  145MOL     O429092   4.424   3.180   7.058  0.4746  0.4568 -0.5138
  145MOL     N529093   4.592   3.040   7.024 -0.3647  0.1965  0.1877
  145MOL     H629094   4.579   3.192   6.653 -2.2642  2.4922 -0.5705
  145MOL     H729095   4.582   3.057   6.760  0.8737  0.4785  1.7310
  145MOL     H829096   4.666   3.256   6.871 -0.5019  2.4561  1.0968
  145MOL     H929097   4.543   2.966   7.071 -0.3487 -1.2868 -2.0324
  145MOL    H1029098   4.661   3.011   6.956 -0.4307 -1.1420  0.6758
  145MOL    H1129099   4.425   3.126   6.739  1.0108 -1.5320 -0.6875
  145MOL    C1229100   4.490   3.370   6.846 -0.0593 -0.2609 -0.8075
  145MOL    C1329101   4.550   3.497   6.914 -0.1419  0.4680  0.2608
  145MOL    C1429102   4.666   3.563   6.835  0.0722  0.0375 -0.0892
  145MOL    O1529103   4.777   3.505   6.843 -0.7314  0.8267  0.1203
  145MOL    N1629104   4.645   3.687   6.776 -0.5839  0.3099  0.3437
  145MOL    H1729105   4.387   3.362   6.881  0.3867 -1.1457  0.3236
  145MOL    H1829106   4.467   3.390   6.742  1.4193  2.8573 -0.6060
  145MOL    H1929107   4.473   3.575   6.907  0.6259  1.2546  0.5410
  145MOL    H2029108   4.725   3.734   6.736 -0.7426  0.7093  0.4967
  145MOL    H2129109   4.550   3.719   6.768 -0.4546  0.7060  0.3959
  145MOL    C2229110   4.585   3.470   7.064 -0.0993  0.3239 -0.0138
  145MOL    C2329111   4.621   3.590   7.154  0.7598  0.0567 -0.1613
  145MOL    C2429112   4.611   3.545   7.302 -0.7785  0.1031 -0.5337
  145MOL    O2529113   4.502   3.528   7.361  0.0269 -0.8350 -0.5888
  145MOL    N2629114   4.733   3.513   7.352 -0.0949 -0.6732  0.1638
  145MOL    H2729115   4.667   3.399   7.065  0.5278  1.0509  0.1240
  145MOL    H2829116   4.496   3.424   7.109 -0.7989 -0.6828 -2.3550
  145MOL    H2929117   4.723   3.620   7.129  1.0741  0.4859  1.6060
  145MOL    H3029118   4.739   3.464   7.441  0.1827  1.0965  1.1398
  145MOL    H3129119   4.817   3.522   7.297  1.0135  1.1407  2.0552
  145MOL    C3229120   4.535   3.710   7.130  0.5916 -0.1163  0.0713
  145MOL    C3329121   4.566   3.830   7.220  0.2577  0.1429  0.4652
  145MOL    C3429122   4.466   3.945   7.194  0.4488  0.1129 -0.4663
  145MOL    O3529123   4.404   3.949   7.090  0.7241 -0.2711 -0.3537
  145MOL    N3629124   4.447   4.035   7.287  0.5028 -0.3342  0.3381
  145MOL    H3729125   4.427   3.695   7.141  0.6807  0.5210  2.1399
  145MOL    H3829126   4.551   3.742   7.028 -0.0879  0.0682  0.0216
  145MOL    H3929127   4.558   3.798   7.324  0.4843  1.5022  0.9131
  145MOL    H4029128   4.475   4.027   7.384 -0.0503 -1.6219  0.3994
  145MOL    H4129129   4.389   4.108   7.248  1.7790  0.8009  0.5298
  145MOL    C4229130   4.714   3.876   7.210  0.1077 -0.1526  0.3751
  145MOL    C4329131   4.778   3.906   7.065  0.8445  0.0902 -0.6146
  145MOL    C4429132   4.925   3.851   7.057  0.2394  0.2631 -0.3690
  145MOL    O4529133   5.013   3.927   7.098 -0.3576 -0.7472  0.0619
  145MOL    N4629134   4.946   3.733   7.003  0.1322  0.2712  0.0442
  145MOL    H4729135   4.768   3.793   7.257  1.6863  0.9312  0.4962
  145MOL    H4829136   4.718   3.963   7.275  0.4141  0.4454 -0.4313
  145MOL    H4929137   4.719   3.850   6.993  0.9255 -1.6282  0.6125
  145MOL    H5029138   4.870   3.681   6.963  0.4728  0.1842 -0.5027
  145MOL    H5129139   5.039   3.694   6.996 -0.3003 -1.2236  2.1835
  145MOL    C5229140   4.761   4.059   7.023 -0.1304  0.1294  0.1499
  145MOL    C5329141   4.823   4.100   6.885 -0.1809 -0.7479 -0.2166
  145MOL    C5429142   4.939   4.195   6.912 -0.1991  0.0206  0.4606
  145MOL    O5529143   4.931   4.311   6.880 -0.1962 -0.0758  0.1797
  145MOL    N5629144   5.046   4.154   6.979 -0.0078 -0.0005 -0.2868
  145MOL    H5729145   4.809   4.116   7.102  0.7676  0.0144 -0.2934
  145MOL    H5829146   4.657   4.089   7.018 -0.6106 -1.2689  1.4336
  145MOL    H5929147   4.864   4.009   6.842  2.5264  1.1786 -1.8831
  145MOL    H6029148   5.050   4.060   7.014 -0.5058  0.6326  1.5108
  145MOL    H6129149   5.116   4.227   6.988  1.2978 -1.3394  0.6798
  145MOL    C6229150   4.709   4.161   6.795 -0.6671 -0.4319 -0.0110
  145MOL    C6329151   4.613   4.055   6.727  0.3918  0.0292 -0.5445
  145MOL    C6429152   4.690   3.994   6.601  1.0036 -0.2929 -0.3642
  145MOL    O6529153   4.708   3.875   6.588  0.1165  0.5888 -0.8153
  145MOL    N6629154   4.735   4.073   6.508 -0.1763 -0.3352  0.1300
  145MOL    H6729155   4.760   4.216   6.717  3.1568 -1.1091  1.8608
  145MOL    H6829156   4.655   4.241   6.845  1.5446  0.8353  0.4018
  145MOL    H6929157   4.575   3.979   6.796  0.3379 -0.3678 -1.0137
  145MOL    H7029158   4.775   4.032   6.426  0.5818  0.6616 -0.0134
  145MOL    H7129159   4.717   4.173   6.508 -2.6891 -0.7515 -0.0431
  145MOL    C7229160   4.481   4.129   6.677 -0.0004 -0.0503  0.1303
  145MOL    C7329161   4.378   4.039   6.602 -0.1447  0.3312  0.6385
  145MOL    C7429162   4.390   4.070   6.451  0.3107  0.8782 -0.6517
  145MOL    O7529163   4.339   4.166   6.397 -0.2029  0.6349 -0.3843
  145MOL    N7629164   4.446   3.973   6.376  0.1586  0.0636 -0.3759
  145MOL    H7729165   4.515   4.214   6.617 -3.2659  2.1991  1.3435
  145MOL    H7829166   4.440   4.179   6.764 -0.9351  0.9160 -0.8525
  145MOL    H7929167   4.402   3.934   6.621 -0.5235  0.3614  1.2792
  145MOL    H8029168   4.475   3.894   6.432  0.4159  0.9066  0.7024
  145MOL    H8129169   4.472   3.983   6.279 -0.2081  2.9153 -0.2005
  145MOL    C8229170   4.236   4.083   6.654 -0.1072 -0.1088 -0.5152
  145MOL    C8329171   4.197   4.050   6.800  0.0473 -0.0746 -0.2870
  145MOL    C8429172   4.163   3.900   6.817 -0.2173  0.9488  0.1034
  145MOL    O8529173   4.099   3.832   6.733 -0.1911  0.2540 -0.7435
  145MOL    N8629174   4.203   3.842   6.932 -0.5719  0.0276 -0.2453
  145MOL    H8729175   4.169   4.036   6.582  0.6159  0.0077 -1.2727
  145MOL    H8829176   4.225   4.188   6.626  0.5089  0.0071 -0.3341
  145MOL    H8929177   4.280   4.070   6.868 -1.6980 -0.8487  2.1479
  145MOL    H9029178   4.258   3.893   7.000  0.4726  0.8046 -1.6682
  145MOL    H9129179   4.179   3.745   6.945  0.2017  0.1413  2.4154
  145MOL    C9229180   4.060   4.140   6.827  0.0121  0.4935 -0.9092
  145MOL    C9329181   3.993   4.153   6.972 -0.4263  0.1433  0.2661
  145MOL    C9429182   4.103   4.183   7.076  0.2801  0.5523  0.0169
  145MOL    O9529183   4.140   4.085   7.143  0.6978 -0.1661  0.3147
  145MOL    N9629184   4.145   4.305   7.089 -0.6750 -0.1946  0.1894
  145MOL    H9729185   3.984   4.096   6.763 -0.2649  1.3250 -1.1448
  145MOL    H9829186   4.071   4.242   6.791  0.0305  0.5868 -0.6332
  145MOL    H9929187   3.926   4.238   6.963 -1.4729 -0.6740  0.2751
  145MOL   H10029188   4.226   4.318   7.147  0.2628  0.5520 -1.2497
  145MOL   H10129189   4.110   4.381   7.032  0.0622  0.9643  1.2587
  145MOL   C10229190   3.908   4.029   7.011 -0.7420  0.1458  0.1739
  145MOL   C10329191   3.757   4.044   7.010 -0.3425  0.9888  0.4533
  145MOL   C10429192   3.713   4.137   7.119 -0.0009 -0.1850 -0.2945
  145MOL   O10529193   3.711   4.258   7.113 -0.3990  0.2205  0.2419
  145MOL   N10629194   3.653   4.086   7.231  0.4249 -0.2831  0.0566
  145MOL   H10729195   3.937   3.980   7.104 -1.6031  0.3775  0.5695
  145MOL   H10829196   3.930   3.952   6.938 -1.9419  1.6248 -1.8165
  145MOL   H10929197   3.747   4.083   6.909  4.6921  1.6589  0.1021
  145MOL   H11029198   3.641   3.986   7.242  2.3962 -0.4274  0.9971
  145MOL   H11129199   3.607   4.153   7.291 -1.9340 -1.5183 -0.3044
  145MOL   C11229200   3.671   3.917   7.005  0.8495  0.1347 -0.2175
  145MOL   C11329201   3.698   3.823   6.884  0.8244  0.0622 -0.3430
  145MOL   C11429202   3.700   3.889   6.745  0.7406  0.4576 -0.2634
  145MOL   O11529203   3.597   3.945   6.700  0.6403  1.0845  0.0887
  145MOL   N11629204   3.814   3.893   6.679 -0.3366 -0.6033  0.2302
  145MOL   H11729205   3.568   3.953   7.008  0.1481 -1.9246  2.0776
  145MOL   H11829206   3.696   3.860   7.095  1.5576 -2.3827 -1.9787
  145MOL   H11929207   3.783   3.758   6.901  0.5449  0.2756  1.9348
  145MOL   H12029208   3.898   3.850   6.715 -0.3402  0.4220  1.5301
  145MOL   H12129209   3.814   3.931   6.586  2.9923 -0.4803  0.2117
  145MOL   C12229210   3.588   3.713   6.895  0.2491  0.0389  0.1538
  145MOL   C12329211   3.614   3.583   6.810  0.5789  0.4101  0.9669
  145MOL   C12429212   3.490   3.513   6.772  0.0696  0.3252 -0.7521
  145MOL   O12529213   3.491   3.442   6.673  0.1870  0.2362  0.2631
  145MOL   N12629214   3.379   3.534   6.832  0.2016 -0.6177 -0.0324
  145MOL   H12729215   3.489   3.757   6.882 -0.1460 -0.7575  0.4570
  145MOL   H12829216   3.594   3.682   6.999  0.7675  0.3683  0.2263
  145MOL   H12929217   3.638   3.612   6.708 -2.9002 -0.2644 -0.0934
  145MOL   H13029218   3.290   3.500   6.800  0.7715 -1.1964 -1.0005
  145MOL   H13129219   3.379   3.614   6.894 -3.5322  0.8957 -1.8443
  145MOL   C13229220   3.721   3.498   6.885 -0.4232 -0.5566  0.7085
  145MOL   C13329221   3.771   3.368   6.819  0.1713 -0.1207  0.4068
  145MOL   C13429222   3.709   3.246   6.882  0.4123  0.1262  0.3765
  145MOL   O13529223   3.685   3.249   6.998 -0.0575  0.2668 -0.0314
  145MOL   N13629224   3.693   3.129   6.817 -0.5278  0.2842  0.4875
  145MOL   H13729225   3.702   3.495   6.992 -0.3135 -0.2293  0.7375
  145MOL   H13829226   3.813   3.555   6.901 -0.4035 -1.1650  2.9789
  145MOL   H13929227   3.734   3.367   6.717  2.1832  3.6113 -0.4725
  145MOL   H14029228   3.703   3.127   6.716 -2.5128 -2.0309  0.2810
  145MOL   H14129229   3.684   3.041   6.866  1.8652 -0.7296 -0.7833
  145MOL   C14229230   3.928   3.349   6.816  0.2598 -0.0858  0.0442
  145MOL   C14329231   3.985   3.229   6.729 -0.1613  0.0767  0.1084
  145MOL   C14429232   4.050   3.116   6.813  0.3928  0.0964 -0.1409
  145MOL   O14529233   4.107   3.136   6.920 -0.5218  0.1524  0.4479
  145MOL   N14629234   4.024   2.995   6.771 -0.2238 -0.5136 -0.0931
  145MOL   H14729235   3.969   3.331   6.916  1.0351  2.2806  0.2004
  145MOL   H14829236   3.976   3.444   6.794  0.6835 -0.7355 -1.8771
  145MOL   H14929237   3.906   3.181   6.672  0.5760 -0.8339 -0.1503
  145MOL   H15029238   4.058   2.910   6.816 -2.6010 -1.7446 -0.5285
  145MOL   H15129239   3.975   2.983   6.684 -1.0911  2.1491  0.0014
  145MOL   C15229240   4.084   3.275   6.619 -0.4219 -0.2261 -0.3714
  145MOL   C15329241   4.094   3.187   6.497  0.3795 -0.1639  0.4997
  145MOL   C15429242   4.218   3.225   6.407  0.3543  0.6626  0.8534
  145MOL   O15529243   4.225   3.330   6.340  0.6972  0.0846  0.1046
  145MOL   N15629244   4.315   3.133   6.393  0.1601 -0.0024 -0.0291
  145MOL   H15729245   4.181   3.281   6.669 -0.5410 -1.9675  0.1107
  145MOL   H15829246   4.055   3.373   6.581 -2.1828 -0.6140 -0.0746
  145MOL   H15929247   4.112   3.084   6.527 -0.2174  0.2698  2.4485
  145MOL   H16029248   4.312   3.048   6.448 -2.2694  0.0095 -0.1050
  145MOL   H16129249   4.379   3.144   6.316  1.7970 -0.0072  1.3000
  145MOL   C16229250   3.964   3.197   6.407  0.0887  0.3800 -0.1917
  145MOL   C16329251   3.919   3.055   6.363  0.2931 -0.6744  0.2397
  145MOL   C16429252   3.938   3.021   6.220  0.0546 -0.1823  0.0024
  145MOL   O16529253   3.914   3.106   6.133  0.4286  0.1388  0.4153
  145MOL   N16629254   3.984   2.901   6.198  0.4661 -0.3699  0.1893
  145MOL   H16729255   3.974   3.260   6.319  0.7651  0.5753  0.0232
  145MOL   H16829256   3.881   3.246   6.457 -0.0540 -0.9648  0.9266
  145MOL   H16929257   3.966   2.979   6.426 -1.5796 -2.1497 -0.1033
  145MOL   H17029258   3.994   2.870   6.103 -0.7484 -0.7609  0.1808
  145MOL   H17129259   4.010   2.838   6.273  0.4043 -2.0755 -1.1992
  145MOL   C17229260   3.773   3.026   6.403 -0.0404  0.1864 -0.0517
  145MOL   C17329261   3.644   3.070   6.329  0.4003 -0.4215 -0.0527
  145MOL   C17429262   3.535   3.107   6.431  0.5375  0.2240  0.2831
  145MOL   O17529263   3.443   3.033   6.457  0.4686  0.2454 -0.7081
  145MOL   N17629264   3.544   3.232   6.481 -0.5125 -0.0720 -0.3768
  145MOL   H17729265   3.758   3.062   6.504  1.1366 -0.7110  0.4570
  145MOL   H17829266   3.762   2.919   6.416 -0.6119  0.1590 -0.7142
  145MOL   H17929267   3.666   3.159   6.270 -1.9548  0.0740 -0.2149
  145MOL   H18029268   3.629   3.281   6.458 -1.1719 -0.4165 -3.8615
  145MOL   H18129269   3.483   3.259   6.557  0.0503 -1.5306  0.6133
  145MOL   C18229270   3.601   2.950   6.243  0.9970  0.1519  0.3420
  145MOL   C18329271   3.503   2.984   6.131  0.3074 -0.7941 -0.4671
  145MOL   C18429272   3.435   2.855   6.070 -0.1025  0.3864 -0.8030
  145MOL   O18529273   3.504   2.750   6.065 -0.1344 -0.3678  0.5020
  145MOL   N18629274   3.308   2.865   6.027 -0.2449  0.1650  0.4284
  145MOL   H18729275   3.556   2.875   6.306  2.3180 -1.0947 -0.1643
  145MOL   H18829276   3.689   2.901   6.200 -0.3591 -1.0507 -1.1207
  145MOL   H18929277   3.425   3.051   6.169  0.8089  0.2368 -1.2280
  145MOL   H19029278   3.270   2.957   6.039  1.3067  0.9839 -0.7825
  145MOL   H19129279   3.259   2.781   5.997 -1.5131  0.4099  1.7509
  145MOL   C19229280   3.557   3.062   6.009  0.3977  0.1641 -0.4222
  145MOL   C19329281   3.474   3.174   5.956  0.5480  0.1729 -0.1719
  145MOL   C19429282   3.357   3.145   5.857  0.5900 -0.3925  0.0619
  145MOL   O19529283   3.382   3.114   5.743  0.3757  0.3718  0.3198
  145MOL   N19629284   3.232   3.161   5.906 -0.2275  0.3031  0.3647
  145MOL   H19729285   3.584   2.998   5.924 -1.4389 -0.1647 -0.7649
  145MOL   H19829286   3.650   3.107   6.043  0.9997 -1.7448  0.5568
  145MOL   H19929287   3.443   3.227   6.046  0.5942 -1.1256  0.6354
  145MOL   H20029288   3.160   3.141   5.838  0.2567  1.1296 -0.3965
  145MOL   H20129289   3.219   3.188   6.003  3.1157 -1.1143  1.2898
  145MOL   H20229290   3.532   3.252   5.907  0.5691 -0.3421 -0.9747
  146MOL     C129291   0.381   0.130   3.282  0.2594  0.5772 -0.2273
  146MOL     C229292   0.373   0.255   3.182  0.6998  0.2862 -0.0103
  146MOL     C329293   0.486   0.249   3.075 -0.1916  0.2445  1.0052
  146MOL     O429294   0.597   0.205   3.098 -0.1436  0.8631 -0.3943
  146MOL     N529295   0.451   0.266   2.949 -0.2061 -0.0543  0.7912
  146MOL     H629296   0.397   0.035   3.230 -0.4087 -0.3968  1.3260
  146MOL     H729297   0.473   0.128   3.339 -0.8823 -0.4298  1.6245
  146MOL     H829298   0.279   0.254   3.125  0.5932 -0.3830  0.1722
  146MOL     H929299   0.366   0.303   2.908  2.1605  1.3880 -3.1753
  146MOL    H1029300   0.529   0.256   2.886  0.0456 -1.4645  1.3243
  146MOL    H1129301   0.289   0.133   3.341 -0.3758  1.4934 -1.2311
  146MOL    C1229302   0.395   0.390   3.258 -0.4645  0.4557 -0.3835
  146MOL    C1329303   0.297   0.417   3.376 -0.1462 -0.1279  0.1268
  146MOL    C1429304   0.150   0.380   3.354 -0.2881  0.5294  0.1546
  146MOL    O1529305   0.080   0.448   3.279  0.1547 -0.3042 -0.3252
  146MOL    N1629306   0.095   0.283   3.425 -0.4674  0.2888  0.8031
  146MOL    H1729307   0.384   0.469   3.184 -0.4326  0.4381 -0.4072
  146MOL    H1829308   0.499   0.400   3.288 -1.2867  4.0031  1.5114
  146MOL    H1929309   0.331   0.356   3.460 -0.2454  1.0646  1.0353
  146MOL    H2029310   0.005   0.245   3.401  0.0718  0.3649 -1.4321
  146MOL    H2129311   0.146   0.239   3.501  1.7684 -0.9776 -1.3644
  146MOL    C2229312   0.323   0.560   3.429 -1.0585 -0.9229 -0.0856
  146MOL    C2329313   0.261   0.595   3.562  0.1162  0.0435 -0.4753
  146MOL    C2429314   0.238   0.744   3.562  0.6410 -0.0217 -0.1451
  146MOL    O2529315   0.328   0.812   3.527 -0.0227 -0.4971 -0.3097
  146MOL    N2629316   0.123   0.797   3.588  0.1474 -0.0829  0.8753
  146MOL    H2729317   0.307   0.630   3.347  0.9505 -0.9346 -0.5072
  146MOL    H2829318   0.431   0.569   3.433 -1.1600 -0.0137  0.7858
  146MOL    H2929319   0.165   0.547   3.547  0.4501 -0.1223 -2.2163
  146MOL    H3029320   0.049   0.740   3.625 -1.0613  1.0199  0.1918
  146MOL    H3129321   0.107   0.894   3.562  1.9380 -0.2537 -1.0136
  146MOL    C3229322   0.346   0.552   3.685 -0.4959  0.5202  0.1797
  146MOL    C3329323   0.281   0.559   3.831  0.2669  1.1818 -0.1321
  146MOL    C3429324   0.306   0.704   3.886  0.1200 -0.0502  0.6340
  146MOL    O3529325   0.415   0.755   3.912  0.4623  0.4675  0.2402
  146MOL    N3629326   0.194   0.779   3.906 -0.4082 -0.0665  0.2362
  146MOL    H3729327   0.431   0.620   3.689 -0.8314  0.9034  0.6666
  146MOL    H3829328   0.389   0.456   3.656  0.1328  0.8742 -0.0790
  146MOL    H3929329   0.178   0.525   3.831  0.8308 -0.5780  0.4171
  146MOL    H4029330   0.203   0.877   3.932  1.6571  0.0017 -0.6831
  146MOL    H4129331   0.102   0.750   3.874 -1.3587  3.0321 -0.0450
  146MOL    C4229332   0.361   0.465   3.921 -0.1775  0.2302  0.5855
  146MOL    C4329333   0.292   0.335   3.954  0.8356 -0.3825  0.5705
  146MOL    C4429334   0.388   0.254   4.046  0.0811 -0.2430 -0.0264
  146MOL    O4529335   0.507   0.221   4.015 -0.2319 -0.4943  0.2365
  146MOL    N4629336   0.349   0.218   4.167  0.1990 -0.6879  0.4346
  146MOL    H4729337   0.391   0.510   4.015  1.6084  0.4136 -0.0557
  146MOL    H4829338   0.456   0.437   3.875 -0.1296 -0.2021  0.9454
  146MOL    H4929339   0.203   0.368   4.008 -0.0283 -0.8821 -0.5383
  146MOL    H5029340   0.255   0.230   4.201 -1.3320  0.0248 -3.7012
  146MOL    H5129341   0.419   0.166   4.218 -0.4948 -3.0317 -0.9258
  146MOL    C5229342   0.253   0.253   3.826  0.1677 -0.8735  0.4615
  146MOL    C5329343   0.185   0.121   3.854 -0.0966  0.2566 -0.0271
  146MOL    C5429344   0.179   0.046   3.726  0.0793 -0.6501 -0.2575
  146MOL    O5529345   0.103   0.088   3.635  0.2118  0.3434 -0.2938
  146MOL    N5629346   0.256   7.599   3.714 -0.3051 -0.1052 -0.0837
  146MOL    H5729347   0.339   0.253   3.759  0.3203  4.7882  0.4655
  146MOL    H5829348   0.178   0.315   3.777  1.0802 -1.5922 -1.9368
  146MOL    H5929349   0.255   0.062   3.913 -0.1421  1.0139  0.8032
  146MOL    H6029350   0.310   7.567   3.794  1.0026  1.1316 -0.4409
  146MOL    H6129351   0.250   7.549   3.626 -2.1642 -4.2424  2.2299
  146MOL    C6229352   0.050   0.137   3.929 -0.6612 -0.7138  0.0658
  146MOL    C6329353   7.606   0.027   3.947  0.6153  0.7243 -0.1711
  146MOL    C6429354   7.487   0.085   4.030  0.5256 -0.5286  0.0383
  146MOL    O6529355   7.497   0.182   4.098 -0.3965  0.0849 -0.2422
  146MOL    N6629356   7.363   0.038   4.017 -0.0772 -0.2429 -0.3899
  146MOL    H6729357   0.002   0.215   3.869 -2.3689 -0.8224  1.2536
  146MOL    H6829358   0.068   0.191   4.022  0.7635  3.4657 -2.4989
  146MOL    H6929359   7.568   0.021   3.845  1.9853  0.7279 -0.6888
  146MOL    H7029360   7.343   7.641   3.933 -2.2781 -1.6754  1.0065
  146MOL    H7129361   7.295   0.099   4.062 -0.3344 -0.8672  0.0743
  146MOL    C7229362   0.012   7.556   4.015 -0.0851  0.2610 -0.8803
  146MOL    C7329363   7.585   7.430   4.011  0.2258  0.1293  0.2579
  146MOL    C7429364   0.007   7.313   4.070 -0.4259 -0.7656  0.6752
  146MOL    O7529365   0.125   7.285   4.042  0.1555 -0.2266  0.2251
  146MOL    N7629366   7.603   7.239   4.165 -0.1121 -0.3990  0.2699
  146MOL    H7729367   0.048   7.582   4.115  1.4841 -1.9373 -0.8215
  146MOL    H7829368   0.106   7.543   3.960  1.2791  1.2152  1.1503
  146MOL    H7929369   7.497   7.450   4.072 -1.6375 -0.4917 -2.1257
  146MOL    H8029370   7.642   7.170   4.228 -1.1182 -0.8822  0.3895
  146MOL    H8129371   7.503   7.253   4.178 -0.3707 -3.2727  1.9153
  146MOL    C8229372   7.513   7.397   3.870 -0.4784 -0.2871 -0.5299
  146MOL    C8329373   7.395   7.291   3.853  0.2048 -0.3068 -0.3252
  146MOL    C8429374   7.284   7.311   3.956  0.2393  0.2957 -0.4115
  146MOL    O8529375   7.295   7.246   4.062 -0.0514 -0.3524 -0.0354
  146MOL    N8629376   7.192   7.401   3.930 -0.0266  0.2243  0.0772
  146MOL    H8729377   7.589   7.376   3.795 -0.2942  1.3108 -0.8127
  146MOL    H8829378   7.459   7.486   3.840  1.5002  1.5433  1.1511
  146MOL    H8929379   7.350   7.308   3.755 -1.4574 -0.7259  0.3532
  146MOL    H9029380   7.109   7.401   3.988 -0.1821 -0.4522 -0.1348
  146MOL    H9129381   7.186   7.445   3.839 -0.8814 -1.6148 -0.7974
  146MOL    C9229382   7.442   7.148   3.852 -0.6032 -0.0423  0.0304
  146MOL    C9329383   7.526   7.116   3.721  0.3140  0.0075  0.4300
  146MOL    C9429384   7.455   7.014   3.627  0.0397  1.2408  0.3171
  146MOL    O9529385   7.350   6.960   3.659  0.8759  0.7400 -0.2364
  146MOL    N9629386   7.501   7.000   3.502  0.0405  0.2156  0.6162
  146MOL    H9729387   7.361   7.078   3.874 -0.9959  0.1891 -0.6652
  146MOL    H9829388   7.505   7.130   3.940  2.2197  0.7799 -1.7645
  146MOL    H9929389   7.529   7.205   3.657 -3.1710 -2.0184 -2.7520
  146MOL   H10029390   7.450   6.944   3.435 -1.7873  1.1994  1.1573
  146MOL   H10129391   7.564   7.069   3.462 -1.2092  0.0372 -1.7450
  146MOL   C10229392   0.023   7.076   3.739  0.4194 -0.0647  0.5153
  146MOL   C10329393   0.063   7.006   3.870  0.5519 -0.3291  0.0697
  146MOL   C10429394   0.220   6.992   3.880  0.2193  0.3533 -0.3534
  146MOL   O10529395   0.280   6.888   3.847  0.1221  0.1390 -0.7166
  146MOL   N10629396   0.289   7.096   3.920 -0.2664 -0.4817 -0.5688
  146MOL   H10729397   0.083   7.167   3.736  2.8334 -1.6155  0.5833
  146MOL   H10829398   0.056   7.017   3.653  1.4220 -0.7939  1.3845
  146MOL   H10929399   0.039   7.062   3.960  0.3416  0.2810 -0.3600
  146MOL   H11029400   0.245   7.182   3.950 -1.8225 -1.6602  0.6524
  146MOL   H11129401   0.390   7.088   3.919 -0.1401  1.0706 -1.2377
  146MOL   C11229402   7.648   6.871   3.895  0.0178  1.2026  0.2276
  146MOL   C11329403   7.642   6.837   4.054 -0.5903  0.1777 -0.4337
  146MOL   C11429404   0.102   6.773   4.126 -0.4499  0.9818  0.5255
  146MOL   O11529405   0.147   6.671   4.075  0.7251 -0.0342  0.1356
  146MOL   N11629406   0.145   6.822   4.243 -0.1589  0.1193  0.0611
  146MOL   H11729407   0.041   6.787   3.846 -0.7735  1.0519 -0.3333
  146MOL   H11829408   7.544   6.868   3.864 -0.2232 -0.0957  1.1337
  146MOL   H11929409   7.617   6.926   4.111 -2.0850  0.0809 -0.9061
  146MOL   H12029410   0.212   6.760   4.288 -1.0411 -0.1238  1.0812
  146MOL   H12129411   0.117   6.913   4.278 -1.6182  0.9104 -3.0490
  146MOL   C12229412   7.519   6.739   4.088 -0.1313  0.2740 -0.0085
  146MOL   C12329413   7.497   6.677   4.230 -0.1962  0.0832 -0.0597
  146MOL   C12429414   7.380   6.577   4.232  0.3294 -0.1536  0.6625
  146MOL   O12529415   7.270   6.607   4.183  0.1508 -0.2517 -0.4094
  146MOL   N12629416   7.407   6.455   4.268  0.0250  0.6183 -0.0231
  146MOL   H12729417   7.522   6.654   4.020  1.3615 -1.5320  2.2426
  146MOL   H12829418   7.431   6.795   4.058  0.3392  1.1828  0.2623
  146MOL   H12929419   7.589   6.621   4.244 -1.0292 -1.1476  0.6358
  146MOL   H13029420   7.500   6.432   4.301  0.0566 -1.2383 -1.3205
  146MOL   H13129421   7.337   6.382   4.270  0.7934 -0.1326  3.7435
  146MOL   C13229422   7.490   6.763   4.354 -0.1027 -0.3393 -0.5386
  146MOL   C13329423   7.359   6.844   4.383  0.2190 -0.1590 -0.6200
  146MOL   C13429424   7.366   6.975   4.303  0.2178 -1.0347 -0.3138
  146MOL   O13529425   7.428   7.072   4.342 -0.2543 -0.1543  0.1604
  146MOL   N13629426   7.282   6.986   4.204  0.4467 -0.3304 -0.4004
  146MOL   H13729427   7.574   6.832   4.350  0.3176 -0.8585 -0.6434
  146MOL   H13829428   7.508   6.703   4.444  0.4551 -0.6858 -0.8830
  146MOL   H13929429   7.265   6.795   4.358  0.7094 -0.1408 -2.6143
  146MOL   H14029430   7.271   7.080   4.169  0.2321  0.1014  0.8131
  146MOL   H14129431   7.226   6.907   4.173  0.5462  0.9355 -4.1268
  146MOL   C14229432   7.342   6.880   4.529  0.2565 -0.4676 -0.9513
  146MOL   C14329433   7.210   6.937   4.574  1.0678  0.1644 -0.4992
  146MOL   C14429434   7.227   7.035   4.697 -0.0574 -0.3014  0.2753
  146MOL   O14529435   7.265   6.981   4.807 -0.3043  0.0899  0.2765
  146MOL   N14629436   7.181   7.162   4.698 -0.0792 -0.2405  0.3544
  146MOL   H14729437   7.433   6.924   4.569 -1.9538  1.1681  2.5762
  146MOL   H14829438   7.350   6.781   4.573  0.9067 -0.3030 -0.6975
  146MOL   H14929439   7.162   6.999   4.498 -0.8073 -0.3582  0.2416
  146MOL   H15029440   7.152   7.202   4.610 -1.3527 -0.2685  0.7518
  146MOL   H15129441   7.179   7.219   4.781 -0.8543  1.3030 -0.6924
  146MOL   C15229442   7.106   6.829   4.603 -0.1304 -0.8139 -0.4103
  146MOL   C15329443   6.965   6.860   4.555  0.5126 -0.0696 -0.0054
  146MOL   C15429444   6.893   6.960   4.645  0.1943  0.1197  0.4006
  146MOL   O15529445   6.867   6.937   4.764  0.0623  0.1647 -0.4634
  146MOL   N15629446   6.868   7.078   4.593  0.0900 -0.4472 -0.6159
  146MOL   H15729447   7.113   6.781   4.701  0.9214  3.6199  1.8181
  146MOL   H15829448   7.135   6.742   4.545 -2.8812 -0.5713 -2.2132
  146MOL   H15929449   6.970   6.904   4.455 -2.3760  0.0032 -0.1652
  146MOL   H16029450   6.818   7.150   4.644  2.4999  1.2800 -0.6236
  146MOL   H16129451   6.887   7.082   4.494  0.1949  0.1206 -0.5698
  146MOL   C16229452   6.885   6.726   4.546  0.4901  0.8311 -0.5553
  146MOL   C16329453   6.900   6.648   4.410 -0.4814 -0.3091  0.2009
  146MOL   C16429454   6.888   6.736   4.282  0.3815  0.7459 -0.1840
  146MOL   O16529455   6.780   6.783   4.243 -0.4478  0.0940  0.0241
  146MOL   N16629456   7.007   6.760   4.230 -0.0333 -0.5475 -0.0308
  146MOL   H16729457   6.780   6.750   4.562 -0.1130 -1.5361 -0.8071
  146MOL   H16829458   6.911   6.668   4.634  2.2694  2.5923  0.1192
  146MOL   H16929459   7.002   6.613   4.401  0.6194  3.2337 -2.0283
  146MOL   H17029460   7.091   6.726   4.273  0.1523  0.9509  0.8375
  146MOL   H17129461   7.017   6.828   4.156  0.1636 -0.6478 -0.0946
  146MOL   C17229462   6.799   6.526   4.399  1.1850  0.0034 -0.0085
  146MOL   C17329463   6.827   6.403   4.484 -0.6321  0.1659  0.7981
  146MOL   C17429464   6.970   6.354   4.448 -0.6618 -0.1934 -0.1890
  146MOL   O17529465   7.067   6.361   4.528 -0.5894 -0.4204  0.3575
  146MOL   N17629466   6.986   6.311   4.323  0.4108 -0.6317 -0.3984
  146MOL   H17729467   6.785   6.486   4.299  0.6959  2.6303 -1.0430
  146MOL   H17829468   6.706   6.565   4.438  0.4365  1.1766 -2.8163
  146MOL   H17929469   6.828   6.445   4.584 -0.2758  1.7020  0.1648
  146MOL   H18029470   6.909   6.304   4.257  0.8872 -0.4406 -0.9794
  146MOL   H18129471   7.070   6.267   4.291 -0.6734 -2.5281 -0.7146
  146MOL   C18229472   6.724   6.291   4.478 -0.0032 -0.5396 -0.0725
  146MOL   C18329473   6.575   6.328   4.526  0.1677 -0.2205 -0.2594
  146MOL   C18429474   6.582   6.376   4.673 -0.2410 -0.1755 -0.0514
  146MOL   O18529475   6.590   6.296   4.762 -0.3410  0.4355  0.0467
  146MOL   N18629476   6.558   6.504   4.694 -0.3622 -0.3117 -0.0652
  146MOL   H18729477   6.762   6.211   4.540  0.1610  1.2780  2.2485
  146MOL   H18829478   6.716   6.250   4.378 -0.0246  0.1206 -0.3469
  146MOL   H18929479   6.537   6.409   4.463  1.0133  0.3035 -0.1087
  146MOL   H19029480   6.561   6.547   4.785 -0.3415  0.4829 -0.4269
  146MOL   H19129481   6.528   6.560   4.615  0.0802  0.3395  0.2216
  146MOL   C19229482   6.472   6.209   4.501  0.1526  0.0191  0.2602
  146MOL   C19329483   6.378   6.226   4.374 -0.0914  0.7973  0.9823
  146MOL   C19429484   6.472   6.218   4.249 -0.1351  0.2563  0.6630
  146MOL   O19529485   6.479   6.303   4.163  0.4167 -0.3269 -0.2041
  146MOL   N19629486   6.546   6.109   4.237 -0.0492  0.1719 -0.0915
  146MOL   H19729487   6.411   6.207   4.592  0.9187 -1.1287  0.7586
  146MOL   H19829488   6.506   6.105   4.508 -0.8299 -0.3545 -0.3560
  146MOL   H19929489   6.317   6.135   4.382  0.0561  0.6765  0.7466
  146MOL   H20029490   6.531   6.039   4.308 -0.9192  0.8102  0.3784
  146MOL   H20129491   6.618   6.096   4.168 -0.3627 -1.9094 -0.0506
  146MOL   H20229492   6.322   6.318   4.387 -2.4679 -0.2821 -1.1622
  147MOL     C129493   3.414   0.032   1.984  0.1197 -0.3329 -0.6892
  147MOL     C229494   3.268   0.040   1.951 -0.3761  0.2655 -0.1850
  147MOL     C329495   3.244   0.143   1.843  0.3375 -0.5686 -0.0118
  147MOL     O429496   3.253   0.264   1.873 -0.0838  0.0070  0.9679
  147MOL     N529497   3.195   0.096   1.730  0.5999 -0.3391 -0.0019
  147MOL     H629498   3.435   7.640   2.079  1.5275  0.6900 -0.4563
  147MOL     H729499   3.472   7.639   1.905 -1.2422 -1.5526 -0.9481
  147MOL     H829500   3.245   7.598   1.909 -0.8240  0.7560 -1.0959
  147MOL     H929501   3.191   0.001   1.697 -0.9639  0.2513 -1.6290
  147MOL    H1029502   3.173   0.162   1.657  0.0917  0.2079  0.6480
  147MOL    H1129503   3.461   0.130   1.985  0.7694 -0.6469  1.3327
  147MOL    C1229504   3.185   0.053   2.085 -0.1278  0.3403  0.0236
  147MOL    C1329505   3.037   0.016   2.087 -0.1195  0.3087  0.1950
  147MOL    C1429506   2.953   0.136   2.037 -0.1232  0.5031 -0.7446
  147MOL    O1529507   2.982   0.246   2.080 -0.1344 -0.0541  0.4572
  147MOL    N1629508   2.864   0.129   1.939  0.0841 -0.1378  0.0159
  147MOL    H1729509   3.200   0.153   2.125 -0.0973  0.3402  0.0123
  147MOL    H1829510   3.232   7.646   2.159 -0.5125  0.0473  0.0164
  147MOL    H1929511   3.023   7.585   2.025 -2.5806 -0.7947  2.2061
  147MOL    H2029512   2.832   0.211   1.888 -1.5169 -1.1110 -0.5817
  147MOL    H2129513   2.853   0.038   1.898 -1.3414  0.2811 -0.5925
  147MOL    C2229514   2.996   7.640   2.241 -0.0332 -0.8584 -0.3707
  147MOL    C2329515   2.876   7.550   2.264 -0.3264  0.4910  0.1644
  147MOL    C2429516   2.755   7.632   2.241 -0.0407  0.4422  0.6396
  147MOL    O2529517   2.739   0.083   2.297 -0.8668 -0.1454  0.1475
  147MOL    N2629518   2.659   7.580   2.166 -0.2414  0.0622  0.1142
  147MOL    H2729519   2.987   0.076   2.296 -0.9309 -1.0463 -0.1873
  147MOL    H2829520   3.083   7.593   2.288  2.2115  2.5056 -1.0258
  147MOL    H2929521   2.886   7.455   2.212  1.1551 -0.8308  2.7585
  147MOL    H3029522   2.571   7.629   2.160 -0.3544 -0.2687 -0.9802
  147MOL    H3129523   2.668   7.486   2.130 -0.1669 -0.0952  0.5337
  147MOL    C3229524   2.872   7.506   2.411  0.5801  0.0466 -0.2520
  147MOL    C3329525   2.968   7.389   2.455  0.1506  1.0039 -0.2448
  147MOL    C3429526   2.925   7.254   2.388  0.3163  0.3123 -0.3246
  147MOL    O3529527   2.967   7.228   2.274 -0.6376 -0.3892  0.3669
  147MOL    N3629528   2.834   7.178   2.443 -0.1666  0.5567  0.5228
  147MOL    H3729529   2.774   7.463   2.429 -0.0017  2.0021  1.3461
  147MOL    H3829530   2.873   7.594   2.475 -0.6088  1.8710 -2.6466
  147MOL    H3929531   3.062   7.420   2.410 -0.5470  3.4278 -0.1362
  147MOL    H4029532   2.785   7.199   2.529  0.2223 -0.7195  1.0664
  147MOL    H4129533   2.792   7.106   2.385  2.6079 -0.3412 -0.4515
  147MOL    C4229534   2.991   7.378   2.608 -0.2467 -0.6691  0.2029
  147MOL    C4329535   3.027   7.506   2.690 -0.7822  0.2902 -0.1512
  147MOL    C4429536   3.153   7.575   2.643 -0.5707 -0.2065 -0.3976
  147MOL    O4529537   3.257   7.510   2.627  0.3113 -0.0328  0.9432
  147MOL    N4629538   3.134   0.041   2.593 -0.2558  0.2059  0.4744
  147MOL    H4729539   3.064   7.299   2.620 -0.8137 -1.0992  0.8328
  147MOL    H4829540   2.900   7.337   2.651 -0.7544  0.5418  0.3210
  147MOL    H4929541   2.942   7.573   2.673 -1.1959 -0.1498  0.1651
  147MOL    H5029542   3.215   0.090   2.558 -0.1221 -1.3514 -1.4857
  147MOL    H5129543   3.064   0.097   2.640 -0.1829 -0.8442  1.8474
  147MOL    C5229544   3.046   7.464   2.840  0.5657 -0.2908 -1.2266
  147MOL    C5329545   3.024   7.568   2.951  0.1662 -0.0518  0.6520
  147MOL    C5429546   2.953   0.041   2.905 -0.8598 -0.7638 -0.1534
  147MOL    O5529547   3.009   0.128   2.840  0.1371  0.0966 -0.4721
  147MOL    N5629548   2.825   0.054   2.936  0.5507 -0.4075  0.1049
  147MOL    H5729549   3.149   7.429   2.833  0.7275  0.5455 -3.7462
  147MOL    H5829550   2.988   7.374   2.859  1.7913 -0.6973  0.7269
  147MOL    H5929551   2.956   7.528   3.026  2.3326  1.0354  3.2894
  147MOL    H6029552   2.769   0.131   2.903 -0.0227 -1.9400 -2.6982
  147MOL    H6129553   2.774   7.633   2.976  1.6319 -1.9565 -1.4356
  147MOL    C6229554   3.164   7.593   3.026 -0.2081  0.1231 -0.0148
  147MOL    C6329555   3.178   7.514   3.159  0.6300 -0.3075  0.0087
  147MOL    C6429556   3.191   7.356   3.143  0.8876 -0.4421  0.6156
  147MOL    O6529557   3.102   7.283   3.094 -0.3049 -0.4376 -0.0578
  147MOL    N6629558   3.300   7.306   3.192 -0.1286  0.0662 -0.3063
  147MOL    H6729559   3.186   0.039   3.052  0.4026 -0.2961  1.1341
  147MOL    H6829560   3.250   7.558   2.969  0.8064 -0.3906  1.8022
  147MOL    H6929561   3.266   7.549   3.214  0.0215 -2.2734  2.3221
  147MOL    H7029562   3.361   7.355   3.256  0.5553 -0.1488 -0.7887
  147MOL    H7129563   3.315   7.207   3.180  1.0716  0.1946  0.0871
  147MOL    C7229564   3.058   7.544   3.259 -0.2319  0.4240  0.0029
  147MOL    C7329565   3.079   7.525   3.409 -0.9002  0.2540 -0.2747
  147MOL    C7429566   2.956   7.448   3.468  0.1119 -0.2674  0.2991
  147MOL    O7529567   2.845   7.499   3.481  0.2812 -0.1850  0.6708
  147MOL    N7629568   2.981   7.322   3.510  0.5837  0.5913 -0.0086
  147MOL    H7729569   2.980   7.475   3.227 -0.0247 -0.4424  1.3006
  147MOL    H7829570   3.009   7.641   3.249 -2.2794 -0.4646  1.1493
  147MOL    H7929571   3.169   7.466   3.425 -0.7428  0.2338 -1.2540
  147MOL    H8029572   3.072   7.278   3.505  0.2382  0.0837 -2.1585
  147MOL    H8129573   2.897   7.274   3.538  1.3839 -0.3977  0.7681
  147MOL    C8229574   3.086   0.008   3.481  0.5215 -0.1070  0.0551
  147MOL    C8329575   3.177   0.116   3.421  0.3623  0.0705 -0.2007
  147MOL    C8429576   3.318   0.096   3.474  0.1742  0.1216 -0.6674
  147MOL    O8529577   3.328   0.092   3.594 -0.4623  0.1704 -0.6162
  147MOL    N8629578   3.415   0.076   3.379 -0.3211 -0.2635 -0.1910
  147MOL    H8729579   3.109   7.649   3.586  2.9268  0.1237 -0.4076
  147MOL    H8829580   2.983   0.041   3.490  1.0022  1.0878  1.3803
  147MOL    H8929581   3.173   0.100   3.313  3.3393 -1.2211 -0.1795
  147MOL    H9029582   3.512   0.087   3.403 -0.2931 -0.8859 -0.0237
  147MOL    H9129583   3.380   0.074   3.285 -3.5874 -0.6916  0.9762
  147MOL    C9229584   3.120   0.253   3.457 -0.8212 -0.4689  0.4412
  147MOL    C9329585   3.059   0.333   3.344  0.0577 -0.2517  0.0456
  147MOL    C9429586   3.170   0.411   3.266  0.0888 -0.3137 -1.2026
  147MOL    O9529587   3.221   0.514   3.300 -0.3025 -0.1178 -0.1394
  147MOL    N9629588   3.189   0.373   3.139  0.6008  0.6193  0.3116
  147MOL    H9729589   3.189   0.309   3.519  1.3788 -2.4914 -0.1115
  147MOL    H9829590   3.035   0.239   3.524 -0.1603 -1.7042  1.0332
  147MOL    H9929591   3.011   0.263   3.276  0.7391 -0.9542  0.2799
  147MOL   H10029592   3.135   0.300   3.094  0.4578 -0.7656  2.6767
  147MOL   H10129593   3.260   0.421   3.085 -1.9371  3.9841 -0.1629
  147MOL   C10229594   2.954   0.431   3.396  0.2253  0.1151 -0.6058
  147MOL   C10329595   2.808   0.392   3.447 -0.0840  0.1401 -0.0378
  147MOL   C10429596   2.731   0.295   3.352 -0.1769 -0.2237 -0.2930
  147MOL   O10529597   2.708   0.324   3.241  0.3477  0.0538 -0.0865
  147MOL   N10629598   2.698   0.179   3.414  0.1494 -0.1138 -0.3502
  147MOL   H10729599   2.941   0.506   3.319  0.0203 -0.2398 -0.9235
  147MOL   H10829600   3.011   0.488   3.470 -0.3669  0.8437 -0.7092
  147MOL   H10929601   2.826   0.341   3.542 -0.6589  0.8694  0.4679
  147MOL   H11029602   2.640   0.110   3.368  2.3284 -1.4129 -1.2376
  147MOL   H11129603   2.730   0.169   3.509  0.2930  3.2842  0.0281
  147MOL   C11229604   2.728   0.519   3.462  0.0207 -0.9471  0.1293
  147MOL   C11329605   2.770   0.612   3.583  0.1627 -0.2415  0.7564
  147MOL   C11429606   2.757   0.538   3.713 -0.9376 -0.1672  0.1486
  147MOL   O11529607   2.647   0.515   3.763  0.0591  0.2543  0.6645
  147MOL   N11629608   2.858   0.483   3.780 -0.0212 -0.5298 -0.1686
  147MOL   H11729609   2.622   0.500   3.473 -0.6541  1.3423 -1.9370
  147MOL   H11829610   2.735   0.585   3.375 -3.0626 -0.9348 -0.1416
  147MOL   H11929611   2.876   0.637   3.576  1.1992 -4.2829  0.7729
  147MOL   H12029612   2.850   0.432   3.867 -0.5319 -0.2003 -0.0172
  147MOL   H12129613   2.951   0.490   3.743  0.3195 -1.2114  0.5515
  147MOL   C12229614   2.688   0.741   3.577 -0.0503 -0.2423 -0.7641
  147MOL   C12329615   2.763   0.866   3.532  0.1673  0.2225 -0.0735
  147MOL   C12429616   2.874   0.891   3.627  0.3241  0.4410 -0.4640
  147MOL   O12529617   2.846   0.907   3.744 -1.1052  0.0969 -0.4592
  147MOL   N12629618   2.998   0.881   3.584 -0.0521  0.2015 -0.1096
  147MOL   H12729619   2.663   0.763   3.681 -2.3244  0.2464 -1.4003
  147MOL   H12829620   2.591   0.732   3.529 -0.9216 -0.5252  1.0265
  147MOL   H12929621   2.801   0.842   3.432 -1.3753 -2.2127 -0.1381
  147MOL   H13029622   3.078   0.877   3.646 -0.7064 -0.7118  0.6906
  147MOL   H13129623   3.009   0.888   3.484  0.2254  2.4453  0.0506
  147MOL   C13229624   2.665   0.988   3.520  0.1710 -0.8664 -0.2275
  147MOL   C13329625   2.696   1.077   3.401 -0.2064 -0.2845 -0.3437
  147MOL   C13429626   2.843   1.140   3.404 -0.2236  0.2385 -0.2195
  147MOL   O13529627   2.936   1.088   3.344 -0.0156 -0.5765  0.6327
  147MOL   N13629628   2.860   1.252   3.472  0.1209  0.3294  0.5341
  147MOL   H13729629   2.647   1.032   3.618 -1.0316  2.2521 -1.7969
  147MOL   H13829630   2.567   0.942   3.502 -0.2777 -0.9478  2.2867
  147MOL   H13929631   2.688   1.006   3.319 -1.0841 -0.0901 -0.4270
  147MOL   H14029632   2.944   1.307   3.484  0.9601 -0.7874 -0.2431
  147MOL   H14129633   2.776   1.302   3.496 -1.1102 -1.0037 -0.9510
  147MOL   C14229634   2.584   1.178   3.368  0.3889  1.0958  0.4962
  147MOL   C14329635   2.579   1.220   3.216 -0.2305  0.0652  0.1929
  147MOL   C14429636   2.664   1.339   3.185  0.0224 -0.1730  0.1513
  147MOL   O14529637   2.670   1.426   3.274  0.3170 -0.0335 -0.0132
  147MOL   N14629638   2.742   1.328   3.081  0.5304  0.0602  0.6928
  147MOL   H14729639   2.588   1.261   3.439  0.3644  0.2180  1.5350
  147MOL   H14829640   2.490   1.125   3.383  1.3283 -0.6629  0.2111
  147MOL   H14929641   2.621   1.136   3.161  1.4368  0.0674  1.3970
  147MOL   H15029642   2.805   1.401   3.052 -1.2430  1.3687  0.0657
  147MOL   H15129643   2.737   1.247   3.021  0.1053  0.7582 -0.2404
  147MOL   C15229644   2.441   1.239   3.167 -0.3487  0.2880  0.0240
  147MOL   C15329645   2.343   1.110   3.166 -0.4751 -0.9790 -0.2040
  147MOL   C15429646   2.296   1.079   3.026 -0.0484  0.4318 -0.1657
  147MOL   O15529647   2.243   1.164   2.951  0.0878 -0.2647 -0.2135
  147MOL   N15629648   2.302   0.950   2.984  0.1532 -0.1766 -0.3683
  147MOL   H15729649   2.444   1.278   3.065 -0.8292  0.4081  0.0522
  147MOL   H15829650   2.396   1.325   3.215  1.5871  2.3121 -1.6546
  147MOL   H15929651   2.407   1.033   3.209 -0.5325 -0.9970 -0.1504
  147MOL   H16029652   2.342   0.875   3.039 -2.4443 -1.6385 -0.3555
  147MOL   H16129653   2.245   0.913   2.909  0.8162 -1.7586 -0.1177
  147MOL   C16229654   2.223   1.128   3.262  0.1065 -0.0089 -0.2015
  147MOL   C16329655   2.148   1.001   3.292  0.2477  0.4783 -0.5028
  147MOL   C16429656   2.015   1.003   3.220  0.0055  0.2030  0.4238
  147MOL   O16529657   1.936   1.095   3.239  0.1461  0.8576  0.2491
  147MOL   N16629658   1.984   0.909   3.138 -0.0576 -0.5154  0.0065
  147MOL   H16729659   2.151   1.206   3.236 -0.0059 -0.1779 -0.4025
  147MOL   H16829660   2.260   1.162   3.359  1.8481 -1.2027 -0.4255
  147MOL   H16929661   2.208   0.916   3.260 -1.4460 -0.9977  0.1328
  147MOL   H17029662   2.044   0.835   3.106 -0.5286 -0.4692 -1.0160
  147MOL   H17129663   1.888   0.902   3.105 -0.1146 -1.3476  0.3357
  147MOL   C17229664   2.130   0.986   3.443 -0.4341 -0.1381 -0.0912
  147MOL   C17329665   2.096   0.843   3.488  0.1190  0.1407  0.2103
  147MOL   C17429666   2.028   0.847   3.625 -0.0065 -0.3745  0.0785
  147MOL   O17529667   2.094   0.828   3.725 -0.4773 -0.2655  0.0653
  147MOL   N17629668   1.893   0.866   3.628  0.1026  0.1592 -0.2902
  147MOL   H17729669   2.047   1.052   3.469 -0.3769  0.2070 -0.7599
  147MOL   H17829670   2.212   1.032   3.497  1.9326 -1.1691 -2.6905
  147MOL   H17929671   2.021   0.808   3.416 -0.8911  2.2443  0.1869
  147MOL   H18029672   1.831   0.878   3.549 -0.4088  0.7460  0.1905
  147MOL   H18129673   1.850   0.870   3.720 -1.2482 -3.2422 -0.6820
  147MOL   C18229674   2.221   0.754   3.486 -0.4017  0.1257  0.1635
  147MOL   C18329675   2.193   0.607   3.546 -0.3033 -0.5232 -0.0204
  147MOL   C18429676   2.329   0.531   3.532  1.2063  0.5599 -0.1026
  147MOL   O18529677   2.387   0.523   3.425 -0.1163 -0.5473 -0.1317
  147MOL   N18629678   2.375   0.488   3.647 -0.0993 -0.2333 -0.1296
  147MOL   H18729679   2.299   0.804   3.542  0.2816 -0.7798  0.0249
  147MOL   H18829680   2.256   0.743   3.383 -1.4040  0.2353 -0.2030
  147MOL   H18929681   2.157   0.618   3.649  0.9279 -1.2858  0.4974
  147MOL   H19029682   2.320   0.494   3.731  0.2734 -1.0360  0.1768
  147MOL   H19129683   2.449   0.420   3.642  0.6896  0.7190 -2.1828
  147MOL   C19229684   2.089   0.521   3.471 -0.4901 -0.0640  0.6043
  147MOL   C19329685   2.075   0.371   3.516  0.1343  0.5508 -0.4658
  147MOL   C19429686   2.144   0.262   3.432 -0.0749  0.3999 -0.4234
  147MOL   O19529687   2.120   0.147   3.456 -1.0301  0.1668 -0.0376
  147MOL   N19629688   2.230   0.294   3.338 -0.2863  0.9403  0.5021
  147MOL   H19729689   2.100   0.520   3.363 -1.2128  1.0201  0.5122
  147MOL   H19829690   1.988   0.554   3.495 -1.5680 -1.9012 -1.2149
  147MOL   H19929691   2.105   0.351   3.619  0.3711 -0.9876 -0.8299
  147MOL   H20029692   2.257   0.388   3.313  1.7695 -0.1316 -1.5116
  147MOL   H20129693   2.257   0.220   3.274  1.4482  1.8180  0.1808
  147MOL   H20229694   1.972   0.338   3.519  1.0179 -2.2430  2.3929
  148MOL     C129695   5.153   1.778   7.506 -0.1619  0.1661 -0.5479
  148MOL     C229696   5.112   1.929   7.490 -0.5700 -0.3417  0.4215
  148MOL     C329697   4.967   1.949   7.536  0.6274 -0.1686  0.5307
  148MOL     O429698   4.875   1.877   7.492  0.5284  0.0081  0.7619
  148MOL     N529699   4.938   2.033   7.637  0.2097 -0.3860 -0.0598
  148MOL     H629700   5.256   1.749   7.485 -0.2468 -2.4717  2.3320
  148MOL     H729701   5.138   1.745   7.608  0.5971 -0.1948 -0.5457
  148MOL     H829702   5.182   1.980   7.555  0.2882 -1.0892  0.0867
  148MOL     H929703   4.846   2.053   0.017  0.5102 -0.3098  0.6710
  148MOL    H1029704   5.010   2.074   0.039  0.4376 -1.1963  0.2239
  148MOL    H1129705   5.101   1.708   7.440  2.0188 -0.2728 -1.8595
  148MOL    C1229706   5.139   1.982   7.353  0.4695  0.0972  0.0380
  148MOL    C1329707   5.289   2.011   7.321 -0.0652  0.6995  0.0448
  148MOL    C1429708   5.316   2.146   7.394  0.1794 -0.1365 -0.0011
  148MOL    O1529709   5.352   2.154   7.514  0.2578  0.1380  0.3078
  148MOL    N1629710   5.307   2.255   7.318 -0.3457 -0.7120 -0.0838
  148MOL    H1729711   5.065   2.054   7.319  1.4814  1.0913 -0.0631
  148MOL    H1829712   5.114   1.910   7.275  0.3074  0.4941 -0.2773
  148MOL    H1929713   5.355   1.959   7.391 -3.5152 -0.7090  2.3822
  148MOL    H2029714   5.323   2.342   7.367 -1.0351 -1.6718  1.9092
  148MOL    H2129715   5.307   2.255   7.217  1.7476 -0.3878 -0.0999
  148MOL    C2229716   5.334   2.006   7.171  0.5479  0.3402  1.4980
  148MOL    C2329717   5.484   2.034   7.141  0.2209 -0.2025 -0.2374
  148MOL    C2429718   5.508   2.018   6.989 -0.2304 -0.9524  0.0762
  148MOL    O2529719   5.520   1.911   6.931  0.4640  0.2700  0.6657
  148MOL    N2629720   5.532   2.134   6.924 -0.4359  0.0295 -0.1213
  148MOL    H2729721   5.268   2.065   7.107  0.4350 -1.8116 -0.4527
  148MOL    H2829722   5.308   1.907   7.134  0.1968  1.3215 -0.9877
  148MOL    H2929723   5.486   2.142   7.155 -1.2510 -0.3256  1.2134
  148MOL    H3029724   5.508   2.216   6.978 -0.7934 -0.3238  0.2585
  148MOL    H3129725   5.537   2.134   6.823  0.6503  2.4724 -0.0858
  148MOL    C3229726   5.587   1.963   7.230 -1.2894  0.6625  0.4089
  148MOL    C3329727   5.734   2.029   7.244 -0.2947 -0.1816  0.8438
  148MOL    C3429728   5.726   2.165   7.323  0.8156 -0.8214  0.9043
  148MOL    O3529729   5.659   2.257   7.273 -0.0677 -0.3065  0.4244
  148MOL    N3629730   5.788   2.163   7.439  0.6762 -0.0527 -0.2178
  148MOL    H3729731   5.616   1.870   7.182 -0.7078  0.3842  1.2898
  148MOL    H3829732   5.558   1.919   7.325  0.1827 -1.0818  0.0600
  148MOL    H3929733   5.799   1.968   7.306 -1.5401 -1.3971  0.9760
  148MOL    H4029734   5.768   2.241   7.499 -0.3026  0.5674 -1.3208
  148MOL    H4129735   5.855   2.092   7.465  3.2306  2.0025 -1.0520
  148MOL    C4229736   5.811   2.057   7.111 -0.5385  0.2255 -0.3107
  148MOL    C4329737   5.868   1.929   7.033  0.7566  0.4543  0.3419
  148MOL    C4429738   5.926   1.819   7.125  0.0536  0.1230  0.2127
  148MOL    O4529739   6.032   1.833   7.184  0.3157 -0.4259  0.4787
  148MOL    N4629740   5.867   1.700   7.140  0.3153  0.2225 -0.3121
  148MOL    H4729741   5.901   2.114   7.135  0.6788 -1.8689  0.3032
  148MOL    H4829742   5.760   2.125   7.043  2.4022  1.2047 -1.6483
  148MOL    H4929743   5.782   1.883   6.985  0.3066  2.5759 -0.9767
  148MOL    H5029744   5.915   1.620   7.177 -2.3387 -2.3864 -2.3296
  148MOL    H5129745   5.781   1.680   7.090  0.4563 -1.4329  0.1036
  148MOL    C5229746   5.970   1.990   6.923  0.0498 -0.3614  0.2298
  148MOL    C5329747   6.058   1.877   6.847 -0.4843  0.3053 -0.8914
  148MOL    C5429748   6.174   1.951   6.780 -0.1373 -0.4918  0.4630
  148MOL    O5529749   6.149   2.055   6.710 -0.7175 -0.0396 -0.4411
  148MOL    N5629750   6.300   1.912   6.807 -0.3601  0.6871  0.3513
  148MOL    H5729751   6.038   2.052   6.982  0.6992  0.9600 -1.8656
  148MOL    H5829752   5.920   2.051   6.848  0.8052  1.7678  1.4304
  148MOL    H5929753   6.094   1.804   6.920  0.0079  1.0191 -0.4100
  148MOL    H6029754   6.326   1.835   6.867  0.2976 -0.1919 -1.0362
  148MOL    H6129755   6.377   1.962   6.766  0.6452 -1.6289 -0.7003
  148MOL    C6229756   5.973   1.799   6.741 -0.2051  0.1820  0.1894
  148MOL    C6329757   5.910   1.669   6.797  0.0129 -0.4231  0.2595
  148MOL    C6429758   6.023   1.572   6.836 -0.1527 -0.3452  0.1579
  148MOL    O6529759   6.134   1.592   6.792 -0.0720 -0.3034 -0.2695
  148MOL    N6629760   5.987   1.481   6.928 -0.4169 -0.1542 -0.1316
  148MOL    H6729761   6.026   1.772   6.650 -0.6206  0.3496 -0.1061
  148MOL    H6829762   5.900   1.864   6.693 -0.4721  0.8171  1.4310
  148MOL    H6929763   5.871   1.707   6.891  0.0055  0.7575 -0.2146
  148MOL    H7029764   5.892   1.474   6.962 -0.1916 -2.2117  0.0931
  148MOL    H7129765   6.051   1.409   6.958 -0.8175  0.1346  1.4445
  148MOL    C7229766   5.812   1.603   6.703  0.1874  0.1982  0.7634
  148MOL    C7329767   5.666   1.614   6.743 -0.8417  0.0196  0.0717
  148MOL    C7429768   5.626   1.573   6.893  0.4620  0.0481  0.4538
  148MOL    O7529769   5.686   1.484   6.952 -0.3826  0.4735 -0.6091
  148MOL    N7629770   5.549   1.654   6.958 -0.2386  0.0778  0.3539
  148MOL    H7729771   5.833   1.496   6.697 -0.1222  0.2377 -1.7863
  148MOL    H7829772   5.814   1.644   6.602 -0.7492 -0.0507  0.6342
  148MOL    H7929773   5.637   1.719   6.737  1.6959  0.6635 -1.3090
  148MOL    H8029774   5.511   1.635   7.050 -0.4742 -0.9839  0.0464
  148MOL    H8129775   5.533   1.746   6.919  0.3330  0.9782  2.1798
  148MOL    C8229776   5.586   1.531   6.639 -0.9005  0.9105 -0.3754
  148MOL    C8329777   5.433   1.550   6.642  0.0945 -0.1150  0.2961
  148MOL    C8429778   5.357   1.428   6.588 -0.8761  0.7319 -0.2529
  148MOL    O8529779   5.390   1.316   6.630 -0.0234  0.4719  0.3373
  148MOL    N8629780   5.277   1.434   6.484  0.2082  0.6456 -0.0440
  148MOL    H8729781   5.608   1.425   6.638 -0.3921  0.9822  1.8391
  148MOL    H8829782   5.610   1.551   6.534 -1.0520 -1.7201 -0.9294
  148MOL    H8929783   5.407   1.545   6.748 -1.4706  0.4659 -0.0537
  148MOL    H9029784   5.246   1.521   6.442 -0.5131  0.2666 -0.2981
  148MOL    H9129785   5.232   1.347   6.461  1.9956 -0.5785  0.9386
  148MOL    C9229786   5.399   1.689   6.587  0.2533  0.3457  0.5206
  148MOL    C9329787   5.272   1.763   6.644  0.2646 -0.2208 -0.4397
  148MOL    C9429788   5.140   1.701   6.596  0.0085  0.0841  0.5786
  148MOL    O9529789   5.080   1.739   6.498  0.0751  0.6518 -0.0450
  148MOL    N9629790   5.094   1.605   6.671  0.2205 -0.5086  0.2508
  148MOL    H9729791   5.393   1.677   6.479 -0.1217  3.6941  0.1138
  148MOL    H9829792   5.483   1.759   6.585  0.1793  0.3970 -1.5736
  148MOL    H9929793   5.272   1.761   6.753 -1.0392  0.7556 -0.4095
  148MOL   H10029794   5.011   1.550   6.650  0.5504 -0.7723 -0.3622
  148MOL   H10129795   5.138   1.580   6.758 -0.4121 -1.7527  0.2313
  148MOL   C10229796   5.288   1.912   6.598 -0.1962  0.0619  0.2714
  148MOL   C10329797   5.184   2.014   6.641  0.4546 -0.1740 -0.2720
  148MOL   C10429798   5.233   2.153   6.623 -0.5015  0.5087  0.4125
  148MOL   O10529799   5.300   2.209   6.706  0.2856 -0.0151 -0.6908
  148MOL   N10629800   5.199   2.210   6.508 -0.1099  0.7913  0.0711
  148MOL   H10729801   5.297   1.922   6.490 -2.2191  1.3711  0.1907
  148MOL   H10829802   5.382   1.948   6.640 -0.5009  0.4106  0.6671
  148MOL   H10929803   5.104   1.991   6.571 -0.0015  0.9655 -0.1281
  148MOL   H11029804   5.141   2.167   6.437  0.5459  0.6853 -0.4028
  148MOL   H11129805   5.232   2.302   6.482 -0.8203  0.8393 -0.6712
  148MOL   C11229806   5.128   2.005   6.789  0.4507  0.0740 -0.0283
  148MOL   C11329807   4.987   1.951   6.804  0.2850  0.1922 -0.6020
  148MOL   C11429808   4.874   2.024   6.735 -0.9402 -0.0025  0.3982
  148MOL   O11529809   4.811   2.112   6.794 -0.3243 -0.3480  0.2661
  148MOL   N11629810   4.857   2.008   6.600 -0.1830  0.5813 -0.7218
  148MOL   H11729811   5.108   2.096   6.847 -1.4606 -1.2296  1.4041
  148MOL   H11829812   5.198   1.956   6.856  0.0069  0.7108  0.9157
  148MOL   H11929813   4.982   1.849   6.766 -0.0632 -0.1911  0.4571
  148MOL   H12029814   4.811   2.080   6.547 -1.6167  1.1414  1.2143
  148MOL   H12129815   4.903   1.925   6.564 -1.7727 -0.7522  0.2829
  148MOL   C12229816   4.949   1.936   6.954  0.2083  0.4148  0.4676
  148MOL   C12329817   4.811   1.879   6.992 -0.0857  0.0968  0.6625
  148MOL   C12429818   4.773   1.901   7.143  0.6127  0.2543 -0.5991
  148MOL   O12529819   4.777   2.020   7.191  0.1799  0.0757 -0.8094
  148MOL   N12629820   4.724   1.799   7.215  0.2207 -0.1925  0.3783
  148MOL   H12729821   4.959   2.033   7.004  2.7297 -0.0730  1.0114
  148MOL   H12829822   5.022   1.866   6.996 -1.0346 -2.4632 -2.0313
  148MOL   H12929823   4.734   1.942   6.949 -0.9460 -1.4012 -0.0564
  148MOL   H13029824   4.714   1.707   7.175  0.6427 -0.2798  0.4791
  148MOL   H13129825   4.684   1.813   7.307  0.0205 -0.8705  0.3972
  148MOL   C13229826   4.781   1.742   6.942  0.1164 -0.3536  0.1655
  148MOL   C13329827   4.654   1.732   6.858  0.5457  0.5383 -0.5915
  148MOL   C13429828   4.530   1.724   6.951 -0.4969 -0.7312  0.1061
  148MOL   O13529829   4.513   1.632   7.028 -0.4847  0.5736 -0.8360
  148MOL   N13629830   4.458   1.841   6.941  0.0162 -0.8395 -0.3490
  148MOL   H13729831   4.784   1.667   7.022 -0.5809 -0.3095  0.2313
  148MOL   H13829832   4.868   1.715   6.883  0.1787 -0.6934  0.4085
  148MOL   H13929833   4.641   1.820   6.794  0.2509 -1.0733 -2.7904
  148MOL   H14029834   4.385   1.851   7.010  0.3144 -1.7894  0.1104
  148MOL   H14129835   4.477   1.920   6.880 -1.2372  1.1600  1.7350
  148MOL   C14229836   4.659   1.614   6.762  0.8864 -0.4210  0.8908
  148MOL   C14329837   4.556   1.607   6.643 -0.2121  0.0032 -0.4765
  148MOL   C14429838   4.431   1.521   6.684 -0.2493 -0.1393  0.2525
  148MOL   O14529839   4.441   1.403   6.705 -0.2431 -0.2487 -0.4630
  148MOL   N14629840   4.318   1.585   6.714  1.0431  0.3182  0.0618
  148MOL   H14729841   4.668   1.519   6.813  2.3938 -0.6613  0.1889
  148MOL   H14829842   4.760   1.626   6.723  0.5670  0.9758  0.4598
  148MOL   H14929843   4.528   1.710   6.622  0.9267  0.1617 -1.2968
  148MOL   H15029844   4.228   1.539   6.725  1.8568 -1.3210  0.0129
  148MOL   H15129845   4.321   1.686   6.711  4.8525  0.3383  2.3638
  148MOL   C15229846   4.622   1.533   6.521 -0.4450 -0.0057 -0.4978
  148MOL   C15329847   4.543   1.522   6.388  0.4015  0.5577  0.0109
  148MOL   C15429848   4.611   1.426   6.289 -0.9930 -0.4288 -0.8316
  148MOL   O15529849   4.737   1.429   6.276 -0.2365  0.7133 -0.6680
  148MOL   N15629850   4.541   1.347   6.221  0.5473 -0.2364  0.4083
  148MOL   H15729851   4.656   1.437   6.557  0.0716  1.6472  3.7062
  148MOL   H15829852   4.718   1.581   6.507 -0.2016 -0.5658 -0.7583
  148MOL   H15929853   4.449   1.473   6.411  0.2612  1.1316  0.6783
  148MOL   H16029854   4.441   1.346   6.229  0.5852  0.1010  0.9195
  148MOL   H16129855   4.578   1.298   6.140  1.5021 -1.5402  1.6248
  148MOL   C16229856   4.534   1.663   6.330 -0.2744  0.2515  0.5142
  148MOL   C16329857   4.396   1.696   6.264  0.1775  0.7962 -0.6960
  148MOL   C16429858   4.353   1.610   6.146  0.1837  0.2251  0.2545
  148MOL   O16529859   4.243   1.557   6.141 -0.2884 -0.3854 -0.1117
  148MOL   N16629860   4.428   1.598   6.037 -0.0384 -0.1130  0.3665
  148MOL   H16729861   4.612   1.688   6.257  1.0637 -0.0422  1.8294
  148MOL   H16829862   4.562   1.729   6.412  1.3898  2.3011 -1.6005
  148MOL   H16929863   4.319   1.675   6.338  1.5408 -2.1261 -0.0588
  148MOL   H17029864   4.402   1.541   5.958  0.0106  1.0390 -0.4920
  148MOL   H17129865   4.508   1.660   6.027 -0.1617 -0.2070 -1.3363
  148MOL   C17229866   4.382   1.842   6.220  0.2851  0.1724 -0.2097
  148MOL   C17329867   4.253   1.914   6.170  0.1474 -0.3183  0.5694
  148MOL   C17429868   4.287   2.055   6.117  0.0718  0.1798 -0.3027
  148MOL   O17529869   4.349   2.137   6.186  0.2754  0.7556 -0.0969
  148MOL   N17629870   4.235   2.089   5.996  0.3794  0.3834  0.4110
  148MOL   H17729871   4.451   1.861   6.138 -0.0803  1.3644 -0.2542
  148MOL   H17829872   4.428   1.904   6.298  0.2840 -0.3482  0.2043
  148MOL   H17929873   4.220   1.852   6.087 -0.4461  1.0700 -0.2418
  148MOL   H18029874   4.254   2.183   5.966  0.4813  0.2509  0.0649
  148MOL   H18129875   4.182   2.022   5.941  0.6164  0.2986  0.2873
  148MOL   C18229876   4.154   1.924   6.287  0.4937  1.0377  0.5228
  148MOL   C18329877   4.055   1.809   6.302 -0.5827  0.1593  0.6674
  148MOL   C18429878   3.930   1.833   6.215 -0.0767 -0.3807 -0.9141
  148MOL   O18529879   3.846   1.912   6.256  0.4332  0.0372 -0.0001
  148MOL   N18629880   3.935   1.770   6.100 -0.0419 -0.0880 -0.3898
  148MOL   H18729881   4.094   2.013   6.269 -0.2049  0.1364 -1.7955
  148MOL   H18829882   4.208   1.938   6.380 -1.2654 -0.1994  1.7665
  148MOL   H18929883   4.114   1.726   6.263  2.0124  2.5716 -0.7010
  148MOL   H19029884   4.014   1.708   6.086  0.3944  0.3611  0.0441
  148MOL   H19129885   3.874   1.789   6.022  1.4511  1.3709 -1.2546
  148MOL   C19229886   4.022   1.785   6.447  0.0295 -1.4710 -0.0627
  148MOL   C19329887   3.935   1.659   6.467  0.4054  0.6291 -0.4466
  148MOL   C19429888   4.015   1.528   6.458  0.2376 -0.1022 -0.4468
  148MOL   O19529889   4.109   1.503   6.532 -0.2095 -0.4974 -0.5137
  148MOL   N19629890   3.986   1.441   6.362  0.4117  0.5873 -0.0924
  148MOL   H19729891   3.970   1.868   6.494  1.3411 -1.0286  0.6316
  148MOL   H19829892   4.113   1.777   6.506 -0.7679  1.0438  1.5756
  148MOL   H19929893   3.899   1.671   6.569  1.3766 -0.8608  0.0933
  148MOL   H20029894   4.002   1.345   6.388  0.9395  1.0689  1.4244
  148MOL   H20129895   3.913   1.463   6.296 -0.1590  0.4233  0.4758
  148MOL   H20229896   3.849   1.646   6.401  0.6271 -1.8844 -0.2801
  149MOL     C129897   1.106   5.140   7.394  0.2465 -0.4329  0.5487
  149MOL     C229898   1.059   5.037   7.495 -0.4088  0.1066  0.0730
  149MOL     C329899   0.953   5.108   7.582  0.2111  0.7500 -0.4760
  149MOL     O429900   0.977   5.219   7.639  0.2936 -0.4808 -0.1769
  149MOL     N529901   0.836   5.055   7.598 -0.3940 -0.5402  0.4655
  149MOL     H629902   1.034   5.178   7.321  0.5016 -1.6067 -0.3388
  149MOL     H729903   1.142   5.234   7.435  0.4789 -0.1152 -0.3747
  149MOL     H829904   1.005   4.960   7.440 -0.2370 -0.2500  0.4066
  149MOL     H929905   0.754   5.096   7.642  1.4671  2.1958  1.5167
  149MOL    H1029906   0.831   4.956   7.576 -0.4024 -0.3463 -0.4138
  149MOL    H1129907   1.179   5.082   7.336  0.1598 -0.8484  0.8499
  149MOL    C1229908   1.167   4.964   7.576 -0.0998 -1.0069 -0.8212
  149MOL    C1329909   1.247   5.043   0.027  0.0344 -0.1213 -0.7722
  149MOL    C1429910   1.335   5.158   7.621  0.3744 -0.1660  0.2221
  149MOL    O1529911   1.297   5.279   7.614 -0.0013  0.0757 -0.0341
  149MOL    N1629912   1.456   5.130   7.572 -0.4369  0.2248 -0.2484
  149MOL    H1729913   1.244   4.932   7.505 -0.2386  1.1522 -2.0085
  149MOL    H1829914   1.123   4.874   7.618 -0.3115 -1.8321 -2.7442
  149MOL    H1929915   1.175   5.102   0.083 -0.4323 -0.5184 -0.9471
  149MOL    H2029916   1.509   5.044   7.580  0.4251  0.6290 -1.4212
  149MOL    H2129917   1.497   5.208   7.524  0.3026  0.1798  0.2993
  149MOL    C2229918   1.334   4.956   0.115  0.0879  0.4637 -0.0845
  149MOL    C2329919   1.267   4.855   0.210 -0.2888 -0.8162  0.0546
  149MOL    C2429920   1.148   4.919   0.279  0.0433  0.5446 -0.5547
  149MOL    O2529921   1.038   4.861   0.295  0.3949  0.1494  0.2535
  149MOL    N2629922   1.170   5.044   0.326 -0.2044 -0.1070 -0.2182
  149MOL    H2729923   1.416   5.015   0.156 -0.1010  1.2380 -0.8139
  149MOL    H2829924   1.387   4.899   0.038 -0.9030 -0.3872 -0.1443
  149MOL    H2929925   1.205   4.781   0.159 -0.2170 -1.2231  0.5589
  149MOL    H3029926   1.089   5.092   0.363  0.0582  0.2270 -0.0710
  149MOL    H3129927   1.252   5.098   0.301 -0.4663  0.3486 -0.0964
  149MOL    C3229928   1.355   4.788   0.312  0.0213 -0.4106 -0.0488
  149MOL    C3329929   1.424   4.670   0.244  0.5337  0.0353  0.0300
  149MOL    C3429930   1.325   4.565   0.201 -0.4240  0.4526 -0.3709
  149MOL    O3529931   1.250   4.518   0.285 -0.2744 -0.1619  0.1047
  149MOL    N3629932   1.307   4.529   0.076 -0.4642 -0.2694 -0.0536
  149MOL    H3729933   1.311   4.775   0.410  2.5145  0.2900  1.2066
  149MOL    H3829934   1.435   4.857   0.340  0.5968  0.0524 -2.6762
  149MOL    H3929935   1.462   4.711   0.150 -3.5317  1.8459 -0.9443
  149MOL    H4029936   1.359   4.560   7.652 -0.6799  1.1412  0.3467
  149MOL    H4129937   1.229   4.472   0.047 -2.8053  2.7540  0.0633
  149MOL    C4229938   1.534   4.618   0.345  0.2023 -0.1414  0.2636
  149MOL    C4329939   1.685   4.643   0.310  1.0140 -0.3349  0.1915
  149MOL    C4429940   1.729   4.787   0.327 -1.3033  0.0650  0.4971
  149MOL    O4529941   1.685   4.878   0.254  0.2284  0.4813  0.4056
  149MOL    N4629942   1.821   4.810   0.418  0.2105  0.3751  0.0596
  149MOL    H4729943   1.517   4.511   0.339 -0.3588 -0.0987  1.0725
  149MOL    H4829944   1.519   4.650   0.448 -3.1736 -3.5173  0.9167
  149MOL    H4929945   1.748   4.580   0.373  1.9604 -1.3327 -1.6806
  149MOL    H5029946   1.838   4.746   0.495  3.5083  2.4199  1.1315
  149MOL    H5129947   1.868   4.899   0.422 -1.3043  1.2707 -1.4475
  149MOL    C5229948   1.719   4.598   0.166 -0.1885 -0.4486 -0.1562
  149MOL    C5329949   1.724   4.438   0.160  0.6637  0.3368 -0.3335
  149MOL    C5429950   1.875   4.400   0.161  0.1758  0.3786 -1.3549
  149MOL    O5529951   1.926   4.345   0.066  0.1952  0.4214 -0.0734
  149MOL    N5629952   1.947   4.431   0.270  0.7085  0.3591 -0.5957
  149MOL    H5729953   1.817   4.643   0.153 -1.8943  3.3364 -0.6414
  149MOL    H5829954   1.668   4.648   0.083 -0.7338 -0.2925  0.2692
  149MOL    H5929955   1.666   4.391   0.239 -0.7552  0.8983 -1.0282
  149MOL    H6029956   1.897   4.465   0.351  0.6974  1.8153 -1.2040
  149MOL    H6129957   2.047   4.419   0.276  0.7186  0.2536 -0.9741
  149MOL    C6229958   1.656   4.381   0.032 -0.9310  0.3644  0.5657
  149MOL    C6329959   1.645   4.230   0.010 -0.0726  0.1183  0.0769
  149MOL    C6429960   1.583   4.182   7.532  0.2407  0.2603  0.6256
  149MOL    O6529961   1.543   4.266   7.453  0.1960 -0.8068 -0.2110
  149MOL    N6629962   1.577   4.055   7.516  0.6575  0.8476  0.0658
  149MOL    H6729963   1.683   4.443   7.603  0.2289  0.3981  0.9432
  149MOL    H6829964   1.551   4.410   0.038 -1.3124 -0.6239 -1.0078
  149MOL    H6929965   1.746   4.192   7.654  0.2804  1.4677 -1.3179
  149MOL    H7029966   1.550   4.022   7.424 -2.8567 -0.2974  1.4648
  149MOL    H7129967   1.605   3.981   7.578 -0.4043 -0.0615 -0.5354
  149MOL    C7229968   1.578   4.163   0.131  0.5871 -0.7860 -0.2707
  149MOL    C7329969   1.665   4.084   0.223 -0.2092  0.7053  0.7841
  149MOL    C7429970   1.706   3.944   0.171  0.4063 -0.1226  0.5258
  149MOL    O7529971   1.647   3.873   0.089 -0.1151  0.3595  0.2666
  149MOL    N7629972   1.818   3.905   0.231  0.4896  0.1067  0.2878
  149MOL    H7729973   1.498   4.097   0.097 -0.9431  2.5798 -3.5183
  149MOL    H7829974   1.529   4.234   0.197  0.0390 -3.0763  1.8853
  149MOL    H7929975   1.759   4.139   0.233  2.1784 -2.2943 -3.4354
  149MOL    H8029976   1.854   3.812   0.213  1.9236  0.3179  1.8839
  149MOL    H8129977   1.863   3.971   0.293  1.8959 -0.7127  0.1756
  149MOL    C8229978   1.605   4.073   0.360 -0.4430  0.7964  0.0783
  149MOL    C8329979   1.661   4.169   0.473  0.0764  0.1349  0.2839
  149MOL    C8429980   1.813   4.166   0.489  0.0694 -0.2937  0.2307
  149MOL    O8529981   1.888   4.089   0.429 -0.3222 -0.2223  0.6483
  149MOL    N8629982   1.872   4.256   0.559 -0.0180  0.3946  0.3012
  149MOL    H8729983   1.626   3.973   0.397  1.1181  0.4332 -1.6578
  149MOL    H8829984   1.496   4.066   0.358 -0.3079 -1.7187 -0.5208
  149MOL    H8929985   1.634   4.270   0.441 -2.5105 -0.0754  1.6354
  149MOL    H9029986   1.821   4.309   0.628  1.4481  1.0987  0.8712
  149MOL    H9129987   1.973   4.249   0.567 -0.0185 -2.6382 -1.3848
  149MOL    C9229988   1.586   4.144   0.610  0.5955  0.2436 -0.7872
  149MOL    C9329989   1.434   4.153   0.598 -0.1469 -0.3818  0.0500
  149MOL    C9429990   1.396   4.295   0.552 -0.4700 -0.7545  0.1423
  149MOL    O9529991   1.438   4.398   0.614 -0.0859  0.0902 -0.1508
  149MOL    N9629992   1.319   4.303   0.440 -0.4670  0.2396  0.4503
  149MOL    H9729993   1.620   4.222   0.678 -0.1083 -0.5197  0.4651
  149MOL    H9829994   1.611   4.046   0.650 -1.6024  0.4627  1.2730
  149MOL    H9929995   1.391   4.084   0.525 -0.6399 -0.6908  0.6212
  149MOL   H10029996   1.276   4.217   0.410 -0.6489  0.6961 -0.6561
  149MOL   H10129997   1.288   4.385   0.389  0.5917  1.0670  1.1133
  149MOL   C10229998   1.361   4.101   0.726 -0.0239 -0.4484  0.0064
  149MOL   C10329999   1.370   3.949   0.767  0.1506  0.1505  0.0567
  149MOL   C10430000   1.317   3.847   0.663  0.0529 -0.1638 -0.1630
  149MOL   O10530001   1.199   3.842   0.638  0.0349  0.2982  0.5519
  149MOL   N10630002   1.400   3.770   0.596  0.3695 -0.3894  0.5823
  149MOL   H10730003   1.255   4.115   0.702 -0.1630  0.6131  1.2331
  149MOL   H10830004   1.387   4.155   0.816  0.1160 -1.2036  0.4255
  149MOL   H10930005   1.477   3.931   0.770  0.3314  0.5536 -2.5568
  149MOL   H11030006   1.362   3.739   0.508 -2.8818  1.9507  1.1057
  149MOL   H11130007   1.500   3.786   0.593  0.7475 -2.5905  0.0887
  149MOL   C11230008   1.296   3.934   0.910 -0.3867  0.1793  0.3882
  149MOL   C11330009   1.390   3.941   1.033 -0.8787  0.1093  0.1040
  149MOL   C11430010   1.313   3.955   1.166 -0.1743  1.2092  0.2387
  149MOL   O11530011   1.303   4.058   1.235  0.3941  0.0425 -0.4058
  149MOL   N11630012   1.247   3.844   1.206  0.1530 -0.3859  0.3535
  149MOL   H11730013   1.256   3.832   0.907  1.9953 -0.8061  0.8492
  149MOL   H11830014   1.212   4.002   0.920  0.2873  0.7572  2.3532
  149MOL   H11930015   1.432   3.840   1.037  1.6108  1.1045 -0.0085
  149MOL   H12030016   1.195   3.838   1.292  0.9786  0.4829  0.9279
  149MOL   H12130017   1.234   3.771   1.137  0.0470 -2.2649  2.3175
  149MOL   C12230018   1.505   4.044   1.024 -0.1354 -0.0073  0.0153
  149MOL   C12330019   1.603   4.083   1.144  0.1277  0.7822  0.5768
  149MOL   C12430020   1.674   4.216   1.110 -0.1044 -0.4414  1.4299
  149MOL   O12530021   1.701   4.260   0.994  0.3069  0.9374 -0.1185
  149MOL   N12630022   1.722   4.281   1.210  0.3679 -0.3670  0.0014
  149MOL   H12730023   1.461   4.139   0.994 -2.5551 -0.3194  2.4554
  149MOL   H12830024   1.572   4.014   0.943 -0.1390  1.7842 -0.6908
  149MOL   H12930025   1.544   4.107   1.232  0.0402  0.7471  0.5280
  149MOL   H13030026   1.780   4.358   1.180  0.6842 -0.9157 -0.8100
  149MOL   H13130027   1.717   4.253   1.307  0.2388  1.2477  0.4704
  149MOL   C13230028   1.703   3.964   1.167 -0.3758 -0.1587 -1.1794
  149MOL   C13330029   1.657   3.859   1.277  0.6497 -0.0004 -0.4537
  149MOL   C13430030   1.651   3.922   1.418 -0.1474 -0.3543  0.1177
  149MOL   O13530031   1.686   4.037   1.442  0.1675 -0.2501  0.4809
  149MOL   N13630032   1.591   3.848   1.509  0.0184 -0.6054 -0.5374
  149MOL   H13730033   1.799   3.999   1.206 -0.5738  0.8355 -1.5689
  149MOL   H13830034   1.727   3.918   1.071 -0.9831  3.4920 -3.1812
  149MOL   H13930035   1.557   3.823   1.254  0.5413 -0.1789  0.2819
  149MOL   H14030036   1.558   3.756   1.483 -0.9589  0.0230 -1.5630
  149MOL   H14130037   1.595   3.867   1.608  2.5697 -0.5505 -0.6206
  149MOL   C14230038   1.763   3.744   1.272  0.8421 -0.5520  0.0834
  149MOL   C14330039   1.724   3.599   1.287  0.2742  0.2991 -0.5245
  149MOL   C14430040   1.593   3.568   1.372  0.8475 -0.1729  0.5724
  149MOL   O14530041   1.595   3.572   1.491 -0.0064  0.3659 -0.3827
  149MOL   N14630042   1.484   3.538   1.307 -0.4646  0.0661 -0.2517
  149MOL   H14730043   1.840   3.774   1.343 -0.1819  1.5386  0.3356
  149MOL   H14830044   1.819   3.747   1.178  1.5245 -2.2091  0.4154
  149MOL   H14930045   1.690   3.569   1.188  3.1781 -3.1736 -0.5919
  149MOL   H15030046   1.398   3.522   1.358 -1.6849  0.9198 -2.0057
  149MOL   H15130047   1.482   3.540   1.206 -0.2021  1.2304 -0.2368
  149MOL   C15230048   1.839   3.493   1.302 -0.0258 -0.1593  0.7005
  149MOL   C15330049   1.870   3.436   1.441 -0.2939  0.0763 -0.0575
  149MOL   C15430050   1.940   3.553   1.517  0.2650 -0.8715 -0.4814
  149MOL   O15530051   2.061   3.572   1.513  0.4218 -0.4591 -0.3091
  149MOL   N15630052   1.860   3.626   1.593 -0.3473 -0.6617  0.1884
  149MOL   H15730053   1.931   3.529   1.257  0.2628 -0.6416  0.9063
  149MOL   H15830054   1.812   3.408   1.239 -1.2085  0.7799 -0.0953
  149MOL   H15930055   1.780   3.403   1.494  1.0080 -2.6676  0.5455
  149MOL   H16030056   1.762   3.604   1.591 -0.7220  0.4010  3.5224
  149MOL   H16130057   1.898   3.709   1.636  2.0651  0.0011 -3.0319
  149MOL   C16230058   1.968   3.316   1.448 -0.7009 -0.1560 -0.3182
  149MOL   C16330059   1.918   3.184   1.377  0.4951 -0.7068 -0.5965
  149MOL   C16430060   1.773   3.152   1.424  0.1977  0.4269 -0.0356
  149MOL   O16530061   1.745   3.098   1.531  0.2308 -0.0912  0.5587
  149MOL   N16630062   1.674   3.167   1.334 -0.1157  0.0784 -0.2365
  149MOL   H16730063   2.000   3.289   1.549  2.1300  1.4034 -0.7556
  149MOL   H16830064   2.058   3.359   1.404  0.1315 -2.8552 -1.3481
  149MOL   H16930065   1.910   3.196   1.269  2.2251  2.3428 -0.4322
  149MOL   H17030066   1.577   3.142   1.350  0.0648 -0.1012  0.6031
  149MOL   H17130067   1.683   3.189   1.236 -1.4117 -0.7318 -0.5467
  149MOL   C17230068   2.015   3.067   1.386 -0.0117 -0.3857 -0.6157
  149MOL   C17330069   2.134   3.069   1.281  0.4867  0.9436  0.3790
  149MOL   C17430070   2.084   3.010   1.149 -0.2031 -0.2164  0.3602
  149MOL   O17530071   2.056   2.893   1.134 -0.2074  0.4941  0.0223
  149MOL   N17630072   2.085   3.091   1.046  0.1133  0.3245 -0.3748
  149MOL   H17730073   1.963   2.971   1.377  1.1908 -1.4028  2.5926
  149MOL   H17830074   2.057   3.055   1.486 -1.6496 -1.7963 -0.0790
  149MOL   H17930075   2.162   3.174   1.269 -0.1485  1.0043 -0.6479
  149MOL   H18030076   2.110   3.189   1.050 -0.2641  0.4261 -0.5011
  149MOL   H18130077   2.062   3.046   0.958 -3.5556  0.2422  0.5594
  149MOL   C18230078   2.260   2.990   1.322  0.0648  0.7938  0.0458
  149MOL   C18330079   2.369   3.075   1.392  0.3242  0.4913 -0.1337
  149MOL   C18430080   2.506   3.000   1.382 -0.3455  0.1277 -0.2656
  149MOL   O18530081   2.611   3.060   1.359 -0.1227  0.4452 -0.0414
  149MOL   N18630082   2.509   2.867   1.406 -0.4082  0.2807  0.3109
  149MOL   H18730083   2.298   2.939   1.234  3.3297  1.9357  0.7533
  149MOL   H18830084   2.232   2.909   1.389  1.0320  0.3106 -0.1283
  149MOL   H18930085   2.383   3.172   1.343  1.4071  1.4309  1.9578
  149MOL   H19030086   2.425   2.813   1.426 -1.1548 -0.0872 -3.5116
  149MOL   H19130087   2.593   2.811   1.406 -0.6790 -0.1375 -1.0203
  149MOL   C19230088   2.342   3.100   1.545 -0.2365  0.6977  0.2709
  149MOL   C19330089   2.300   3.242   1.590 -0.3831  0.0584 -0.4239
  149MOL   C19430090   2.413   3.344   1.577  0.5762  0.1436  0.8217
  149MOL   O19530091   2.517   3.336   1.638  0.1162  0.1066  0.1911
  149MOL   N19630092   2.393   3.438   1.493 -1.0627  0.4639  0.0577
  149MOL   H19730093   2.425   3.074   1.611  0.5643  0.2513 -0.9052
  149MOL   H19830094   2.270   3.027   1.581  1.2518  0.2950  2.5406
  149MOL   H19930095   2.210   3.267   1.535 -1.3440  1.7641  1.8203
  149MOL   H20030096   2.453   3.520   1.500  1.4372 -1.3407  0.4082
  149MOL   H20130097   2.308   3.438   1.439  0.3293  2.0168 -2.2643
  149MOL   H20230098   2.274   3.244   1.696 -1.8210  1.4957 -0.7980
  150MOL     C130099   6.424   0.509   2.625  0.2443 -0.6987 -0.9847
  150MOL     C230100   6.326   0.502   2.502  0.9769  1.1314 -0.3401
  150MOL     C330101   6.389   0.499   2.359  0.7048 -1.0333  0.7398
  150MOL     O430102   6.307   0.476   2.272 -0.6969 -0.7337  0.6815
  150MOL     N530103   6.519   0.523   2.347  0.5189  0.0621 -0.5466
  150MOL     H630104   6.512   0.447   2.607  0.0857 -1.6620  1.4253
  150MOL     H730105   6.461   0.610   2.646  2.2581 -1.0065 -2.8347
  150MOL     H830106   6.290   0.400   2.515  1.2311  1.1047  0.1565
  150MOL     H930107   6.566   0.511   2.259 -0.7949  0.8486 -1.3595
  150MOL    H1030108   6.577   0.539   2.428 -1.9454 -2.3911  1.8555
  150MOL    H1130109   6.384   0.462   2.714  1.5515  0.0181  0.0033
  150MOL    C1230110   6.215   0.608   2.517  0.8184  0.4023  0.3457
  150MOL    C1330111   6.134   0.615   2.651 -1.2423  0.1051 -0.0521
  150MOL    C1430112   6.069   0.479   2.690  0.2896 -0.2912 -0.3994
  150MOL    O1530113   6.001   0.421   2.608 -0.1005  0.1847 -0.3877
  150MOL    N1630114   6.105   0.432   2.807  0.0687  0.1428  0.4143
  150MOL    H1730115   6.144   0.596   2.436 -0.2166  0.6017  1.2071
  150MOL    H1830116   6.270   0.702   2.511 -0.2146  1.1303  1.9224
  150MOL    H1930117   6.200   0.642   2.734 -1.2495 -0.3193  0.0919
  150MOL    H2030118   6.161   0.488   2.869 -0.3460 -0.3847  1.2725
  150MOL    H2130119   6.074   0.345   2.848  1.2562 -0.8780 -0.8145
  150MOL    C2230120   6.034   0.729   2.644 -0.0702  0.5040  0.2269
  150MOL    C2330121   5.963   0.776   2.773  0.3736 -0.2932  0.0936
  150MOL    C2430122   5.835   0.697   2.789  0.7522 -0.0283 -0.3827
  150MOL    O2530123   5.740   0.711   2.709  0.0461  0.3932  0.3280
  150MOL    N2630124   5.818   0.625   2.904 -0.1458 -0.4101  0.4887
  150MOL    H2730125   5.964   0.717   2.561  0.7425  0.1783 -0.4237
  150MOL    H2830126   6.089   0.815   2.606  0.0940 -0.8872 -2.8722
  150MOL    H2930127   6.030   0.758   2.857 -0.5471 -0.8350  0.7178
  150MOL    H3030128   5.740   0.562   2.918 -0.3529 -0.1961  0.3154
  150MOL    H3130129   5.888   0.629   2.977  1.2001  0.0034 -0.8035
  150MOL    C3230130   5.943   0.929   2.775 -0.0944  0.1938  0.2867
  150MOL    C3330131   5.871   0.992   2.894  0.7785 -0.2437  0.6186
  150MOL    C3430132   5.725   1.040   2.874  0.6710 -0.2654  0.0783
  150MOL    O3530133   5.665   1.120   2.945  0.4923 -0.3072 -0.7824
  150MOL    N3630134   5.651   0.984   2.778 -0.1793  0.3029 -0.3549
  150MOL    H3730135   5.893   0.959   2.683 -0.6083  0.0208  0.5065
  150MOL    H3830136   6.042   0.972   2.773  0.5376 -1.2072  0.7471
  150MOL    H3930137   5.859   0.914   2.969 -2.5297  0.8300  1.3018
  150MOL    H4030138   5.555   1.015   2.771 -0.3952 -0.3990 -0.5925
  150MOL    H4130139   5.686   0.903   2.729  0.2559  0.1697  0.1613
  150MOL    C4230140   5.953   1.091   2.974  0.3001  0.4284  0.0119
  150MOL    C4330141   5.975   1.231   2.911 -0.2501 -0.3985 -0.1020
  150MOL    C4430142   6.092   1.235   2.815 -0.4502 -0.4592 -0.5956
  150MOL    O4530143   6.204   1.197   2.853 -0.9287  0.0252 -0.1540
  150MOL    N4630144   6.074   1.291   2.700  0.4162 -0.2393  0.3162
  150MOL    H4730145   6.057   1.063   2.993  0.0586 -0.9720 -0.6672
  150MOL    H4830146   5.910   1.102   3.074  0.4496  0.9830  0.0133
  150MOL    H4930147   5.879   1.261   2.867  0.4211  1.5417 -0.2788
  150MOL    H5030148   6.149   1.322   2.640 -2.4322  3.7332 -1.4397
  150MOL    H5130149   5.978   1.310   2.673  0.4467 -0.9105 -0.2621
  150MOL    C5230150   5.994   1.332   3.030  0.5884 -0.2106  0.2867
  150MOL    C5330151   6.019   1.485   2.994 -0.3530  0.1903 -0.0455
  150MOL    C5430152   6.109   1.547   3.104  0.2592  0.1962 -0.0467
  150MOL    O5530153   6.056   1.603   3.201  0.4488  0.3820 -0.4827
  150MOL    N5630154   6.241   1.538   3.097 -0.1394 -0.1073  0.4381
  150MOL    H5730155   6.071   1.293   3.097  0.4793  1.1270  1.2126
  150MOL    H5830156   5.897   1.325   3.079 -0.0397  0.2407 -0.8833
  150MOL    H5930157   6.075   1.470   2.902 -1.6322 -1.8883 -0.5156
  150MOL    H6030158   6.294   1.503   3.018 -1.4226 -2.1438  0.4369
  150MOL    H6130159   6.295   1.590   3.165 -0.3107 -0.1250  0.5895
  150MOL    C6230160   5.886   1.566   2.971  0.1951 -0.2089 -0.5591
  150MOL    C6330161   5.834   1.577   2.822  0.8142  0.1571 -0.2877
  150MOL    C6430162   5.924   1.633   2.722  0.2986 -0.1355 -0.4178
  150MOL    O6530163   5.968   1.745   2.734  0.2280  0.3759  0.2032
  150MOL    N6630164   5.957   1.560   2.615  0.0276  0.4733  0.1760
  150MOL    H6730165   5.903   1.668   3.005  0.5544 -0.4134 -0.1098
  150MOL    H6830166   5.810   1.542   3.045 -0.6557  2.7244 -0.4091
  150MOL    H6930167   5.807   1.473   2.804 -0.8650  0.0841  2.3070
  150MOL    H7030168   5.923   1.465   2.605  3.2833 -0.6817 -0.5116
  150MOL    H7130169   6.015   1.600   2.543 -0.2291 -0.8809 -0.8100
  150MOL    C7230170   5.705   1.664   2.820  0.0058 -0.1750 -0.0928
  150MOL    C7330171   5.598   1.615   2.719  0.1816 -0.1331 -0.4056
  150MOL    C7430172   5.542   1.721   2.628 -0.4640 -1.1388  0.2440
  150MOL    O7530173   5.431   1.776   2.637 -0.0189 -0.3183 -0.3499
  150MOL    N7630174   5.621   1.762   2.527 -0.5645 -0.0884 -0.7776
  150MOL    H7730175   5.739   1.767   2.809  3.1317 -1.3043 -1.3373
  150MOL    H7830176   5.649   1.670   2.914  0.1498 -0.6965  0.0287
  150MOL    H7930177   5.652   1.538   2.663  1.9554  0.7224  0.1141
  150MOL    H8030178   5.587   1.834   2.465 -0.5943 -0.0839 -0.7562
  150MOL    H8130179   5.716   1.728   2.521 -0.4082  0.2181 -0.1191
  150MOL    C8230180   5.483   1.533   2.781  0.1895 -0.6345  1.0530
  150MOL    C8330181   5.488   1.379   2.768  0.1462 -0.2163 -0.2682
  150MOL    C8430182   5.460   1.322   2.627  0.3911  0.0464  0.7499
  150MOL    O8530183   5.456   1.202   2.600  0.2848 -0.2052 -0.3601
  150MOL    N8630184   5.452   1.405   2.522 -0.0986  0.1056  0.2911
  150MOL    H8730185   5.390   1.560   2.731  0.4474  0.5438  1.1864
  150MOL    H8830186   5.462   1.567   2.882 -0.4195  0.2458  0.6372
  150MOL    H8930187   5.587   1.356   2.807 -0.5661  1.0968  2.4410
  150MOL    H9030188   5.416   1.366   2.436  2.3255  1.3108 -1.3517
  150MOL    H9130189   5.476   1.502   2.535  0.1871  0.0310  0.3245
  150MOL    C9230190   5.391   1.309   2.865 -0.8262 -0.1679  0.0754
  150MOL    C9330191   5.240   1.349   2.843 -0.6563 -0.4183 -0.0192
  150MOL    C9430192   5.201   1.453   2.951 -0.7269 -0.4734 -0.4573
  150MOL    O9530193   5.190   1.417   3.068  0.0457  0.0273 -0.1665
  150MOL    N9630194   5.183   1.584   2.914 -1.0713 -0.0841 -0.2071
  150MOL    H9730195   5.428   1.330   2.966 -0.7324  0.5981 -0.1198
  150MOL    H9830196   5.398   1.200   2.855 -0.1441 -0.2697  1.4715
  150MOL    H9930197   5.219   1.395   2.746  1.1089  0.6499  0.0817
  150MOL   H10030198   5.185   1.616   2.818  1.3525  1.7043  0.3802
  150MOL   H10130199   5.131   1.649   2.972 -0.2164 -0.9616  1.5835
  150MOL   C10230200   5.149   1.225   2.857  0.3963  0.2209  0.8817
  150MOL   C10330201   5.153   1.125   2.736  0.1247 -0.1489  0.2387
  150MOL   C10430202   5.086   1.172   2.605 -0.6594 -0.2704 -0.3947
  150MOL   O10530203   4.971   1.206   2.608  0.3012 -0.2074  0.3773
  150MOL   N10630204   5.157   1.175   2.496 -0.3632  0.0184 -0.0332
  150MOL   H10730205   5.043   1.253   2.862  0.1314 -0.2777 -1.3903
  150MOL   H10830206   5.178   1.167   2.944  0.7416  0.8187  1.1664
  150MOL   H10930207   5.258   1.117   2.706 -0.0442  0.9684 -0.6949
  150MOL   H11030208   5.106   1.206   2.414 -1.0245 -1.2542 -0.1159
  150MOL   H11130209   5.253   1.150   2.478  0.0001  0.2394  1.5622
  150MOL   C11230210   5.097   0.986   2.766 -0.3001 -0.0685 -0.0071
  150MOL   C11330211   5.182   0.880   2.844 -0.4040  0.1541  0.1564
  150MOL   C11430212   5.331   0.882   2.803  0.5419 -0.6120 -0.4800
  150MOL   O11530213   5.372   0.864   2.688  0.2839  0.0922  0.4636
  150MOL   N11630214   5.417   0.897   2.906  1.0320  0.4208 -0.0630
  150MOL   H11730215   5.084   0.940   2.668 -2.1026  1.1482 -0.3713
  150MOL   H11830216   5.001   0.992   2.819 -0.3046  1.8817 -0.1800
  150MOL   H11930217   5.187   0.920   2.945  2.4103 -1.4915  0.7390
  150MOL   H12030218   5.371   0.897   2.996  0.2739  1.7885 -0.4419
  150MOL   H12130219   5.514   0.871   2.894  1.7311  2.5536  0.7697
  150MOL   C12230220   5.119   0.734   2.839  0.3053 -0.0223 -0.4190
  150MOL   C12330221   5.172   0.638   2.956 -0.5979 -0.3106 -0.3938
  150MOL   C12430222   5.318   0.600   2.944 -0.4555 -0.4159  0.1677
  150MOL   O12530223   5.360   0.560   2.837 -0.0242  0.3319  0.3232
  150MOL   N12630224   5.399   0.603   3.050  0.1037 -0.4280 -0.3157
  150MOL   H12730225   5.155   0.703   2.742  1.6286 -1.6064  0.5568
  150MOL   H12830226   5.010   0.730   2.834  0.2761  0.1140  0.0788
  150MOL   H12930227   5.173   0.700   3.045  3.3048 -1.2648  0.3031
  150MOL   H13030228   5.368   0.626   3.143 -1.1511  2.1393 -1.3215
  150MOL   H13130229   5.484   0.550   3.039  0.1168 -0.4128 -0.2904
  150MOL   C13230230   5.091   0.510   2.981  0.6007 -0.3027 -0.4548
  150MOL   C13330231   4.938   0.516   3.012  1.3081 -0.2439  0.5869
  150MOL   C13430232   4.900   0.620   3.121 -0.2625  0.0830  0.1844
  150MOL   O13530233   4.921   0.587   3.240 -0.7209 -0.1220  0.8220
  150MOL   N13630234   4.857   0.741   3.089  0.5387 -0.0576  0.7393
  150MOL   H13730235   5.131   0.457   3.067  0.5020 -0.4742 -0.5149
  150MOL   H13830236   5.118   0.441   2.901  0.9430 -0.0523 -0.5567
  150MOL   H13930237   4.896   0.565   2.925 -0.5630 -0.2702  1.4599
  150MOL   H14030238   4.858   0.769   2.992 -0.6136  0.6718  0.9222
  150MOL   H14130239   4.807   0.798   3.156 -0.1070 -0.0038  0.2204
  150MOL   C14230240   4.871   0.372   3.031 -0.6884 -0.4096  0.1439
  150MOL   C14330241   4.717   0.341   3.027  0.5211  0.5141 -0.0828
  150MOL   C14430242   4.674   0.342   2.879  0.6091 -0.3917 -0.2905
  150MOL   O14530243   4.645   0.448   2.826  0.4875 -0.4163 -0.0258
  150MOL   N14630244   4.671   0.224   2.816  0.2612  0.2969 -0.1629
  150MOL   H14730245   4.918   0.346   3.126 -1.3367  1.2138  0.9249
  150MOL   H14830246   4.910   0.305   2.955 -1.1112 -1.5735  0.9388
  150MOL   H14930247   4.730   0.235   3.049  0.2007  0.4648 -0.1332
  150MOL   H15030248   4.710   0.148   2.868  0.1824  0.5810  0.3127
  150MOL   H15130249   4.650   0.216   2.717 -2.0864  0.6661  0.2690
  150MOL   C15230250   4.618   0.417   3.120 -0.4615 -0.2105 -0.3009
  150MOL   C15330251   4.570   0.319   3.231  0.3821 -0.4550  0.0322
  150MOL   C15430252   4.474   0.210   3.183 -0.3007  0.1604 -0.6425
  150MOL   O15530253   4.515   0.092   3.180 -0.2525 -0.0640  0.8246
  150MOL   N15630254   4.354   0.254   3.151  0.2610  0.2198 -0.4977
  150MOL   H15730255   4.530   0.443   3.062  0.5586 -2.2620 -2.8950
  150MOL   H15830256   4.669   0.508   3.151  2.8111 -2.0619  0.0940
  150MOL   H15930257   4.659   0.276   3.275  1.1571  1.3961  0.3131
  150MOL   H16030258   4.332   0.353   3.155  1.3296  0.4118  1.0525
  150MOL   H16130259   4.277   0.193   3.127  1.5307 -1.3426 -0.6881
  150MOL   C16230260   4.527   0.396   3.351 -0.0492  0.2296  0.1674
  150MOL   C16330261   4.643   0.464   3.425  0.8262  0.3426 -1.0873
  150MOL   C16430262   4.723   0.356   3.496  0.1823 -1.2837  0.1259
  150MOL   O16530263   4.676   0.293   3.591  0.7516 -0.5537  0.4887
  150MOL   N16630264   4.850   0.344   3.459 -0.0137 -0.4872 -0.0426
  150MOL   H16730265   4.468   0.334   3.419  0.4004 -0.7761 -0.3535
  150MOL   H16830266   4.463   0.478   3.320 -0.2710 -0.5899 -1.5735
  150MOL   H16930267   4.707   0.523   3.359  0.4416  1.9570 -0.0408
  150MOL   H17030268   4.888   0.406   3.389 -2.4171  0.5009 -0.5013
  150MOL   H17130269   4.902   0.272   3.506  1.1937  0.0691 -0.5083
  150MOL   C17230270   4.597   0.573   3.525 -0.0262 -0.3777 -0.5544
  150MOL   C17330271   4.648   0.716   3.529 -0.0483 -0.4265  0.2955
  150MOL   C17430272   4.628   0.802   3.399  0.1734 -0.0163  0.2954
  150MOL   O17530273   4.726   0.842   3.336 -0.0721  0.0612  0.0332
  150MOL   N17630274   4.509   0.827   3.366 -0.3700  0.2586 -0.4479
  150MOL   H17730275   4.583   0.524   3.621  0.3681 -1.7061 -1.1629
  150MOL   H17830276   4.490   0.587   3.516 -0.4850 -2.9274  0.6653
  150MOL   H17930277   4.576   0.757   3.599 -1.4037 -1.2485 -0.5832
  150MOL   H18030278   4.424   0.790   3.408  0.1460 -2.1030 -1.4230
  150MOL   H18130279   4.496   0.891   3.290  0.8462 -0.4877 -1.3018
  150MOL   C18230280   4.782   0.734   3.599 -0.0793  0.4710  0.6616
  150MOL   C18330281   4.785   0.706   3.747 -0.2267 -0.4172 -0.1463
  150MOL   C18430282   4.855   0.825   3.814  0.1214  0.4007  0.0271
  150MOL   O18530283   4.805   0.939   3.816 -0.3090  0.0721 -0.3666
  150MOL   N18630284   4.974   0.806   3.866 -0.2146  0.5275 -0.0039
  150MOL   H18730285   4.804   0.840   3.584  0.5258  0.3748  0.8252
  150MOL   H18830286   4.859   0.684   3.540 -0.2725 -0.7253  1.4070
  150MOL   H18930287   4.687   0.713   3.793  0.8966 -0.4541  2.3430
  150MOL   H19030288   5.044   0.878   3.878  2.8860 -2.3894  0.2579
  150MOL   H19130289   5.012   0.712   3.870  0.6994  0.8491 -0.7495
  150MOL   C19230290   4.841   0.558   3.775  0.5661  0.1941  0.2267
  150MOL   C19330291   4.751   0.495   3.878 -0.4604  0.4958  0.9092
  150MOL   C19430292   4.809   0.363   3.919 -0.7004  0.6976 -0.5091
  150MOL   O19530293   4.855   0.336   4.027  0.6573  0.5606  0.2197
  150MOL   N19630294   4.773   0.259   3.841 -0.5044 -0.2445 -0.3496
  150MOL   H19730295   4.946   0.558   3.805  0.1405 -1.0610  1.7818
  150MOL   H19830296   4.838   0.497   3.684  1.6934  1.6891 -0.8467
  150MOL   H19930297   4.760   0.545   3.974  1.1540  0.0047  1.0276
  150MOL   H20030298   4.805   0.165   3.858 -0.5778 -0.3654 -0.8646
  150MOL   H20130299   4.732   0.277   3.750 -0.3816 -0.3114 -0.4189
  150MOL   H20230300   4.646   0.484   3.852 -0.8624  0.8924  2.2809
  151MOL     C130301   0.888   7.118   2.145 -0.5257 -0.2274 -0.7491
  151MOL     C230302   0.750   7.200   2.134 -0.9577  0.4980 -0.5653
  151MOL     C330303   0.765   7.333   2.211  0.8783  0.4689  0.2494
  151MOL     O430304   0.756   7.342   2.334 -0.0518 -0.1063  0.2321
  151MOL     N530305   0.784   7.438   2.140 -0.2492  0.5002 -0.2917
  151MOL     H630306   0.973   7.184   2.126 -1.6453  1.5006  0.0997
  151MOL     H730307   0.894   7.081   2.247 -1.7647  1.5875  0.0164
  151MOL     H830308   0.731   7.222   2.029 -2.7172 -0.3777 -0.4591
  151MOL     H930309   0.782   7.524   2.194  1.1424 -0.4959  1.3847
  151MOL    H1030310   0.797   7.439   2.040  0.9556  1.5232 -0.1350
  151MOL    H1130311   0.890   7.032   2.078  0.9716  0.0322 -1.0558
  151MOL    C1230312   0.629   7.114   2.173  0.2115  0.1637 -0.1716
  151MOL    C1330313   0.489   7.156   2.132 -0.1517 -0.0744  0.5973
  151MOL    C1430314   0.455   7.165   1.980  0.2229 -0.0247 -0.1712
  151MOL    O1530315   0.542   7.168   1.896  0.1349 -0.2254  0.3610
  151MOL    N1630316   0.327   7.168   1.956  0.1575 -0.1515 -0.1614
  151MOL    H1730317   0.622   7.109   2.282  0.4851  0.7201 -0.1273
  151MOL    H1830318   0.669   7.022   2.130 -2.9730 -2.3992  2.1628
  151MOL    H1930319   0.428   7.078   2.178 -1.7388 -0.7478 -2.5447
  151MOL    H2030320   0.255   7.165   2.027  0.0058 -1.2555 -0.3589
  151MOL    H2130321   0.294   7.162   1.861  0.0926 -0.4765 -0.1175
  151MOL    C2230322   0.442   7.292   2.205  0.5639  0.0345 -0.1560
  151MOL    C2330323   0.295   7.270   2.272  0.1232 -0.2117 -0.7336
  151MOL    C2430324   0.237   7.411   2.295 -0.1686  0.3050 -0.5570
  151MOL    O2530325   0.306   7.496   2.353  0.4682  0.0099 -0.1082
  151MOL    N2630326   0.111   7.436   2.260  0.3558 -0.3079 -0.6122
  151MOL    H2730327   0.435   7.370   2.130 -0.3900  2.0312  1.9222
  151MOL    H2830328   0.508   7.335   2.281 -1.7198  0.5904  1.5531
  151MOL    H2930329   0.230   7.211   2.207  0.5628 -1.5545  0.0261
  151MOL    H3030330   0.073   7.527   2.283  0.6115 -0.9560  2.5636
  151MOL    H3130331   0.057   7.370   2.205  0.3304 -1.0162  0.2505
  151MOL    C3230332   0.322   7.191   2.395 -0.4290 -0.8149 -0.8765
  151MOL    C3330333   0.194   7.135   2.470  0.1939 -0.0918 -0.6696
  151MOL    C3430334   0.206   7.177   2.620 -0.4516  0.2610 -0.2121
  151MOL    O3530335   0.271   7.119   2.704 -0.3810 -0.6984  0.2224
  151MOL    N3630336   0.137   7.282   2.665  0.2795 -0.3286 -0.3804
  151MOL    H3730337   0.372   7.256   2.466  0.9746 -0.9179 -1.7494
  151MOL    H3830338   0.400   7.115   2.391  0.7704  0.3820 -0.3539
  151MOL    H3930339   0.103   7.183   2.436  0.4499  1.1261  0.3078
  151MOL    H4030340   0.063   7.313   2.604 -1.8938 -1.7243  1.4628
  151MOL    H4130341   0.143   7.315   2.761  0.8516  0.3580 -0.6478
  151MOL    C4230342   0.186   6.978   2.456 -0.1476  0.2575  0.3792
  151MOL    C4330343   0.124   6.916   2.331 -0.5787  0.0013  0.1009
  151MOL    C4430344   7.631   6.934   2.335 -0.6573 -0.3727 -0.0349
  151MOL    O4530345   7.574   7.005   2.417 -0.1835  0.3366  0.0806
  151MOL    N4630346   7.560   6.862   2.251  0.5046 -0.2252  0.0049
  151MOL    H4730347   0.145   6.939   2.549 -0.8955  0.0778 -0.0293
  151MOL    H4830348   0.288   6.941   2.466 -0.2379  0.1652  0.9869
  151MOL    H4930349   0.153   6.978   2.247  0.0179  1.5062  1.3846
  151MOL    H5030350   7.460   6.862   2.254  0.5180 -0.7874  0.8722
  151MOL    H5130351   7.605   6.791   2.194  3.0456  0.9471  0.4503
  151MOL    C5230352   0.169   6.767   2.305  0.4792 -0.0643 -0.1626
  151MOL    C5330353   0.312   6.745   2.241  0.0612  0.0597 -0.5017
  151MOL    C5430354   0.321   6.801   2.105  0.3275  0.4181 -0.1049
  151MOL    O5530355   0.220   6.823   2.040 -0.2430  0.3144  0.1764
  151MOL    N5630356   0.441   6.830   2.056 -0.1367 -0.2587  0.2178
  151MOL    H5730357   0.105   6.716   2.232  0.9616  1.1907 -1.4994
  151MOL    H5830358   0.164   6.712   2.399 -3.2574  0.5607  0.1031
  151MOL    H5930359   0.391   6.789   2.301 -1.0689  0.3131  0.8075
  151MOL    H6030360   0.520   6.791   2.107 -0.2194 -0.3362  0.2850
  151MOL    H6130361   0.444   6.888   1.974  2.8879 -2.0707 -1.0225
  151MOL    C6230362   0.352   6.594   2.232 -0.0625 -0.5866 -0.0319
  151MOL    C6330363   0.282   6.495   2.137  0.4588  0.1593  0.4924
  151MOL    C6430364   0.183   6.409   2.219  0.1029  0.0076 -0.0771
  151MOL    O6530365   0.233   6.331   2.298  0.5306 -0.5770  0.5527
  151MOL    N6630366   0.050   6.431   2.221  0.4031  0.1479  0.1843
  151MOL    H6730367   0.342   6.558   2.335 -1.7624  2.7670  1.0709
  151MOL    H6830368   0.459   6.586   2.211  0.1358  1.1647  0.2594
  151MOL    H6930369   0.231   6.556   2.062 -0.9954  0.4387  1.6813
  151MOL    H7030370   7.649   6.380   2.287  1.4662  0.2658  1.2362
  151MOL    H7130371   0.018   6.486   2.143  1.4873 -0.8145 -0.9539
  151MOL    C7230372   0.383   6.405   2.061 -0.5694 -0.2877 -0.3290
  151MOL    C7330373   0.472   6.479   1.958  0.4605  0.0766 -0.3081
  151MOL    C7430374   0.425   6.509   1.818  0.4249  0.4242  0.3693
  151MOL    O7530375   0.342   6.426   1.770 -0.5358 -0.3130  0.2096
  151MOL    N7630376   0.478   6.614   1.763 -0.2571 -0.4422 -0.0661
  151MOL    H7730377   0.342   6.320   2.005  0.2901  1.8818 -4.4649
  151MOL    H7830378   0.443   6.357   2.138 -0.3389 -1.1860 -1.0549
  151MOL    H7930379   0.475   6.575   2.009 -0.8202 -0.0546  0.0405
  151MOL    H8030380   0.440   6.640   1.673 -1.9442  0.6508  0.9481
  151MOL    H8130381   0.546   6.677   1.804  0.7877 -1.1629 -0.6386
  151MOL    C8230382   0.613   6.419   1.959  0.3171 -0.5900 -0.2625
  151MOL    C8330383   0.631   6.289   1.872 -0.0218 -0.0816 -0.3005
  151MOL    C8430384   0.569   6.164   1.943  0.0545 -0.0930 -0.4194
  151MOL    O8530385   0.601   6.130   2.056 -0.2151  0.3274  0.3351
  151MOL    N8630386   0.480   6.101   1.869  0.4364  0.1129  0.3432
  151MOL    H8730387   0.651   6.396   2.058 -1.2522 -0.6591  0.3295
  151MOL    H8830388   0.689   6.496   1.942  0.0986 -0.5605 -1.1717
  151MOL    H8930389   0.587   6.296   1.773  3.5512 -2.5556 -2.1985
  151MOL    H9030390   0.434   6.153   1.796  0.6378 -1.4543 -0.9205
  151MOL    H9130391   0.433   6.016   1.898  0.5672  0.4511  1.5521
  151MOL    C9230392   0.780   6.280   1.829 -0.2497  0.4932 -0.2939
  151MOL    C9330393   0.840   6.354   1.708  0.3461 -0.0191 -0.2047
  151MOL    C9430394   0.770   6.312   1.581  0.0117  0.0914  0.2906
  151MOL    O9530395   0.776   6.191   1.547 -0.1426  0.7450  0.3995
  151MOL    N9630396   0.721   6.406   1.494 -0.1033  0.1747 -0.0138
  151MOL    H9730397   0.812   6.177   1.818  0.4844  0.7540 -0.6583
  151MOL    H9830398   0.838   6.317   1.915 -0.5047  3.6049 -1.3779
  151MOL    H9930399   0.830   6.461   1.724  2.0667  0.0437  0.5101
  151MOL   H10030400   0.674   6.379   1.409  0.3777  0.1236 -0.2595
  151MOL   H10130401   0.727   6.502   1.524  1.0289  0.7475 -2.0629
  151MOL   C10230402   0.990   6.329   1.702 -0.3832 -0.2229  0.4159
  151MOL   C10330403   1.078   6.411   1.600  0.9189 -0.3002  0.2005
  151MOL   C10430404   1.118   6.325   1.479  0.5714  0.6026 -0.0406
  151MOL   O10530405   1.185   6.219   1.493  0.1366 -0.0782 -0.3767
  151MOL   N10630406   1.075   6.366   1.361  0.1674  0.0374 -0.5701
  151MOL   H10730407   1.009   6.222   1.696 -0.6793 -0.3794  2.0995
  151MOL   H10830408   1.027   6.349   1.803 -0.1219 -0.6629  0.4065
  151MOL   H10930409   1.005   6.481   1.558  2.8751  1.9199  0.3832
  151MOL   H11030410   1.032   6.457   1.357 -0.4079 -0.2529 -0.9141
  151MOL   H11130411   1.079   6.315   1.274 -1.7050  0.3357 -0.8532
  151MOL   C11230412   1.194   6.485   1.655 -0.2656  0.4372 -0.4556
  151MOL   C11330413   1.231   6.612   1.577 -0.2012 -0.4430 -0.0501
  151MOL   C11430414   1.305   6.594   1.443 -0.2151 -0.1762  0.1399
  151MOL   O11530415   1.290   6.671   1.348  0.0767  0.0008  0.3950
  151MOL   N11630416   1.387   6.496   1.438  0.5170 -0.1883  0.8011
  151MOL   H11730417   1.272   6.409   1.664 -0.6128 -0.0654 -1.5027
  151MOL   H11830418   1.163   6.508   1.756  0.7990 -0.0922 -0.0012
  151MOL   H11930419   1.139   6.657   1.538 -0.0235 -2.5037 -3.0168
  151MOL   H12030420   1.388   6.428   1.513 -0.8895 -1.1132 -0.0153
  151MOL   H12130421   1.425   6.466   1.349 -0.5989  2.3578 -0.5566
  151MOL   C12230422   1.285   6.730   1.660  0.0942 -0.0888  0.2503
  151MOL   C12330423   1.415   6.703   1.734 -0.4135  0.0007 -0.6190
  151MOL   C12430424   1.425   6.797   1.857 -0.4551 -0.1246  0.6177
  151MOL   O12530425   1.409   6.919   1.849 -0.3462  0.2770 -0.4498
  151MOL   N12630426   1.467   6.751   1.974  0.2777 -0.2795  0.7390
  151MOL   H12730427   1.217   6.763   1.738 -0.6863  0.7639 -0.7750
  151MOL   H12830428   1.296   6.819   1.597 -3.4287  0.5147  0.3627
  151MOL   H12930429   1.391   6.607   1.780 -1.3219 -0.3002 -1.7119
  151MOL   H13030430   1.481   6.813   2.053  0.6008  0.2044  0.3013
  151MOL   H13130431   1.512   6.661   1.982 -0.0384 -0.7161 -2.1193
  151MOL   C13230432   1.541   6.712   1.652 -0.5178 -0.9682 -0.7214
  151MOL   C13330433   1.638   6.592   1.649 -0.2583  0.5618  0.6608
  151MOL   C13430434   1.658   6.524   1.786  0.2753  0.3694  0.8421
  151MOL   O13530435   1.694   6.592   1.885 -0.3034  0.7020  0.1655
  151MOL   N13630436   1.637   6.389   1.794  0.8108 -1.1793  0.3110
  151MOL   H13730437   1.607   6.793   1.684  1.0985 -2.5693  0.0897
  151MOL   H13830438   1.503   6.729   1.552  2.9743 -0.3428 -2.0223
  151MOL   H13930439   1.599   6.524   1.573  1.4449  0.2764 -0.0050
  151MOL   H14030440   1.593   6.338   1.719  0.2538 -0.9294  0.4662
  151MOL   H14130441   1.665   6.344   1.880 -0.3105  0.1492  1.3905
  151MOL   C14230442   1.779   6.630   1.594  0.2980 -0.6185 -0.1431
  151MOL   C14330443   1.875   6.507   1.555 -0.5140 -0.0343 -0.1831
  151MOL   C14430444   2.021   6.545   1.578  0.2782 -0.0032  0.3489
  151MOL   O14530445   2.072   6.649   1.538 -0.0450 -0.1014  0.5438
  151MOL   N14630446   2.084   6.459   1.653  0.6362 -0.3406  0.1753
  151MOL   H14730447   1.818   6.671   1.687 -3.7205  3.3327 -0.0040
  151MOL   H14830448   1.782   6.708   1.517 -0.3839 -0.6836 -0.2438
  151MOL   H14930449   1.853   6.428   1.627 -0.4814  0.2247  0.1129
  151MOL   H15030450   2.180   6.475   1.679  0.7521 -0.0286 -0.4243
  151MOL   H15130451   2.028   6.386   1.696  0.7535  0.3324  1.5059
  151MOL   C15230452   1.850   6.470   1.409  0.0077 -0.4834  0.1740
  151MOL   C15330453   1.901   6.332   1.366 -0.4671  0.4948  0.1735
  151MOL   C15430454   1.936   6.319   1.223 -0.6134 -0.5118  0.1685
  151MOL   O15530455   1.888   6.387   1.135 -0.0781  0.1355  0.6836
  151MOL   N15630456   2.036   6.240   1.196  0.2727 -0.5232  0.1788
  151MOL   H15730457   1.892   6.553   1.354 -0.3098  0.8373  1.8799
  151MOL   H15830458   1.743   6.485   1.393 -0.2647 -1.2513  1.1697
  151MOL   H15930459   1.989   6.313   1.427 -0.0721 -0.9529 -0.8077
  151MOL   H16030460   2.057   6.215   1.101 -0.9392 -3.0035  0.5204
  151MOL   H16130461   2.076   6.187   1.272 -0.7602  0.9516  1.7994
  151MOL   C16230462   1.796   6.221   1.401 -0.1798  0.1533  0.4634
  151MOL   C16330463   1.815   6.067   1.396 -0.5025  0.4027  0.3511
  151MOL   C16430464   1.947   6.019   1.449 -0.6589 -0.4691  0.5531
  151MOL   O16530465   2.056   6.076   1.434  0.4004  0.1738  0.3711
  151MOL   N16630466   1.945   5.904   1.515 -0.7982  0.1616  0.5188
  151MOL   H16730467   1.707   6.258   1.349  0.1189  1.2674  0.7382
  151MOL   H16830468   1.753   6.246   1.498 -2.0846  3.3717 -1.1019
  151MOL   H16930469   1.744   6.024   1.466  0.2885  0.5051  1.2320
  151MOL   H17030470   2.023   5.869   1.567 -1.7548 -2.5040  0.2735
  151MOL   H17130471   1.858   5.852   1.511 -0.8651  0.3020  0.0686
  151MOL   C17230472   1.791   6.024   1.246 -0.3302 -0.1736  0.3592
  151MOL   C17330473   1.660   6.062   1.179  0.1363 -0.7043 -0.1553
  151MOL   C17430474   1.533   6.058   1.272  0.1952  0.2737  0.0447
  151MOL   O17530475   1.494   5.953   1.321  0.0166  0.0854 -0.3189
  151MOL   N17630476   1.459   6.160   1.286  0.5717  0.0405  0.0211
  151MOL   H17730477   1.798   5.915   1.251 -1.9344 -0.2351  1.5705
  151MOL   H17830478   1.876   6.046   1.182  0.8040 -1.4807  1.3701
  151MOL   H17930479   1.671   6.168   1.154  0.5908 -0.6124  0.4315
  151MOL   H18030480   1.378   6.168   1.347  1.7783  0.1057  1.6693
  151MOL   H18130481   1.485   6.242   1.232 -0.3966  0.1415 -0.2976
  151MOL   C18230482   1.629   5.972   1.053 -0.2546  0.4345 -0.1082
  151MOL   C18330483   1.737   5.985   0.939 -0.0453  0.0014  0.4771
  151MOL   C18430484   1.724   6.111   0.853  0.2506 -0.8426  0.1853
  151MOL   O18530485   1.612   6.148   0.808  0.0754  0.7618 -0.2703
  151MOL   N18630486   1.837   6.179   0.834 -0.5171 -0.2401  0.3686
  151MOL   H18730487   1.533   6.007   1.014 -1.7706 -2.0414  1.2471
  151MOL   H18830488   1.616   5.870   1.089 -1.3000  0.9459  1.0198
  151MOL   H18930489   1.836   5.986   0.985  0.5227  1.6849 -0.7025
  151MOL   H19030490   1.921   6.143   0.878  0.4386  1.2005 -0.2201
  151MOL   H19130491   1.829   6.278   0.816 -1.7020 -0.6948 -1.7537
  151MOL   C19230492   1.725   5.864   0.848 -0.8715 -0.2871 -0.3197
  151MOL   C19330493   1.826   5.847   0.731 -0.2994 -0.6714  0.5441
  151MOL   C19430494   1.783   5.730   0.636  0.7793 -1.0057 -0.5767
  151MOL   O19530495   1.671   5.681   0.639 -1.1060  0.4497 -0.4085
  151MOL   N19630496   1.874   5.684   0.548  0.2441 -0.4447 -0.7815
  151MOL   H19730497   1.626   5.857   0.802 -0.8985 -1.7136 -0.0478
  151MOL   H19830498   1.732   5.776   0.911  0.8092  0.1862  0.1643
  151MOL   H19930499   1.847   5.941   0.680  2.2548 -1.6604 -0.2576
  151MOL   H20030500   1.848   5.606   0.489 -0.5968  1.0859 -2.5015
  151MOL   H20130501   1.967   5.721   0.557 -0.5137  0.7063  3.6429
  151MOL   H20230502   1.921   5.805   0.765  0.1980 -1.4584 -1.7423
  152MOL     C130503   0.920   1.615   2.811  0.3183 -1.1916  0.2939
  152MOL     C230504   1.062   1.549   2.819 -0.9295  0.1702  0.6132
  152MOL     C330505   1.135   1.572   2.688  0.1375  0.1845  0.0156
  152MOL     O430506   1.078   1.538   2.586 -0.1977  0.0146 -0.4424
  152MOL     N530507   1.247   1.638   2.673  0.5287 -0.5696  0.1090
  152MOL     H630508   0.834   1.556   2.779 -0.0666 -1.1269  1.1701
  152MOL     H730509   0.889   1.631   2.915  0.5896  0.5685  0.1204
  152MOL     H830510   1.111   1.603   2.900  3.4402 -1.3992 -0.8117
  152MOL     H930511   1.294   1.685   2.749 -0.4065  0.8297 -0.1393
  152MOL    H1030512   1.284   1.653   2.580  0.0773  1.0379  0.1647
  152MOL    H1130513   0.912   1.714   2.766  2.9806 -0.1004  2.1016
  152MOL    C1230514   1.043   1.406   2.854  0.0246 -0.0128 -0.8711
  152MOL    C1330515   1.175   1.339   2.920 -1.2083 -0.1738  0.7337
  152MOL    C1430516   1.284   1.303   2.812  0.2040  0.4018  0.7772
  152MOL    O1530517   1.262   1.236   2.714  0.1053 -0.3289 -0.0513
  152MOL    N1630518   1.403   1.359   2.833 -0.1247  0.5179 -0.1623
  152MOL    H1730519   1.002   1.348   2.771 -2.5811 -1.9025  1.6469
  152MOL    H1830520   0.966   1.401   2.931  0.5412 -1.5782 -0.4371
  152MOL    H1930521   1.220   1.406   2.992  0.1567  0.0308 -0.2975
  152MOL    H2030522   1.479   1.324   2.777 -1.6369 -2.1140 -0.6330
  152MOL    H2130523   1.414   1.429   2.905  0.7297 -1.8045  2.0339
  152MOL    C2230524   1.155   1.208   3.003  0.2912  0.0796  0.2209
  152MOL    C2330525   1.085   1.086   2.929 -0.2136  1.2489  0.1536
  152MOL    C2430526   0.938   1.084   2.949  0.1956  0.4599 -0.2735
  152MOL    O2530527   0.879   1.121   3.049  0.3591 -0.1225  0.3009
  152MOL    N2630528   0.865   1.049   2.842  0.2287  0.4362 -0.5334
  152MOL    H2730529   1.123   1.220   3.107 -0.0937  0.1658  0.0946
  152MOL    H2830530   1.256   1.172   3.021 -0.2132 -0.6721  1.5521
  152MOL    H2930531   1.098   1.121   2.827  0.0289 -0.9923 -0.6074
  152MOL    H3030532   0.901   1.027   2.750  2.8572 -0.9428  0.7785
  152MOL    H3130533   0.764   1.051   2.849  0.1644  0.3280 -1.3385
  152MOL    C3230534   1.156   0.948   2.959  0.0356  0.3520  0.2524
  152MOL    C3330535   1.264   0.904   2.852 -0.0583 -0.1926 -0.6135
  152MOL    C3430536   1.209   0.892   2.704  0.1451  0.2525 -0.0542
  152MOL    O3530537   1.108   0.832   2.686 -0.2069 -0.0913  0.6099
  152MOL    N3630538   1.278   0.957   2.611 -0.5945  0.7688 -0.0362
  152MOL    H3730539   1.082   0.872   2.982  0.6405  0.0324  1.1722
  152MOL    H3830540   1.195   0.979   3.056  1.3418  1.9582 -0.7587
  152MOL    H3930541   1.347   0.975   2.844  0.3055 -0.7557 -2.1824
  152MOL    H4030542   1.235   0.964   2.519  1.7385 -1.7991 -1.3880
  152MOL    H4130543   1.360   1.011   2.633  0.5239 -2.0939  3.2500
  152MOL    C4230544   1.329   0.768   2.891 -0.2367 -0.1206 -0.1880
  152MOL    C4330545   1.476   0.772   2.936 -0.2088 -0.8868 -0.5476
  152MOL    C4430546   1.548   0.637   2.921 -0.4084 -0.1482  0.2215
  152MOL    O4530547   1.477   0.535   2.911  0.0202  0.0320 -0.1930
  152MOL    N4630548   1.681   0.649   2.916  0.1849  0.3636 -0.3094
  152MOL    H4730549   1.317   0.701   2.806  0.8472  0.1071 -0.5301
  152MOL    H4830550   1.271   0.717   2.967 -1.0868 -0.7187 -1.2286
  152MOL    H4930551   1.523   0.843   2.869 -1.6647  1.0199  0.3992
  152MOL    H5030552   1.721   0.741   2.911 -2.4181  1.4360 -2.4546
  152MOL    H5130553   1.749   0.575   2.904 -0.2990 -0.0149 -0.7315
  152MOL    C5230554   1.495   0.825   3.087  0.2854  0.0074 -0.1448
  152MOL    C5330555   1.520   0.976   3.104 -0.1936  0.0375  0.1636
  152MOL    C5430556   1.648   1.024   3.020  0.0526  0.8667  0.5075
  152MOL    O5530557   1.741   0.949   2.995  0.2181  0.0324 -0.4673
  152MOL    N5630558   1.646   1.145   2.970  1.2314 -0.2880  0.7866
  152MOL    H5730559   1.574   0.765   3.131 -1.0842 -0.3910  1.8406
  152MOL    H5830560   1.403   0.793   3.136  1.8423 -2.2776  1.3660
  152MOL    H5930561   1.423   1.017   3.074  1.4956  1.7639 -3.2491
  152MOL    H6030562   1.731   1.178   2.928  1.1412 -1.4293 -0.3193
  152MOL    H6130563   1.561   1.196   2.992  0.5639 -0.7605 -0.6683
  152MOL    C6230564   1.533   1.014   3.260 -0.5481  0.4971 -0.3633
  152MOL    C6330565   1.577   1.157   3.308 -0.6406  0.1389 -0.2821
  152MOL    C6430566   1.642   1.151   3.446  0.1139  0.2759  0.2746
  152MOL    O6530567   1.566   1.155   3.539  0.0590 -0.3349  0.5598
  152MOL    N6630568   1.773   1.137   3.452 -0.3943 -0.3911 -0.3876
  152MOL    H6730569   1.616   0.953   3.294 -0.5035  1.5469  1.4556
  152MOL    H6830570   1.446   0.974   3.313  0.2898  1.4205  1.7364
  152MOL    H6930571   1.654   1.196   3.242 -0.4654  1.9714  0.9675
  152MOL    H7030572   1.819   1.105   3.368 -2.7325 -1.8242 -1.1648
  152MOL    H7130573   1.823   1.156   3.537  0.2658 -1.1324 -0.6058
  152MOL    C7230574   1.458   1.249   3.304 -0.5978 -0.8582  0.3374
  152MOL    C7330575   1.494   1.401   3.311 -0.2794 -0.0852  0.0999
  152MOL    C7430576   1.428   1.474   3.430 -0.3180  0.8520  0.4261
  152MOL    O7530577   1.356   1.575   3.413 -0.4144 -0.1068 -0.4660
  152MOL    N7630578   1.451   1.425   3.550 -0.6044 -0.1091  0.4204
  152MOL    H7730579   1.387   1.213   3.379  0.9152 -0.6319  1.9050
  152MOL    H7830580   1.413   1.223   3.208  0.4212  1.4134 -0.7792
  152MOL    H7930581   1.601   1.419   3.326 -0.0361  0.7378 -2.3554
  152MOL    H8030582   1.422   1.475   3.633  1.6542  1.9181  0.0276
  152MOL    H8130583   1.501   1.338   3.568 -1.1125 -0.8435 -1.6195
  152MOL    C8230584   1.479   1.447   3.168 -0.1590 -0.7223  0.8720
  152MOL    C8330585   1.533   1.594   3.143  0.0198  0.3261 -0.1515
  152MOL    C8430586   1.443   1.658   3.034  1.0169 -0.4822  0.1247
  152MOL    O8530587   1.466   1.645   2.912  0.2872 -0.1407 -0.1130
  152MOL    N8630588   1.325   1.707   3.076  0.2752 -0.6206  0.6693
  152MOL    H8730589   1.371   1.449   3.153 -0.3448 -0.9442  2.0971
  152MOL    H8830590   1.524   1.378   3.097  1.5605  0.9819  0.2450
  152MOL    H8930591   1.516   1.647   3.237 -0.4628  1.1487 -0.7047
  152MOL    H9030592   1.301   1.704   3.174 -0.2914 -0.6670  0.5282
  152MOL    H9130593   1.274   1.765   3.011  0.5834  0.4780  1.3794
  152MOL    C9230594   1.686   1.608   3.101  0.6019 -0.4189 -0.6395
  152MOL    C9330595   1.764   1.728   3.148  0.0656 -0.4798 -0.3521
  152MOL    C9430596   1.892   1.749   3.070 -0.2358  0.2449  0.5379
  152MOL    O9530597   1.935   1.861   3.066  1.0741 -0.5473  0.3166
  152MOL    N9630598   1.955   1.647   3.007 -0.9183  0.4561  0.0969
  152MOL    H9730599   1.693   1.604   2.992 -2.7145 -0.7257 -0.9138
  152MOL    H9830600   1.740   1.522   3.138  0.7906  0.0798  0.2626
  152MOL    H9930601   1.696   1.806   3.113 -0.6530 -0.9545 -0.0169
  152MOL   H10030602   1.908   1.557   2.999  1.2886 -0.7879  0.7621
  152MOL   H10130603   2.038   1.658   2.952 -0.0839 -0.9453  1.0365
  152MOL   C10230604   1.782   1.749   3.301 -0.0922  0.2430  0.0475
  152MOL   C10330605   1.908   1.687   3.371 -0.3116  0.2083  0.4344
  152MOL   C10430606   1.906   1.532   3.385  0.5388  0.2361  1.4014
  152MOL   O10530607   1.833   1.484   3.465  0.0559  0.1443 -0.4631
  152MOL   N10630608   1.980   1.459   3.299  0.5719  0.2793  0.3916
  152MOL   H10730609   1.696   1.715   3.359  0.5306 -1.2011  0.1520
  152MOL   H10830610   1.799   1.856   3.308  0.9356  0.1387 -0.8474
  152MOL   H10930611   1.990   1.715   3.304  0.8582  0.6091  2.0173
  152MOL   H11030612   2.043   1.511   3.240 -0.9281 -0.1807 -1.6547
  152MOL   H11130613   1.963   1.360   3.284  1.6346 -0.1874  2.1198
  152MOL   C11230614   1.951   1.748   3.508  0.4120  0.0314  0.5826
  152MOL   C11330615   1.869   1.737   3.643  0.7097  0.4178  0.1429
  152MOL   C11430616   1.725   1.787   3.624 -0.7169 -0.2201  0.4767
  152MOL   O11530617   1.695   1.908   3.609 -0.0503  0.3036  0.2254
  152MOL   N11630618   1.639   1.688   3.612  0.2318 -0.9423 -0.3724
  152MOL   H11730619   1.970   1.847   3.465 -0.6782  0.0340  0.0798
  152MOL   H11830620   2.050   1.714   3.538  1.8944  2.2249 -1.5371
  152MOL   H11930621   1.854   1.639   3.689 -1.5540  0.7820  0.2642
  152MOL   H12030622   1.544   1.707   3.582 -0.4400 -2.4080  0.7058
  152MOL   H12130623   1.671   1.593   3.603  0.0340 -0.8408 -2.2063
  152MOL   C12230624   1.940   1.829   3.741  0.8280 -0.0330 -0.1162
  152MOL   C12330625   2.050   1.775   3.826 -0.0421  0.3993  0.2183
  152MOL   C12430626   2.014   1.648   3.912  0.2050 -0.3301 -0.0984
  152MOL   O12530627   1.906   1.621   3.955  0.0415 -0.5203 -0.0783
  152MOL   N12630628   2.110   1.564   3.936 -0.1578 -0.3073 -0.3772
  152MOL   H12730629   1.871   1.874   3.813 -0.4539 -0.2433 -1.1986
  152MOL   H12830630   1.983   1.916   3.691  0.8681  0.3431  0.5594
  152MOL   H12930631   2.123   1.732   3.757 -0.6290 -1.2861  0.6383
  152MOL   H13030632   2.195   1.568   3.880 -0.2674  1.7259 -0.4013
  152MOL   H13130633   2.091   1.472   3.973  2.4030 -1.3736 -1.5409
  152MOL   C13230634   2.117   1.871   3.927  0.1903 -0.4544  0.7619
  152MOL   C13330635   2.175   2.007   3.880  0.2490 -0.2469 -0.2134
  152MOL   C13430636   2.300   1.979   3.805  0.7508  0.3352 -0.1386
  152MOL   O13530637   2.403   1.953   3.868  0.3432  0.3931  0.1256
  152MOL   N13630638   2.305   2.018   3.680 -0.1389 -0.4925 -0.0988
  152MOL   H13730639   2.185   1.824   3.998 -0.9149  0.1935  2.2652
  152MOL   H13830640   2.035   1.899   3.992 -0.9749 -1.3529 -0.2893
  152MOL   H13930641   2.099   2.053   3.817 -0.8463 -0.2946  1.0538
  152MOL   H14030642   2.393   2.018   3.631 -0.8882 -1.2165 -1.4843
  152MOL   H14130643   2.227   2.056   3.629  1.4045  1.7860 -0.8084
  152MOL   C14230644   2.203   2.101   4.009  0.5936  0.8427 -0.9511
  152MOL   C14330645   2.291   2.229   4.001 -1.1888 -0.9702 -0.1511
  152MOL   C14430646   2.294   2.285   4.142  0.2092 -0.2951  0.0152
  152MOL   O14530647   2.192   2.332   4.194 -0.1130 -0.6726  0.0619
  152MOL   N14630648   2.409   2.292   4.206  0.3293  0.0920  0.2011
  152MOL   H14730649   2.251   2.040   4.085 -1.9549 -2.4792 -1.8483
  152MOL   H14830650   2.105   2.124   4.052  0.0984 -0.3184 -1.4329
  152MOL   H14930651   2.391   2.197   3.972 -1.0953 -0.0312 -0.9022
  152MOL   H15030652   2.484   2.247   4.156 -2.3337 -0.8653 -3.1835
  152MOL   H15130653   2.425   2.355   4.284 -0.6760  1.9230 -1.0317
  152MOL   C15230654   2.252   2.336   3.895 -0.0759 -0.0151  0.0225
  152MOL   C15330655   2.371   2.405   3.816 -0.3146  0.6900  0.0268
  152MOL   C15430656   2.465   2.475   3.910  0.2751 -0.3465 -0.0092
  152MOL   O15530657   2.424   2.557   3.991  0.0217  0.2800  0.4342
  152MOL   N15630658   2.595   2.449   3.907 -0.2169 -0.6516 -0.1628
  152MOL   H15730659   2.205   2.418   3.949 -0.6932 -0.5246  0.2576
  152MOL   H15830660   2.178   2.291   3.829 -2.5732  1.6163  1.6633
  152MOL   H15930661   2.420   2.318   3.772 -0.1457 -0.3901  2.2555
  152MOL   H16030662   2.651   2.486   3.982 -1.6837  0.7744  0.2462
  152MOL   H16130663   2.641   2.410   3.826  0.0538  3.0994 -1.9012
  152MOL   C16230664   2.321   2.482   3.692 -0.0730  0.2716  0.2002
  152MOL   C16330665   2.402   2.479   3.558 -0.2043 -0.0364 -0.0076
  152MOL   C16430666   2.394   2.342   3.484 -0.7446  0.2609 -0.5328
  152MOL   O16530667   2.305   2.261   3.506  0.0493 -0.1561  0.2296
  152MOL   N16630668   2.492   2.314   3.403  0.2796 -0.7312 -1.1130
  152MOL   H16730669   2.293   2.581   3.729  1.4082  0.0216  2.0951
  152MOL   H16830670   2.225   2.443   3.660  0.6977 -1.7057  0.2610
  152MOL   H16930671   2.341   2.543   3.495 -0.9305 -1.5811 -0.9066
  152MOL   H17030672   2.558   2.386   3.378  1.6852 -2.0939 -1.4307
  152MOL   H17130673   2.483   2.232   3.344  1.2224 -1.5815 -0.0969
  152MOL   C17230674   2.546   2.545   3.563  0.4678 -0.1835 -0.4333
  152MOL   C17330675   2.552   2.691   3.617  0.2874  0.3694  0.1760
  152MOL   C17430676   2.460   2.786   3.541  0.4840 -1.0589 -0.9737
  152MOL   O17530677   2.459   2.781   3.421 -0.2523  0.4108  0.2944
  152MOL   N17630678   2.376   2.860   3.615 -0.4031  0.6539 -0.0968
  152MOL   H17730679   2.593   2.554   3.465  1.5737 -0.1992  0.0804
  152MOL   H17830680   2.610   2.486   3.629  0.5949  0.0787 -0.3208
  152MOL   H17930681   2.520   2.678   3.720 -1.0718  1.0513 -0.1508
  152MOL   H18030682   2.365   2.849   3.715 -0.9521 -2.0254 -0.4252
  152MOL   H18130683   2.315   2.923   3.565  1.0697  3.1124  1.1051
  152MOL   C18230684   2.701   2.737   3.606  0.2295 -0.1891 -0.0763
  152MOL   C18330685   2.743   2.854   3.696 -0.3305  0.0950 -0.5523
  152MOL   C18430686   2.710   2.826   3.848  0.1497 -0.2911  0.1090
  152MOL   O18530687   2.608   2.859   3.898  0.0298  0.4894 -0.5417
  152MOL   N18630688   2.806   2.776   3.926  0.1321  0.0079  0.0797
  152MOL   H18730689   2.744   2.747   3.506  1.4211  0.1672  0.4556
  152MOL   H18830690   2.765   2.654   3.638 -0.0581  0.9699  3.6862
  152MOL   H18930691   2.851   2.864   3.683 -0.5365 -0.1408 -2.5340
  152MOL   H19030692   2.785   2.772   4.025 -0.4357 -0.0245 -0.0397
  152MOL   H19130693   2.882   2.725   3.884 -0.5756 -0.9504 -0.0379
  152MOL   C19230694   2.709   2.996   3.644  0.1964  0.3246 -0.4583
  152MOL   C19330695   2.751   3.032   3.505  0.4114  0.7369  0.4611
  152MOL   C19430696   2.697   3.164   3.447  0.0857  0.1553 -0.0486
  152MOL   O19530697   2.586   3.175   3.410 -0.1040  0.2468  0.1207
  152MOL   N19630698   2.780   3.268   3.429  0.1481 -0.1484  0.5973
  152MOL   H19730699   2.760   3.068   3.709  1.3211 -1.1104  0.2863
  152MOL   H19830700   2.605   3.020   3.663  0.7788  0.5213  2.9115
  152MOL   H19930701   2.860   3.026   3.504  0.4730  1.9550 -0.4464
  152MOL   H20030702   2.739   3.351   3.388 -2.7878 -0.6829  2.2498
  152MOL   H20130703   2.880   3.263   3.436  0.2779 -1.9450 -1.9313
  152MOL   H20230704   2.725   2.952   3.435 -2.8598  1.7774  0.4385
  153MOL     C130705   4.165   2.526   2.212 -0.9293 -0.6949  0.0442
  153MOL     C230706   4.281   2.551   2.305  1.0299  0.3627 -0.1873
  153MOL     C330707   4.223   2.569   2.442 -0.3141  0.0457  0.0919
  153MOL     O430708   4.173   2.671   2.479  0.2111 -0.2360  0.4455
  153MOL     N530709   4.211   2.459   2.521 -1.0269 -0.1047 -0.1838
  153MOL     H630710   4.203   2.483   2.119 -1.0721  0.1497 -0.4162
  153MOL     H730711   4.105   2.442   2.247 -0.8712  0.2631  2.5257
  153MOL     H830712   4.351   2.470   2.323  0.3785 -0.3855 -1.0105
  153MOL     H930713   4.171   2.456   2.614  0.7028 -1.7490  0.5467
  153MOL    H1030714   4.260   2.374   2.497 -1.2629 -0.4652  0.5888
  153MOL    H1130715   4.087   2.602   2.201 -1.2902 -1.3287 -2.1052
  153MOL    C1230716   4.359   2.674   2.260 -0.2217 -0.1260 -0.3419
  153MOL    C1330717   4.447   2.665   2.130  0.0274  0.5231 -1.3997
  153MOL    C1430718   4.587   2.615   2.171 -0.2122  0.6238  0.2178
  153MOL    O1530719   4.652   2.558   2.083  0.1369 -0.1937  0.0616
  153MOL    N1630720   4.639   2.629   2.287 -0.6348 -0.0888  0.4375
  153MOL    H1730721   4.421   2.713   2.341  0.5920  1.5053 -1.7249
  153MOL    H1830722   4.289   2.756   2.248 -1.0936 -1.0712 -1.8755
  153MOL    H1930723   4.397   2.586   2.074  0.1900  0.0877 -0.9333
  153MOL    H2030724   4.583   2.671   2.360 -0.2199  1.8664 -0.3468
  153MOL    H2130725   4.737   2.612   2.300 -0.7846  0.0893  1.8744
  153MOL    C2230726   4.453   2.797   2.048  0.0347  0.0501  0.0724
  153MOL    C2330727   4.558   2.903   2.087 -0.0444  0.0043 -0.0189
  153MOL    C2430728   4.535   2.959   2.229  0.3754 -0.0083 -0.8808
  153MOL    O2530729   4.423   3.001   2.261 -0.4330  0.2040 -0.1299
  153MOL    N2630730   4.639   2.951   2.310 -0.3964  0.8778  0.3204
  153MOL    H2730731   4.354   2.843   2.038  0.4995  0.6088 -2.4038
  153MOL    H2830732   4.486   2.762   1.950 -2.9928 -2.3300 -0.1933
  153MOL    H2930733   4.656   2.857   2.101 -1.4230 -2.9795  0.2215
  153MOL    H3030734   4.727   2.918   2.274 -0.1513 -0.5758  2.1334
  153MOL    H3130735   4.629   2.963   2.410  0.3557 -2.1386  0.8267
  153MOL    C3230736   4.574   3.010   1.973  0.7873 -0.9013  0.4592
  153MOL    C3330737   4.718   3.063   1.972  0.0796  0.0076 -0.2598
  153MOL    C3430738   4.737   3.217   1.948 -0.1604 -0.0059  0.2506
  153MOL    O3530739   4.670   3.303   2.005  0.2665  0.3397 -0.1740
  153MOL    N3630740   4.826   3.256   1.859 -0.2467  0.0950  0.0882
  153MOL    H3730741   4.499   3.087   1.987  0.3480 -1.9514  4.3971
  153MOL    H3830742   4.551   2.972   1.874  1.7192 -0.6624  0.1437
  153MOL    H3930743   4.751   3.078   2.075 -2.6216  0.2963  0.5839
  153MOL    H4030744   4.843   3.353   1.839  0.6909  0.5576  3.0027
  153MOL    H4130745   4.871   3.188   1.799 -0.6558 -0.0219 -0.0890
  153MOL    C4230746   4.819   2.970   1.904 -0.6819 -0.0192 -0.4919
  153MOL    C4330747   4.953   2.945   1.971 -0.8066  0.3114 -0.4462
  153MOL    C4430748   4.929   2.880   2.106  0.2524 -0.8948  0.3866
  153MOL    O4530749   4.901   2.944   2.204  0.1619 -0.1938 -0.0899
  153MOL    N4630750   4.939   2.750   2.108  0.5898  0.4188  0.1807
  153MOL    H4730751   4.836   3.010   1.804  1.3840  0.9956  0.2368
  153MOL    H4830752   4.779   2.869   1.893  1.4492 -0.8190 -1.1466
  153MOL    H4930753   5.010   2.870   1.916 -1.6707 -0.8068  0.1731
  153MOL    H5030754   4.953   2.707   2.017 -1.8200  0.6805 -0.3620
  153MOL    H5130755   4.949   2.690   2.188 -0.5987 -1.1240 -0.7894
  153MOL    C5230756   5.051   3.066   1.979 -0.6596 -0.2309  0.0754
  153MOL    C5330757   5.206   3.035   1.972 -0.1128 -0.1761  0.2872
  153MOL    C5430758   5.266   2.974   2.102  0.3720 -0.6441 -0.3375
  153MOL    O5530759   5.214   2.976   2.208  0.0802  0.2503  0.9880
  153MOL    N5630760   5.381   2.909   2.092 -0.0557  0.4468  0.2941
  153MOL    H5730761   5.023   3.141   2.052  1.2838  1.7586 -1.1763
  153MOL    H5830762   5.032   3.109   1.881 -1.7505  0.2763  0.5103
  153MOL    H5930763   5.231   2.962   1.896  0.0369  1.6200 -1.4408
  153MOL    H6030764   5.421   2.912   1.999  1.5894 -0.7060  0.9309
  153MOL    H6130765   5.414   2.842   2.160 -0.6538  1.0372  1.1644
  153MOL    C6230766   5.290   3.161   1.921  0.3284  0.3551 -0.0237
  153MOL    C6330767   5.305   3.279   2.020  0.3047 -0.1757  0.1378
  153MOL    C6430768   5.199   3.378   1.982  0.5951 -0.7571 -0.4162
  153MOL    O6530769   5.177   3.418   1.865  0.3584 -0.0819  0.1162
  153MOL    N6630770   5.137   3.435   2.083  0.4494 -0.1054  0.1079
  153MOL    H6730771   5.253   3.190   1.823 -0.1408 -2.0485 -0.5842
  153MOL    H6830772   5.389   3.131   1.888  1.9684  0.9866  4.0204
  153MOL    H6930773   5.273   3.243   2.118 -0.2662 -0.6971 -0.2424
  153MOL    H7030774   5.167   3.405   2.175 -1.9525 -0.2489  0.8886
  153MOL    H7130775   5.081   3.518   2.069  0.7150  0.2174  0.8894
  153MOL    C7230776   5.447   3.339   2.025 -0.2308  0.9329 -0.0086
  153MOL    C7330777   5.566   3.261   2.080  0.2603 -0.4986 -0.0283
  153MOL    C7430778   5.560   3.238   2.229 -0.3632 -0.0663 -0.4081
  153MOL    O7530779   5.616   3.318   2.301 -0.4652 -0.1363  0.4932
  153MOL    N7630780   5.511   3.125   2.273 -0.4875 -0.4885  0.6347
  153MOL    H7730781   5.440   3.423   2.094 -0.5699  0.5899  0.3702
  153MOL    H7830782   5.477   3.376   1.926  2.8612 -0.2139  0.4453
  153MOL    H7930783   5.573   3.165   2.029 -0.4257 -1.9193  2.4495
  153MOL    H8030784   5.509   3.098   2.370 -0.0938  0.1347  0.8165
  153MOL    H8130785   5.472   3.056   2.210 -0.0779 -2.7909  2.8191
  153MOL    C8230786   5.689   3.346   2.037  0.2355  0.3504  0.8425
  153MOL    C8330787   5.825   3.290   2.068  0.0629 -0.0340  0.5326
  153MOL    C8430788   5.913   3.402   2.113 -0.1074 -0.1410 -0.1299
  153MOL    O8530789   5.932   3.502   2.049  0.1308 -0.1509 -0.0731
  153MOL    N8630790   5.983   3.394   2.225 -0.4533 -0.5661  0.0145
  153MOL    H8730791   5.670   3.438   2.092 -0.0283 -0.4056  2.0497
  153MOL    H8830792   5.677   3.369   1.931  0.0250 -5.0878 -0.4703
  153MOL    H8930793   5.813   3.231   2.159 -1.5879 -0.6914 -0.0871
  153MOL    H9030794   6.049   3.467   2.248 -3.0488  1.3200  1.8099
  153MOL    H9130795   5.974   3.306   2.274  1.4685 -0.1935  1.0904
  153MOL    C9230796   5.890   3.218   1.951 -0.3231 -0.1365 -1.1368
  153MOL    C9330797   5.837   3.074   1.932  0.1919  0.0724 -0.2765
  153MOL    C9430798   5.802   2.993   2.058  0.0971  0.2882 -0.6558
  153MOL    O9530799   5.883   2.991   2.146  0.7313  0.0940 -0.1745
  153MOL    N9630800   5.695   2.916   2.051 -0.7063  0.2576 -0.1320
  153MOL    H9730801   5.999   3.226   1.956 -0.4404  0.1806  2.8894
  153MOL    H9830802   5.870   3.279   1.864  2.3843  2.0600 -0.3043
  153MOL    H9930803   5.739   3.082   1.884  0.1720 -0.2653 -0.2890
  153MOL   H10030804   5.664   2.857   2.127  1.3201 -0.6949 -0.0170
  153MOL   H10130805   5.632   2.934   1.975  1.0512  1.1286 -1.4314
  153MOL   C10230806   5.914   2.988   1.830 -0.4367 -0.6635  0.0766
  153MOL   C10330807   6.069   2.977   1.855 -0.3776 -0.3367  0.6092
  153MOL   C10430808   6.140   3.009   1.720  0.9509  0.1481  0.0884
  153MOL   O10530809   6.117   2.942   1.618 -0.2574 -0.4705 -0.6118
  153MOL   N10630810   6.235   3.101   1.716  0.4599  0.6954  0.2913
  153MOL   H10730811   5.891   3.027   1.731 -2.4650  2.1432  1.5624
  153MOL   H10830812   5.887   2.883   1.838  3.2685 -1.6352  0.6135
  153MOL   H10930813   6.117   3.049   1.921  1.3705  1.0481 -2.0469
  153MOL   H11030814   6.278   3.126   1.804  1.0355 -1.0966  0.5378
  153MOL   H11130815   6.288   3.123   1.633 -0.2348 -2.5763 -1.1277
  153MOL   C11230816   6.114   2.839   1.904  0.4383  0.1862  0.3596
  153MOL   C11330817   6.261   2.798   1.912 -0.5045  0.4055  0.6976
  153MOL   C11430818   6.272   2.649   1.908  0.1693  0.0005 -0.2485
  153MOL   O11530819   6.239   2.588   2.007  0.2505  0.3443  0.0631
  153MOL   N11630820   6.313   2.592   1.800  0.3101 -0.6001 -0.1445
  153MOL   H11730821   6.069   2.763   1.840 -1.4331  0.5112  1.2389
  153MOL   H11830822   6.073   2.826   2.004  1.3291 -1.7616  0.4897
  153MOL   H11930823   6.312   2.831   1.821 -3.1214  0.2830 -0.8923
  153MOL   H12030824   6.343   2.633   1.713  1.0382  0.4820  0.6110
  153MOL   H12130825   6.323   2.492   1.802  1.1734 -0.6288 -3.0157
  153MOL   C12230826   6.340   2.872   2.034 -0.0358 -0.0956  0.0574
  153MOL   C12330827   6.490   2.880   2.028 -0.0184  0.3859 -0.4715
  153MOL   C12430828   6.539   2.943   1.897 -0.2818 -0.4962  0.2756
  153MOL   O12530829   6.562   2.877   1.797  0.3639  0.5259 -0.3770
  153MOL   N12630830   6.562   3.074   1.893  0.3830 -0.0147 -1.0291
  153MOL   H12730831   6.305   2.820   2.123  0.2394 -0.1298  0.1442
  153MOL   H12830832   6.305   2.975   2.043 -1.0197 -0.3202 -0.9549
  153MOL   H12930833   6.520   2.950   2.106  1.1740 -0.6164 -0.0207
  153MOL   H13030834   6.604   3.116   1.811 -2.0470  0.5530 -2.0446
  153MOL   H13130835   6.545   3.120   1.981 -1.2942 -1.7213 -0.4262
  153MOL   C13230836   6.568   2.747   2.053 -0.7465 -0.1626  0.1726
  153MOL   C13330837   6.559   2.692   2.195 -0.4409 -0.4080  0.3494
  153MOL   C13430838   6.606   2.794   2.298  0.4713  0.2562  0.4349
  153MOL   O13530839   6.712   2.857   2.286  0.2479 -0.4842  0.2105
  153MOL   N13630840   6.523   2.827   2.395 -0.4426 -0.2622 -0.2362
  153MOL   H13730841   6.672   2.774   2.033 -1.1343  0.5798 -0.8723
  153MOL   H13830842   6.547   2.675   1.975 -0.1892 -0.6424  0.4642
  153MOL   H13930843   6.451   2.693   2.215 -0.4732  0.4348  0.1238
  153MOL   H14030844   6.435   2.778   2.402  0.0655 -1.1126  0.2553
  153MOL   H14130845   6.534   2.914   2.445 -0.0253  1.6678 -3.5531
  153MOL   C14230846   6.622   2.557   2.206  1.0124  0.7492 -0.0129
  153MOL   C14330847   6.511   2.453   2.180  0.9649  0.3083 -0.5201
  153MOL   C14430848   6.424   2.448   2.305 -0.2078 -0.3650  0.3290
  153MOL   O14530849   6.473   2.414   2.411 -0.0025 -0.3732 -0.5370
  153MOL   N14630850   6.298   2.491   2.300  0.5940 -0.1691 -0.3653
  153MOL   H14730851   6.667   2.542   2.304 -2.3272  1.7226  1.7539
  153MOL   H14830852   6.701   2.550   2.131  1.2980 -1.0517  0.4358
  153MOL   H14930853   6.451   2.469   2.090  0.6240 -1.8656 -0.7096
  153MOL   H15030854   6.264   2.541   2.219  1.2722 -0.9473 -1.1498
  153MOL   H15130855   6.230   2.457   2.366  0.3975  1.5074  0.3198
  153MOL   C15230856   6.568   2.309   2.165 -0.2236 -0.9007 -0.0467
  153MOL   C15330857   6.664   2.286   2.040 -0.3939  0.1619  0.2674
  153MOL   C15430858   6.609   2.340   1.909 -0.1626  0.7215 -0.3048
  153MOL   O15530859   6.508   2.299   1.842 -0.5247  0.1820 -0.6440
  153MOL   N15630860   6.672   2.434   1.851  0.3888  0.0454 -0.3595
  153MOL   H15730861   6.488   2.237   2.154 -1.3992  0.7307 -2.8526
  153MOL   H15830862   6.627   2.280   2.252  0.2873 -0.0701 -0.1033
  153MOL   H15930863   6.752   2.343   2.070  0.0193 -1.1272  1.6380
  153MOL   H16030864   6.750   2.472   1.904  0.6604  0.1956 -0.8619
  153MOL   H16130865   6.622   2.489   1.782 -0.4222  1.8061  1.5756
  153MOL   C16230866   6.710   2.140   2.039  0.7684 -0.4936 -0.8226
  153MOL   C16330867   6.818   2.100   1.932  0.3064 -0.0692 -0.2560
  153MOL   C16430868   6.826   1.942   1.916  0.3392  0.3613  0.1000
  153MOL   O16530869   6.924   1.886   1.956  0.2659  0.9204  0.4292
  153MOL   N16630870   6.726   1.874   1.863 -0.1289  0.1190  0.3732
  153MOL   H16730871   6.622   2.075   2.037  1.0586 -0.9552  0.7126
  153MOL   H16830872   6.762   2.126   2.133 -1.0247  0.2123  0.3107
  153MOL   H16930873   6.777   2.135   1.837  0.7418 -0.7681 -0.7025
  153MOL   H17030874   6.656   1.915   1.803 -1.4415 -0.8330  1.2183
  153MOL   H17130875   6.742   1.774   1.870  0.5989  0.1223 -1.0949
  153MOL   C17230876   6.959   2.170   1.961  0.1334 -0.3998  0.1726
  153MOL   C17330877   7.026   2.210   1.832 -0.5925 -0.0314  0.3972
  153MOL   C17430878   7.110   2.110   1.752  0.3157 -0.2598 -0.0773
  153MOL   O17530879   7.195   2.032   1.794  0.3147 -0.2840  0.1258
  153MOL   N17630880   7.082   2.116   1.621  0.1588 -0.2984 -0.0267
  153MOL   H17730881   7.023   2.091   2.001 -0.7610 -1.5019 -0.5203
  153MOL   H17830882   6.950   2.249   2.035  2.7495 -0.8931  1.0680
  153MOL   H17930883   6.948   2.252   1.769  0.3125 -1.6232 -1.8593
  153MOL   H18030884   7.127   2.042   1.570 -1.4647 -0.2613 -1.5846
  153MOL   H18130885   7.013   2.178   1.580 -1.5777 -2.4290 -0.4279
  153MOL   C18230886   7.121   2.325   1.858  0.2450  0.2524 -0.5727
  153MOL   C18330887   7.128   2.425   1.739 -0.2450 -0.5909  0.7600
  153MOL   C18430888   7.262   2.506   1.740  0.4627 -0.4373 -0.2691
  153MOL   O18530889   7.288   2.587   1.649  0.0505  0.1476  0.0860
  153MOL   N18630890   7.345   2.488   1.844  0.9778  0.0260 -0.4242
  153MOL   H18730891   7.219   2.284   1.884 -0.8724 -0.5390  2.5867
  153MOL   H18830892   7.098   2.389   1.943  2.7464 -2.2255  2.0369
  153MOL   H18930893   7.147   2.369   1.647  2.1759  0.3332  0.6503
  153MOL   H19030894   7.422   2.553   1.853  1.3261 -0.4985  0.4230
  153MOL   H19130895   7.306   2.431   1.918 -0.5125 -2.1166 -2.7782
  153MOL   C19230896   7.001   2.513   1.724 -0.3440  0.2713  0.4047
  153MOL   C19330897   6.996   2.640   1.802  0.3485 -0.8242 -0.4348
  153MOL   C19430898   6.949   2.636   1.952  0.1040 -0.6430 -0.3604
  153MOL   O19530899   6.899   2.531   1.997  0.0680  0.5229  0.6193
  153MOL   N19630900   6.969   2.739   2.037 -0.0666 -0.3300  0.2837
  153MOL   H19730901   6.916   2.446   1.737 -0.5214  0.1013 -1.4946
  153MOL   H19830902   7.003   2.533   1.617 -2.2193 -1.7564 -0.0375
  153MOL   H19930903   7.088   2.695   1.823 -0.9907  0.4795  2.1566
  153MOL   H20030904   6.990   2.834   2.010 -1.5184  0.3341  1.4512
  153MOL   H20130905   6.938   2.718   2.131 -0.7326 -1.6203 -0.2125
  153MOL   H20230906   6.939   2.712   1.743  0.1567 -0.6857 -0.0789
  154MOL     C130907   3.639   5.558   0.519  0.1023  0.8191  0.1515
  154MOL     C230908   3.729   5.553   0.391  0.1957 -0.5190  0.1304
  154MOL     C330909   3.862   5.478   0.427  0.2089 -0.0398 -0.2042
  154MOL     O430910   3.956   5.530   0.490  0.4579 -0.0671  0.4453
  154MOL     N530911   3.885   5.357   0.376 -0.1821 -0.2203  0.0611
  154MOL     H630912   3.669   5.641   0.584 -0.1353 -0.3442  1.7641
  154MOL     H730913   3.534   5.552   0.493  0.2242 -3.2191  0.2695
  154MOL     H830914   3.675   5.485   0.325  0.8215 -0.3172 -0.5969
  154MOL     H930915   3.967   5.300   0.393  0.2561  0.2356 -0.4871
  154MOL    H1030916   3.811   5.312   0.325 -0.4426  0.3623 -0.0687
  154MOL    H1130917   3.654   5.463   0.571  0.5761  1.0588  0.4591
  154MOL    C1230918   3.731   5.685   0.307 -1.1392 -0.1354  0.0619
  154MOL    C1330919   3.750   5.678   0.152  0.9193 -0.4902 -0.2924
  154MOL    C1430920   3.901   5.680   0.130  0.2281  0.5411 -0.2361
  154MOL    O1530921   3.966   5.780   0.135 -0.1119 -0.7817  0.0468
  154MOL    N1630922   3.963   5.560   0.114 -0.0208 -0.1771  0.3168
  154MOL    H1730923   3.801   5.751   0.358 -0.3360 -1.6485  0.9683
  154MOL    H1830924   3.637   5.736   0.328 -0.6055  0.6713  0.5254
  154MOL    H1930925   3.716   5.578   0.126 -2.3842 -0.2464  2.6019
  154MOL    H2030926   3.913   5.473   0.108  0.4950 -0.3246 -2.3120
  154MOL    H2130927   4.063   5.551   0.099 -0.2737 -0.8947 -0.9951
  154MOL    C2230928   3.663   5.778   0.072  0.6583 -0.5347  0.1439
  154MOL    C2330929   3.516   5.734   0.054  0.6001 -0.3726  0.4245
  154MOL    C2430930   3.492   5.599   7.636 -0.2735 -0.1823 -0.2456
  154MOL    O2530931   3.584   5.547   7.574 -0.2369 -0.5307 -0.4284
  154MOL    N2630932   3.376   5.540   7.645  0.1550  0.3173  0.0599
  154MOL    H2730933   3.714   5.808   7.637  0.8950 -1.8505 -0.1664
  154MOL    H2830934   3.662   5.869   0.132  3.4662  0.3533 -1.0545
  154MOL    H2930935   3.475   5.710   0.153  2.1645 -0.2992  1.1093
  154MOL    H3030936   3.364   5.451   7.598  0.7051  0.6317 -0.6880
  154MOL    H3130937   3.300   5.579   0.042 -0.9677 -1.3915 -0.2400
  154MOL    C3230938   3.422   5.847   0.017 -0.4055  0.2984  0.3163
  154MOL    C3330939   3.422   5.904   7.528 -0.2852  0.4836 -0.0270
  154MOL    C3430940   3.494   6.037   7.523 -0.2852  0.4459  0.5518
  154MOL    O3530941   3.433   6.137   7.552 -0.0778  0.0863 -0.0447
  154MOL    N3630942   3.620   6.042   7.480 -0.1285 -0.0196 -0.8630
  154MOL    H3730943   3.447   5.935   0.076  0.1984  1.2462 -1.3503
  154MOL    H3830944   3.324   5.828   0.061 -1.4172  1.3278 -1.4866
  154MOL    H3930945   3.487   5.835   7.474  0.1924  0.1336  0.9935
  154MOL    H4030946   3.670   6.128   7.463  0.6575 -0.1084  0.9866
  154MOL    H4130947   3.666   5.959   7.445 -1.2699  0.5287 -3.8227
  154MOL    C4230948   3.280   5.905   7.469 -0.0559 -0.0427 -0.5499
  154MOL    C4330949   3.259   5.944   7.319 -0.6563  0.6142  0.8024
  154MOL    C4430950   3.193   6.075   7.303  0.5851 -0.3922 -0.2806
  154MOL    O4530951   3.072   6.081   7.268  0.1379  0.5358 -0.3020
  154MOL    N4630952   3.260   6.194   7.325  0.3578  0.3217  0.1737
  154MOL    H4730953   3.220   5.968   7.535  3.5291  1.8700  0.9686
  154MOL    H4830954   3.233   5.807   7.482  0.3078 -0.1568 -0.0884
  154MOL    H4930955   3.360   5.957   7.281 -1.7579 -0.3919 -2.6152
  154MOL    H5030956   3.342   6.181   7.382  1.0400 -1.8275 -1.2429
  154MOL    H5130957   3.212   6.283   7.325 -1.6679 -0.6920 -2.6514
  154MOL    C5230958   3.179   5.832   7.247  0.2126  0.8259  0.6224
  154MOL    C5330959   3.261   5.709   7.199  0.1684 -1.1258 -0.7002
  154MOL    C5430960   3.383   5.739   7.095 -0.9796  0.3609 -0.1894
  154MOL    O5530961   3.361   5.819   7.007  0.4917 -0.1517 -0.0107
  154MOL    N5630962   3.498   5.675   7.104 -0.1555 -0.4745 -0.6429
  154MOL    H5730963   3.127   5.873   7.161  1.7271 -0.1912 -0.8163
  154MOL    H5830964   3.102   5.797   7.316 -1.1044 -2.4654 -2.3998
  154MOL    H5930965   3.306   5.674   7.292 -2.8218 -1.6042  0.6344
  154MOL    H6030966   3.513   5.599   7.169 -0.3201 -1.0247 -1.2387
  154MOL    H6130967   3.557   5.692   7.024 -0.2968  1.4888 -0.3502
  154MOL    C6230968   3.162   5.608   7.137 -0.0984  0.3615 -0.4507
  154MOL    C6330969   3.212   5.470   7.125 -0.4728 -0.0500 -0.1303
  154MOL    C6430970   3.111   5.386   7.042 -0.1665  0.2409  0.0839
  154MOL    O6530971   2.991   5.404   7.052  0.2445 -0.5058 -0.4619
  154MOL    N6630972   3.161   5.293   6.965  0.1885  0.7858 -0.5956
  154MOL    H6730973   3.126   5.651   7.043 -1.1217  1.5137  0.4385
  154MOL    H6830974   3.071   5.598   7.196  1.0061  0.4186  1.2757
  154MOL    H6930975   3.303   5.476   7.065  0.1975 -0.8509  0.7788
  154MOL    H7030976   3.086   5.257   6.908 -1.2154  1.9706  0.4641
  154MOL    H7130977   3.255   5.256   6.961  0.8536  2.5611 -2.2283
  154MOL    C7230978   3.242   5.415   7.267  0.1183  0.3667 -0.6047
  154MOL    C7330979   3.342   5.292   7.268  0.1622  0.4383 -0.2552
  154MOL    C7430980   3.321   5.215   7.401  0.5869  0.3581  0.6377
  154MOL    O7530981   3.335   5.257   7.517  0.2101  0.0521  0.4223
  154MOL    N7630982   3.292   5.083   7.377 -0.8627  0.0783  0.7318
  154MOL    H7730983   3.151   5.378   7.314  0.3694 -0.3069 -0.6366
  154MOL    H7830984   3.289   5.496   7.322 -0.6351 -0.8184  1.8586
  154MOL    H7930985   3.328   5.221   7.186  0.8647  0.7831 -0.6826
  154MOL    H8030986   3.283   5.018   7.454  0.2292 -0.0920  0.7226
  154MOL    H8130987   3.282   5.044   7.285  0.7660 -0.1904  0.6554
  154MOL    C8230988   3.488   5.348   7.260  0.0654 -0.1319  0.1307
  154MOL    C8330989   3.597   5.243   7.251  1.0164  0.7035  0.3243
  154MOL    C8430990   3.730   5.303   7.293 -0.2632 -0.8477  0.2285
  154MOL    O8530991   3.767   5.414   7.245  0.3867 -0.0002  0.2779
  154MOL    N8630992   3.795   5.242   7.390  0.0467  0.1307  0.1040
  154MOL    H8730993   3.514   5.408   7.348  2.3752 -0.1810 -0.4791
  154MOL    H8830994   3.489   5.413   7.173 -1.2038  0.6100  0.6583
  154MOL    H8930995   3.579   5.172   7.332  2.3336  0.2834  0.2463
  154MOL    H9030996   3.757   5.154   7.423  0.3034 -0.4157 -1.0422
  154MOL    H9130997   3.873   5.284   7.438  0.1461  1.9894 -1.6404
  154MOL    C9230998   3.607   5.164   7.107  0.7731  0.5634 -0.0744
  154MOL    C9330999   3.643   5.247   6.983  0.2345  0.8256 -0.0859
  154MOL    C9431000   3.517   5.255   6.889  0.0764 -0.0910 -0.4751
  154MOL    O9531001   3.448   5.157   6.874  0.3623  0.1208  0.1939
  154MOL    N9631002   3.499   5.366   6.817  0.3192  0.3644 -0.5430
  154MOL    H9731003   3.513   5.111   7.096  0.8998  0.6196 -1.4848
  154MOL    H9831004   3.683   5.088   7.124 -0.8711 -0.9623  0.6211
  154MOL    H9931005   3.684   5.346   7.004 -0.3670  1.3284 -1.1999
  154MOL   H10031006   3.571   5.436   6.810  1.5047 -0.6946  0.7120
  154MOL   H10131007   3.436   5.363   6.738 -1.6293  1.3999  0.9168
  154MOL   C10231008   3.754   5.174   6.903  0.6149  0.3663 -0.2239
  154MOL   C10331009   3.891   5.213   6.963  0.1762 -0.3868  0.2584
  154MOL   C10431010   3.942   5.350   6.922  0.6383  0.3869 -0.5722
  154MOL   O10531011   3.978   5.376   6.808 -0.2254  0.3384  0.1831
  154MOL   N10631012   3.940   5.444   7.017 -0.0297  0.2481  0.8236
  154MOL   H10731013   3.752   5.214   6.802 -1.4056 -1.2527 -0.8809
  154MOL   H10831014   3.724   5.069   6.900 -0.5426  0.6626  0.2910
  154MOL   H10931015   3.882   5.223   7.071  1.0684  0.5442  0.2543
  154MOL   H11031016   3.887   5.430   7.102  1.1558  0.2173  1.5755
  154MOL   H11131017   3.937   5.535   6.972  0.3268  0.6516  1.5846
  154MOL   C11231018   3.995   5.105   6.915 -0.0283 -1.3004 -0.1581
  154MOL   C11331019   4.005   4.963   6.989  0.3023 -0.2272 -0.2187
  154MOL   C11431020   4.051   4.997   7.129  0.1357  0.2741  0.5465
  154MOL   O11531021   3.973   5.005   7.220  0.7790  0.1050 -0.1579
  154MOL   N11631022   4.180   5.019   7.154  0.1419  0.1396  0.2073
  154MOL   H11731023   4.092   5.153   6.908 -1.6853  1.9769 -1.7373
  154MOL   H11831024   3.962   5.074   6.815  0.5470 -0.6891 -0.5393
  154MOL   H11931025   3.900   4.934   6.985 -0.6208  3.0407 -2.6522
  154MOL   H12031026   4.197   5.014   7.253  0.2026 -0.1176  0.1849
  154MOL   H12131027   4.261   5.010   7.094 -0.4948  2.2760 -1.0386
  154MOL   C12231028   4.096   4.859   6.920 -0.2966  0.0591 -0.6536
  154MOL   C12331029   4.010   4.742   6.858  0.4726  0.5056  0.8193
  154MOL   C12431030   4.081   4.608   6.869  0.4744  0.3680  0.2965
  154MOL   O12531031   4.052   4.534   6.958 -0.4688  0.2721 -0.2948
  154MOL   N12631032   4.173   4.581   6.776 -0.0218 -0.0285 -0.2794
  154MOL   H12731033   4.165   4.820   6.996 -0.7512  0.9883  0.2431
  154MOL   H12831034   4.159   4.912   6.849  0.6947 -1.7531 -1.1543
  154MOL   H12931035   3.911   4.729   6.903  0.5472 -1.0870  0.5418
  154MOL   H13031036   4.231   4.505   6.808  2.2013  1.8806  0.3520
  154MOL   H13131037   4.205   4.659   6.720 -0.0465  0.1352 -0.0661
  154MOL   C13231038   3.962   4.785   6.716  1.3712 -0.2535 -0.5921
  154MOL   C13331039   3.878   4.684   6.635 -0.1671  0.3364  0.1670
  154MOL   C13431040   3.826   4.752   6.508  0.0100  1.1083 -0.0360
  154MOL   O13531041   3.804   4.869   6.500  0.7654  0.1115 -0.1097
  154MOL   N13631042   3.813   4.684   6.392  0.4284  0.3405  0.0049
  154MOL   H13731043   4.058   4.802   6.669  1.6912 -1.8891 -0.5626
  154MOL   H13831044   3.914   4.882   6.726  0.0191 -0.9577 -0.1482
  154MOL   H13931045   3.936   4.597   6.606 -0.7999  0.1540 -0.5766
  154MOL   H14031046   3.783   4.711   6.299  0.3594  0.6760  0.1270
  154MOL   H14131047   3.851   4.591   6.400  0.6613  0.6033  2.0169
  154MOL   C14231048   3.760   4.622   6.706  0.7493  0.3278  0.4033
  154MOL   C14331049   3.764   4.467   6.738 -0.7657 -0.6575 -0.4686
  154MOL   C14431050   3.760   4.375   6.611 -0.3457  0.4759 -0.3645
  154MOL   O14531051   3.742   4.416   6.494  0.2071  0.1525 -0.1347
  154MOL   N14631052   3.793   4.249   6.637 -0.0886  0.6752 -0.0348
  154MOL   H14731053   3.664   4.639   6.656  0.3296  0.1400  1.1410
  154MOL   H14831054   3.734   4.682   6.793  1.5035 -0.9771  1.5471
  154MOL   H14931055   3.856   4.450   6.792  0.9605  0.7170 -2.8702
  154MOL   H15031056   3.819   4.180   6.567  0.1577 -0.8072  1.4986
  154MOL   H15131057   3.776   4.223   6.733  1.6948 -1.8707 -0.3659
  154MOL   C15231058   3.652   4.417   6.833  0.3511 -0.1263  0.4230
  154MOL   C15331059   3.503   4.425   6.790 -0.7552  0.0843  0.6040
  154MOL   C15431060   3.443   4.575   6.790 -0.0182  0.5018  0.0942
  154MOL   O15531061   3.481   4.661   6.867 -0.1038  0.2618  0.0455
  154MOL   N15631062   3.364   4.606   6.690  0.8263  0.5611  0.3974
  154MOL   H15731063   3.667   4.464   6.930  0.1432  1.3843 -0.2665
  154MOL   H15831064   3.670   4.318   6.876  2.3875  0.7189  1.5851
  154MOL   H15931065   3.512   4.384   6.690  0.1660 -1.7949  1.4376
  154MOL   H16031066   3.334   4.701   6.672  1.0175  0.8518  1.6166
  154MOL   H16131067   3.345   4.530   6.627 -2.3611 -0.8761  2.9805
  154MOL   C16231068   3.424   4.326   6.879  0.0183 -0.0799  0.6668
  154MOL   C16331069   3.282   4.285   6.827 -0.1458 -0.1701  0.4311
  154MOL   C16431070   3.192   4.247   6.941  0.5827  0.4962 -0.3092
  154MOL   O16531071   3.220   4.153   7.012 -0.4735  0.1682 -0.0063
  154MOL   N16631072   3.083   4.317   6.965 -0.0817 -0.2859  0.0874
  154MOL   H16731073   3.406   4.372   6.976 -1.8102 -0.5146  0.5475
  154MOL   H16831074   3.474   4.229   6.885  0.7555  0.3152  1.0748
  154MOL   H16931075   3.247   4.381   6.791  2.2414  0.2638 -0.8738
  154MOL   H17031076   3.039   4.305   7.055 -0.7899  1.1532 -0.0493
  154MOL   H17131077   3.055   4.393   6.905  1.7525 -0.4316 -1.0035
  154MOL   C17231078   3.286   4.177   6.714  0.3052  0.6016 -0.1012
  154MOL   C17331079   3.167   4.168   6.617 -0.1212  0.0246 -0.1465
  154MOL   C17431080   3.040   4.090   6.667 -0.4825 -0.1500 -0.3474
  154MOL   O17531081   3.047   3.969   6.694  0.1483 -0.3091 -0.5366
  154MOL   N17631082   2.935   4.155   6.689  0.0411 -0.0233 -0.3392
  154MOL   H17731083   3.304   4.078   6.758 -0.3094  1.2587  1.6737
  154MOL   H17831084   3.379   4.181   6.657 -0.6293  1.2679 -1.5881
  154MOL   H17931085   3.141   4.271   6.594 -0.7062 -0.6664 -2.7219
  154MOL   H18031086   2.927   4.251   6.657  0.6227  0.2293  0.2713
  154MOL   H18131087   2.851   4.104   6.714  0.0605 -0.8227 -1.8602
  154MOL   C18231088   3.213   4.101   6.484  0.2894  0.0028  0.3232
  154MOL   C18331089   3.241   4.200   6.367 -0.1030  0.8605 -0.2748
  154MOL   C18431090   3.183   4.146   6.233 -0.3880  0.3544  0.5824
  154MOL   O18531091   3.250   4.114   6.136  0.1665 -0.0806 -0.1678
  154MOL   N18631092   3.052   4.140   6.219 -0.5899 -0.7163 -0.4929
  154MOL   H18731093   3.131   4.038   6.449  1.0779 -0.4506 -0.7813
  154MOL   H18831094   3.292   4.026   6.494 -0.1772 -0.5305  0.1031
  154MOL   H18931095   3.204   4.300   6.387 -0.4922  0.9021 -1.1631
  154MOL   H19031096   2.997   4.168   6.299  2.7883  2.7432  0.7447
  154MOL   H19131097   3.016   4.095   6.135  1.7203 -3.6136 -0.0325
  154MOL   C19231098   3.397   4.223   6.350  0.1497  0.1738  0.3692
  154MOL   C19331099   3.453   4.353   6.276 -0.3994  0.1622  0.0268
  154MOL   C19431100   3.415   4.478   6.348  0.2727  0.7777 -0.4152
  154MOL   O19531101   3.296   4.514   6.355 -0.2312  0.6043 -0.0721
  154MOL   N19631102   3.505   4.557   6.404  0.1168 -0.5012  0.6436
  154MOL   H19731103   3.443   4.140   6.296 -0.1770  0.6211 -0.6270
  154MOL   H19831104   3.442   4.220   6.449 -4.5298  1.7559  2.6567
  154MOL   H19931105   3.560   4.356   6.255 -0.4467 -0.1225 -0.2600
  154MOL   H20031106   3.594   4.511   6.418  0.1121 -0.0760  2.1807
  154MOL   H20131107   3.475   4.647   6.439 -0.3710 -0.9507  1.3853
  154MOL   H20231108   3.396   4.363   6.184 -1.0730  0.3600  0.4588
  155MOL     C131109   4.801   0.495   4.873 -0.0831 -0.3155 -0.2673
  155MOL     C231110   4.675   0.577   4.888 -0.3775  0.1886 -0.1930
  155MOL     C331111   4.668   0.694   4.795  0.1791  0.1292  0.2616
  155MOL     O431112   4.774   0.747   4.763 -0.2759 -0.1877 -0.3971
  155MOL     N531113   4.551   0.729   4.745  0.5717  0.1586 -0.0199
  155MOL     H631114   4.828   0.484   4.768 -0.9786  1.2687 -0.6929
  155MOL     H731115   4.881   0.542   4.929  0.5914  1.4656 -2.6215
  155MOL     H831116   4.596   0.508   4.858  0.1120 -0.2765 -0.4055
  155MOL     H931117   4.534   0.805   4.681 -0.7872  1.0082  1.3219
  155MOL    H1031118   4.464   0.680   4.758  0.6987 -0.5811 -1.7665
  155MOL    H1131119   4.786   0.395   4.913  0.5166 -0.5648 -0.6650
  155MOL    C1231120   4.638   0.618   5.035 -0.4687  0.2523  1.1133
  155MOL    C1331121   4.502   0.569   5.092 -0.7654 -0.6808 -0.4155
  155MOL    C1431122   4.394   0.633   5.015  0.1585 -0.8231  1.2583
  155MOL    O1531123   4.327   0.564   4.943 -1.0648  0.2481  0.4190
  155MOL    N1631124   4.372   0.764   5.032  0.0874 -0.7459 -0.1328
  155MOL    H1731125   4.660   0.722   5.056 -0.7746  1.1164 -2.5672
  155MOL    H1831126   4.711   0.578   5.105 -0.8129 -0.6847  0.9583
  155MOL    H1931127   4.490   0.461   5.082  1.0680 -0.9816  0.5743
  155MOL    H2031128   4.313   0.817   4.970  0.5649  1.0678  0.9168
  155MOL    H2131129   4.441   0.812   5.088  0.2485  1.1918 -1.9237
  155MOL    C2231130   4.477   0.602   5.239  0.6500  0.3761 -0.0209
  155MOL    C2331131   4.357   0.530   5.305 -0.0283 -0.8540 -0.8847
  155MOL    C2431132   4.309   0.604   5.428  0.0545 -0.8077 -1.1009
  155MOL    O2531133   4.189   0.635   5.447 -0.7041  0.3206  0.5118
  155MOL    N2631134   4.397   0.632   5.523  0.3405  0.2167  0.0668
  155MOL    H2731135   4.465   0.707   5.265  0.2962  0.1044  0.9506
  155MOL    H2831136   4.552   0.547   5.296  0.1654  0.5251  0.7814
  155MOL    H2931137   4.271   0.527   5.238 -2.0710 -0.3316  1.6535
  155MOL    H3031138   4.372   0.668   5.614  2.4892  0.5917  0.5526
  155MOL    H3131139   4.497   0.623   5.512  0.7436  2.7377  1.1652
  155MOL    C3231140   4.385   0.378   5.344 -0.2621 -0.1128  0.1341
  155MOL    C3331141   4.261   0.290   5.375 -0.2336 -1.0356 -0.3668
  155MOL    C3431142   4.283   0.202   5.500 -0.1026  0.2273 -0.0086
  155MOL    O3531143   4.209   0.222   5.593  0.1156 -0.1602 -0.0244
  155MOL    N3631144   4.365   0.102   5.508  0.0915  0.2554 -0.4271
  155MOL    H3731145   4.445   0.382   5.434  1.3985 -0.9149 -0.9191
  155MOL    H3831146   4.454   0.342   5.268  1.0720 -0.5174  1.5193
  155MOL    H3931147   4.180   0.358   5.400  0.0615 -0.2798 -1.4346
  155MOL    H4031148   4.385   0.063   5.600  0.9223  0.6843 -0.4138
  155MOL    H4131149   4.433   0.092   5.433  0.3437 -1.2931 -0.0191
  155MOL    C4231150   4.204   0.200   5.269  0.0579 -0.0078 -0.3214
  155MOL    C4331151   4.171   0.261   5.129  0.2066 -0.5376 -0.2408
  155MOL    C4431152   4.054   0.360   5.133  0.5166  0.0079  0.2918
  155MOL    O4531153   3.964   0.351   5.210  0.2584 -0.4025 -0.1488
  155MOL    N4631154   4.068   0.464   5.051 -0.0921  0.0972 -0.1027
  155MOL    H4731155   4.113   0.158   5.312 -1.5489  1.4525 -2.2010
  155MOL    H4831156   4.276   0.119   5.253  1.4176  0.8581  1.3221
  155MOL    H4931157   4.260   0.318   5.100 -0.1347 -0.4090 -1.0522
  155MOL    H5031158   3.985   0.522   5.055 -0.4545 -0.4054 -0.1825
  155MOL    H5131159   4.141   0.473   4.983  0.6977  3.4609  1.1248
  155MOL    C5231160   4.139   0.146   5.030  0.1882  0.6827  0.4089
  155MOL    C5331161   4.229   0.131   4.902 -0.3953 -0.2062 -0.4570
  155MOL    C5431162   4.233   0.258   4.817 -0.1908  0.1814 -0.2886
  155MOL    O5531163   4.130   0.304   4.772 -0.3885 -0.2103 -0.2005
  155MOL    N5631164   4.350   0.313   4.787  0.3022  0.5272 -0.1235
  155MOL    H5731165   4.037   0.161   4.996  0.2549 -0.1724 -0.1960
  155MOL    H5831166   4.144   0.050   5.081 -2.1574  0.7304  0.7759
  155MOL    H5931167   4.325   0.105   4.945  0.3024  2.5889 -0.2415
  155MOL    H6031168   4.354   0.398   4.733  2.1519 -1.2978 -2.9811
  155MOL    H6131169   4.436   0.271   4.819  0.0099 -0.0469 -0.0992
  155MOL    C6231170   4.194   0.014   4.808  0.1837 -0.2901  1.3212
  155MOL    C6331171   4.303   7.595   4.727 -0.0675 -0.0749  0.4798
  155MOL    C6431172   4.352   0.027   4.612 -0.2561  0.3962  0.7136
  155MOL    O6531173   4.276   0.084   4.535  0.1891  0.2779 -0.1780
  155MOL    N6631174   4.480   0.031   4.597 -0.4437  0.5907 -0.7101
  155MOL    H6731175   4.121   0.044   4.732 -0.0250  1.1613  2.0925
  155MOL    H6831176   4.145   7.593   4.866 -0.4047  0.1390  1.4033
  155MOL    H6931177   4.385   7.578   4.798  0.4578 -0.5917 -0.2386
  155MOL    H7031178   4.543   7.648   4.666 -0.0750  0.7841 -0.9319
  155MOL    H7131179   4.515   0.094   4.526 -0.7420  1.2831 -0.2517
  155MOL    C7231180   4.253   7.457   4.669 -0.5544  0.5359 -0.0555
  155MOL    C7331181   4.362   7.354   4.616  0.1769  0.2637 -0.3110
  155MOL    C7431182   4.397   7.377   4.466  0.1712  0.1788 -0.1479
  155MOL    O7531183   4.511   7.393   4.426 -0.0986  1.0350  0.0477
  155MOL    N7631184   4.295   7.365   4.381  0.5331 -0.0686  0.0731
  155MOL    H7731185   4.176   7.458   4.591 -1.1170  1.7839  0.5055
  155MOL    H7831186   4.207   7.409   4.754  0.3592 -3.1941 -1.5897
  155MOL    H7931187   4.455   7.386   4.664 -1.3430  2.5359  1.1757
  155MOL    H8031188   4.198   7.351   4.405  0.2794  1.0283 -0.2584
  155MOL    H8131189   4.325   7.362   4.284 -0.2523  1.3955 -0.2327
  155MOL    C8231190   4.325   7.204   4.636 -0.2004  0.0119  0.5580
  155MOL    C8331191   4.397   7.137   4.752  0.1791 -0.1783 -0.7657
  155MOL    C8431192   4.535   7.111   4.707 -0.1405 -0.1501 -0.0591
  155MOL    O8531193   4.564   7.010   4.645  0.5019  0.0659 -0.6429
  155MOL    N8631194   4.626   7.200   4.725 -1.0724  0.2248 -0.9914
  155MOL    H8731195   4.354   7.149   4.546 -1.3884 -0.0722  0.2132
  155MOL    H8831196   4.218   7.184   4.648  0.1747 -1.1871  1.9725
  155MOL    H8931197   4.415   7.189   4.847 -0.4331 -0.3536 -0.5464
  155MOL    H9031198   4.600   7.288   4.768 -1.6613  0.4416 -1.7736
  155MOL    H9131199   4.722   7.171   4.722 -1.2858 -0.4896 -1.0338
  155MOL    C9231200   4.330   7.008   4.786  0.1673 -0.1436 -0.3938
  155MOL    C9331201   4.200   7.014   4.868  0.2681  0.0619  0.1960
  155MOL    C9431202   4.210   6.954   5.008 -1.1095  0.4664 -0.1352
  155MOL    O9531203   4.259   6.841   5.026 -0.0195 -0.1729  0.3655
  155MOL    N9631204   4.155   7.020   5.111 -0.2731 -0.8897 -0.5546
  155MOL    H9731205   4.403   6.951   4.844  1.0431 -1.3719 -2.6161
  155MOL    H9831206   4.322   6.955   4.691  0.3890  0.7230 -0.8962
  155MOL    H9931207   4.184   7.121   4.884  0.3731 -0.0791  1.2637
  155MOL   H10031208   4.149   6.971   5.199  2.2365  0.2944  0.3234
  155MOL   H10131209   4.122   7.116   5.111  1.8457 -0.1147  0.7442
  155MOL   C10231210   4.082   6.956   4.786 -0.5608 -0.1312  0.7328
  155MOL   C10331211   3.952   7.017   4.830 -0.4817 -0.4436  0.3216
  155MOL   C10431212   3.841   6.910   4.853 -0.2360 -0.1012  0.3739
  155MOL   O10531213   3.759   6.882   4.765  0.1035  0.1766 -0.3990
  155MOL   N10631214   3.837   6.852   4.976  0.0969  0.1410  0.6159
  155MOL   H10731215   4.086   6.848   4.799  1.5870 -0.4729 -2.3103
  155MOL   H10831216   4.101   6.979   4.681  0.3521  1.7099  1.2709
  155MOL   H10931217   3.961   7.057   4.931 -0.6197 -0.9799  0.5463
  155MOL   H11031218   3.758   6.796   5.003 -1.3504  1.1176 -1.4255
  155MOL   H11131219   3.919   6.863   5.033  0.4844 -0.3120  0.1488
  155MOL   C11231220   3.913   7.121   4.727 -0.1905 -0.1139  0.2038
  155MOL   C11331221   3.785   7.206   4.777  0.0536  0.1178  1.2269
  155MOL   C11431222   3.696   7.230   4.653 -0.4770 -0.1761 -0.7387
  155MOL   O11531223   3.677   7.339   4.607  0.0517  0.7549 -0.1491
  155MOL   N11631224   3.655   7.118   4.600 -0.7978  0.4263  0.2530
  155MOL   H11731225   3.909   7.079   4.627 -0.5668 -1.3034  0.7086
  155MOL   H11831226   3.994   7.194   4.718 -0.9592  0.6044 -0.9946
  155MOL   H11931227   3.727   7.135   4.835  0.4446  0.3398  1.9003
  155MOL   H12031228   3.606   7.129   4.512  0.0503 -0.9769 -0.4193
  155MOL   H12131229   3.690   7.032   4.638  1.5617  2.0516  1.8808
  155MOL   C12231230   3.817   7.333   4.860 -0.2825  0.1451  0.1249
  155MOL   C12331231   3.859   7.309   5.010  0.2573 -0.6175 -0.3547
  155MOL   C12431232   3.751   7.219   5.076  0.2395  0.0418  0.7157
  155MOL   O12531233   3.636   7.258   5.074  0.7856  0.6118  0.1705
  155MOL   N12631234   3.790   7.113   5.152 -0.0259 -0.1386  0.0572
  155MOL   H12731235   3.736   7.405   4.853 -0.1338  0.2042 -1.0536
  155MOL   H12831236   3.887   7.402   4.812 -1.0151  0.6474 -0.2330
  155MOL   H12931237   3.956   7.258   5.004  0.1203 -0.6357 -2.6281
  155MOL   H13031238   3.884   7.081   5.170 -0.1458  0.8510  2.7562
  155MOL   H13131239   3.720   7.048   5.185  1.9578 -1.8147  1.0968
  155MOL   C13231240   3.877   7.456   5.069  0.6370 -0.4546  0.1801
  155MOL   C13331241   3.935   7.475   5.219  1.3425  0.5533  0.5886
  155MOL   C13431242   4.054   7.391   5.268 -0.4715  0.1314 -0.1272
  155MOL   O13531243   4.080   7.279   5.233  0.3878  0.5583 -0.2416
  155MOL   N13631244   4.137   7.444   5.360  0.1485  0.2513 -0.2608
  155MOL   H13731245   3.778   7.500   5.054  0.6156 -0.5694 -0.0238
  155MOL   H13831246   3.929   7.519   4.997 -0.3968  2.0864  1.5867
  155MOL   H13931247   3.979   7.575   5.217 -0.2938  1.2731 -2.7258
  155MOL   H14031248   4.126   7.541   5.388 -0.7168 -0.4983  2.0825
  155MOL   H14131249   4.202   7.388   5.413 -0.1035 -0.9337 -1.1981
  155MOL   C14231250   3.814   7.464   5.321  0.5175  0.0195 -0.0357
  155MOL   C14331251   3.700   7.565   5.310  0.0925  0.4094 -0.1810
  155MOL   C14431252   3.771   0.044   5.350  0.3362 -0.0181 -0.5436
  155MOL   O14531253   3.803   0.072   5.464  0.2010  0.0374 -0.0557
  155MOL   N14631254   3.805   0.127   5.253  0.7858  0.0202 -0.7181
  155MOL   H14731255   3.854   7.485   5.420 -0.5171  1.2536  0.1350
  155MOL   H14831256   3.778   7.361   5.323 -1.3875  0.6833  0.4208
  155MOL   H14931257   3.657   7.570   5.210 -0.5162 -0.0930  0.0538
  155MOL   H15031258   3.755   0.113   5.166 -1.7996 -1.7384  0.9887
  155MOL   H15131259   3.856   0.213   5.269 -0.7104  0.8428 -0.2913
  155MOL   C15231260   3.575   7.527   5.401 -0.7174 -0.2083 -0.0647
  155MOL   C15331261   3.434   7.580   5.361  0.3016 -0.9300  0.4799
  155MOL   C15431262   3.371   7.516   5.231  0.2338 -0.2470  0.1987
  155MOL   O15531263   3.272   7.572   5.183  0.0094 -0.1139 -0.4139
  155MOL   N15631264   3.419   7.407   5.177 -0.8080  0.2046  0.5555
  155MOL   H15731265   3.594   7.553   5.505 -1.3668 -2.4591  0.6466
  155MOL   H15831266   3.571   7.418   5.402  0.9543 -0.2886 -1.1220
  155MOL   H15931267   3.373   7.546   5.445 -1.2957  0.9877  0.1173
  155MOL   H16031268   3.385   7.355   5.097 -0.6176  0.3800  0.3612
  155MOL   H16131269   3.500   7.360   5.214 -1.2636 -0.8214  0.2771
  155MOL   C16231270   3.428   0.079   5.359 -0.5619 -0.0846  0.2942
  155MOL   C16331271   3.461   0.159   5.489 -0.3302  0.0161  0.3043
  155MOL   C16431272   3.345   0.143   5.591  0.2110 -0.2337 -0.6318
  155MOL   O16531273   3.228   0.128   5.553 -0.2028 -0.0280 -0.2821
  155MOL   N16631274   3.373   0.144   5.721  0.3811 -0.4458  0.1474
  155MOL   H16731275   3.332   0.111   5.319 -0.1124  0.3428 -0.4743
  155MOL   H16831276   3.499   0.114   5.283 -0.4828 -0.6098  0.1208
  155MOL   H16931277   3.546   0.116   5.542 -0.9433 -2.3540 -0.5619
  155MOL   H17031278   3.297   0.156   5.787  0.0817 -1.7317  0.0460
  155MOL   H17131279   3.470   0.154   5.747  0.7228 -0.8578 -0.9372
  155MOL   C17231280   3.506   0.295   5.459 -0.3320 -0.0017 -0.3872
  155MOL   C17331281   3.580   0.382   5.562  0.3981  0.3300 -0.1762
  155MOL   C17431282   3.490   0.441   5.673 -0.3047 -0.3690 -0.1629
  155MOL   O17531283   3.394   0.521   5.650  0.0784 -0.2263  0.4026
  155MOL   N17631284   3.513   0.401   5.798  0.1807 -0.0019 -0.3625
  155MOL   H17731285   3.418   0.351   5.427  0.5305 -0.4818 -3.7946
  155MOL   H17831286   3.556   0.290   5.363 -1.3709 -2.3203 -0.8571
  155MOL   H17931287   3.649   0.313   5.612 -1.7762 -1.5780  0.2766
  155MOL   H18031288   3.455   0.434   5.874 -1.3562  0.8923 -1.8797
  155MOL   H18131289   3.579   0.326   5.813 -0.0947 -0.1582  0.0648
  155MOL   C18231290   3.663   0.491   5.491 -0.5318  0.4021  0.4552
  155MOL   C18331291   3.771   0.549   5.573  0.0996 -0.4161  0.2491
  155MOL   C18431292   3.797   0.700   5.539 -0.2071 -0.0767 -0.1646
  155MOL   O18531293   3.704   0.787   5.553 -0.4167 -0.1172  0.2281
  155MOL   N18631294   3.913   0.741   5.484  0.4251  0.4764  0.2081
  155MOL   H18731295   3.604   0.572   5.446  0.1100 -0.5995 -2.3083
  155MOL   H18831296   3.701   0.426   5.413 -2.6236 -1.0427  0.5902
  155MOL   H18931297   3.743   0.554   5.678  0.6017  0.5153  0.3388
  155MOL   H19031298   3.986   0.676   5.458  1.3758  2.1876 -1.4943
  155MOL   H19131299   3.925   0.838   5.461  1.5970  0.3567  0.2766
  155MOL   C19231300   3.898   0.465   5.564 -0.2210 -0.0187  0.3165
  155MOL   C19331301   4.007   0.495   5.668 -0.5251 -0.1045 -0.2635
  155MOL   C19431302   3.988   0.415   5.793  0.3331 -0.3396 -0.6451
  155MOL   O19531303   3.882   0.433   5.856  0.5229  0.0952 -0.6638
  155MOL   N19631304   4.062   0.311   5.821  0.0015 -0.0959  0.2337
  155MOL   H19731305   3.939   0.470   5.463  1.5803  0.8786  1.0702
  155MOL   H19831306   3.873   0.359   5.567  0.5227 -0.2693 -1.4012
  155MOL   H19931307   4.104   0.476   5.622  0.5924  0.5815  1.7658
  155MOL   H20031308   4.024   0.244   5.886 -1.4682  1.9987  1.5717
  155MOL   H20131309   4.126   0.280   5.749  0.9427  0.3636  0.8566
  155MOL   H20231310   4.018   0.600   5.698 -1.5698 -0.1124  0.1640
  156MOL     C131311   5.165   4.788   3.016 -0.1766 -0.1574 -0.0089
  156MOL     C231312   5.084   4.656   3.004 -0.0814 -0.2634  0.2946
  156MOL     C331313   5.164   4.527   3.036  0.5851  0.2557  0.7441
  156MOL     O431314   5.195   4.446   2.949 -0.2604  0.2526  0.4789
  156MOL     N531315   5.204   4.510   3.161  0.4735  0.2390 -0.0564
  156MOL     H631316   5.104   4.879   3.013 -0.3966 -0.3318 -3.1598
  156MOL     H731317   5.222   4.778   3.108 -0.0525  0.3508 -0.0281
  156MOL     H831318   5.005   4.653   3.079 -1.2275 -2.4922 -0.9585
  156MOL     H931319   5.253   4.426   3.189 -1.1567  0.0623  2.4096
  156MOL    H1031320   5.171   4.577   3.228  0.0108 -0.9095  0.8692
  156MOL    H1131321   5.248   4.791   2.946  0.7819  0.3198  1.1281
  156MOL    C1231322   5.018   4.650   2.865 -0.1952 -0.1426 -0.4038
  156MOL    C1331323   4.919   4.758   2.827  1.0609  0.3209  0.1601
  156MOL    C1431324   4.795   4.751   2.920  0.1969  0.3866  0.4337
  156MOL    O1531325   4.772   4.846   3.002  0.1838  0.3687  0.9256
  156MOL    N1631326   4.701   4.660   2.896 -0.2272 -0.0448  0.8102
  156MOL    H1731327   4.962   4.557   2.862 -0.4113  0.0179 -2.5292
  156MOL    H1831328   5.092   4.635   2.785 -0.9487 -0.4943 -1.0436
  156MOL    H1931329   4.953   4.862   2.826 -1.6872  1.2456 -1.5298
  156MOL    H2031330   4.705   4.601   2.814  2.5521  1.7534 -0.3910
  156MOL    H2131331   4.617   4.659   2.954 -1.4272  0.8481 -0.8787
  156MOL    C2231332   4.871   4.730   2.684 -0.0038 -0.4005 -0.2063
  156MOL    C2331333   4.971   4.780   2.572 -0.3807  0.3651  0.4637
  156MOL    C2431334   5.007   4.929   2.582  0.1973  0.6054 -0.2041
  156MOL    O2531335   4.925   5.016   2.588  0.2116  0.0737  0.1576
  156MOL    N2631336   5.128   4.969   2.550 -0.1362  0.5218 -0.2369
  156MOL    H2731337   4.776   4.782   2.671  0.3825 -0.2575 -2.6824
  156MOL    H2831338   4.847   4.623   2.684 -2.7250  0.1695 -0.4599
  156MOL    H2931339   5.069   4.734   2.585  0.9636  3.4060  1.4070
  156MOL    H3031340   5.207   4.907   2.551  0.0725  0.7421 -2.0363
  156MOL    H3131341   5.149   5.062   2.518  0.5623  0.1648 -0.8287
  156MOL    C3231342   4.924   4.752   2.427 -0.3090  0.0978 -0.7916
  156MOL    C3331343   4.898   4.604   2.402 -0.3499 -0.4775  0.8823
  156MOL    C3431344   5.028   4.522   2.421 -0.2164  0.5597 -0.2485
  156MOL    O3531345   5.061   4.487   2.535  0.6338  0.0902  0.7106
  156MOL    N3631346   5.096   4.476   2.312  0.0729 -0.0226 -1.0121
  156MOL    H3731347   4.988   4.795   2.351  1.3322 -0.5047  0.2229
  156MOL    H3831348   4.830   4.807   2.423  0.1312  1.2322  2.4454
  156MOL    H3931349   4.838   4.560   2.481  0.9063  1.0777  2.7559
  156MOL    H4031350   5.176   4.415   2.318  0.3758  0.1642 -3.0209
  156MOL    H4131351   5.060   4.498   2.220 -2.1009  0.2339 -0.1152
  156MOL    C4231352   4.810   4.569   2.282 -0.5609 -1.1036  0.8461
  156MOL    C4331353   4.661   4.611   2.292 -0.1361 -0.5554  0.7321
  156MOL    C4431354   4.566   4.498   2.239  0.8377  0.3745  0.6286
  156MOL    O4531355   4.545   4.471   2.117 -0.3572 -0.4946  0.3588
  156MOL    N4631356   4.499   4.438   2.334  0.3581 -0.0940  0.2956
  156MOL    H4731357   4.811   4.461   2.266  1.5074 -1.4163  2.8202
  156MOL    H4831358   4.854   4.608   2.191  0.5712  0.5027  2.0589
  156MOL    H4931359   4.644   4.646   2.394  2.9137 -0.3537  1.2112
  156MOL    H5031360   4.436   4.364   2.308 -1.0556  0.0348  3.1768
  156MOL    H5131361   4.499   4.463   2.432 -0.2123 -0.9573  0.5257
  156MOL    C5231362   4.634   4.735   2.206 -0.0532 -0.8613  0.3267
  156MOL    C5331363   4.513   4.823   2.237  0.2229  0.6415 -0.1671
  156MOL    C5431364   4.391   4.787   2.151 -0.9740 -0.0006 -0.3353
  156MOL    O5531365   4.312   4.707   2.179  0.3979  0.1715  0.1694
  156MOL    N5631366   4.385   4.856   2.036  0.3973 -0.5720  0.2669
  156MOL    H5731367   4.633   4.713   2.099  0.8252  1.1662 -0.1267
  156MOL    H5831368   4.724   4.796   2.214 -0.5144  0.5997 -4.0308
  156MOL    H5931369   4.480   4.823   2.341  2.8627 -1.8819  0.7555
  156MOL    H6031370   4.463   4.919   2.020 -2.4083  3.0699  0.4408
  156MOL    H6131371   4.304   4.885   1.982  1.7839 -0.3692 -1.7869
  156MOL    C6231372   4.556   4.970   2.212  0.5739  0.3657 -0.1670
  156MOL    C6331373   4.645   5.037   2.325 -0.0876 -0.4472 -0.0712
  156MOL    C6431374   4.568   5.043   2.467 -0.4863  0.6506 -0.3848
  156MOL    O6531375   4.461   5.097   2.486 -1.0992 -0.3525  0.2654
  156MOL    N6631376   4.632   4.987   2.572 -0.0139 -0.6977 -0.2543
  156MOL    H6731377   4.469   5.035   2.206  0.2790  0.1435  1.4993
  156MOL    H6831378   4.608   4.979   2.116  0.0592 -0.2286 -0.5048
  156MOL    H6931379   4.736   4.977   2.329 -1.1060 -1.8890  2.2406
  156MOL    H7031380   4.733   4.981   2.570  0.3697  4.1959 -1.9607
  156MOL    H7131381   4.579   4.982   2.658  3.3078 -0.0788  1.9489
  156MOL    C7231382   4.683   5.185   2.285  0.2080 -0.6308  0.0836
  156MOL    C7331383   4.797   5.252   2.369 -0.0497 -0.1671  0.3569
  156MOL    C7431384   4.747   5.308   2.509  0.6156  0.3428  0.5443
  156MOL    O7531385   4.664   5.398   2.505 -0.3510  0.1443 -0.2803
  156MOL    N7631386   4.799   5.257   2.616 -0.4524  0.5165  0.8688
  156MOL    H7731387   4.596   5.251   2.292 -0.1328 -1.2330  1.5418
  156MOL    H7831388   4.715   5.198   2.181  0.5618  2.5529  0.5227
  156MOL    H7931389   4.868   5.170   2.382 -0.2067 -0.7068 -1.8722
  156MOL    H8031390   4.857   5.174   2.611  0.2623  0.9948  1.0455
  156MOL    H8131391   4.773   5.289   2.708  0.6379  1.2618  0.9328
  156MOL    C8231392   4.875   5.371   2.300  0.5607  0.6607  0.0415
  156MOL    C8331393   4.988   5.327   2.206 -0.2124  0.4637  0.5630
  156MOL    C8431394   5.094   5.252   2.287  0.3555  0.4343 -0.1798
  156MOL    O8531395   5.144   5.298   2.383 -0.0821 -0.0769 -0.3200
  156MOL    N8631396   5.119   5.130   2.240  0.1174  0.1498 -0.0918
  156MOL    H8731397   4.914   5.431   2.382  0.7673  3.2305 -1.9127
  156MOL    H8831398   4.794   5.431   2.259 -0.0212 -1.0943 -1.4439
  156MOL    H8931399   4.949   5.270   2.121 -1.9661 -0.4099  1.9207
  156MOL    H9031400   5.180   5.077   2.300 -0.2317 -0.6296 -0.4273
  156MOL    H9131401   5.093   5.108   2.145 -0.0546 -0.8455  0.1844
  156MOL    C9231402   5.047   5.458   2.156 -0.0266 -0.1502  0.9001
  156MOL    C9331403   4.957   5.542   2.065  1.0498 -0.8422 -0.5091
  156MOL    C9431404   5.012   5.548   1.923 -0.6519 -0.0781 -0.1854
  156MOL    O9531405   5.127   5.553   1.900 -0.1429 -0.2644 -0.3086
  156MOL    N9631406   4.929   5.552   1.817 -0.3322  0.2485  0.3119
  156MOL    H9731407   5.140   5.427   2.108 -0.8317  0.8848 -1.3454
  156MOL    H9831408   5.074   5.527   2.236  0.1358  0.2813  0.4766
  156MOL    H9931409   4.859   5.496   2.053  0.5047  0.6546 -1.9917
  156MOL   H10031410   4.969   5.554   1.725 -2.3658 -0.3452 -0.6323
  156MOL   H10131411   4.830   5.548   1.840 -0.5732 -2.7877 -1.0267
  156MOL   C10231412   4.929   5.690   2.124 -0.5591 -0.0697 -0.2670
  156MOL   C10331413   5.061   5.775   2.134  0.1315  0.3180  0.5643
  156MOL   C10431414   5.094   5.794   2.285  0.5083  0.0636 -0.1894
  156MOL   O10531415   5.182   5.723   2.332 -0.1544 -0.3698  0.1044
  156MOL   N10631416   5.038   5.887   2.356 -0.0473  0.3148 -0.0885
  156MOL   H10731417   4.886   5.664   2.220 -0.0766  0.9729  0.2441
  156MOL   H10831418   4.849   5.733   2.063 -0.3091 -0.9749 -1.2631
  156MOL   H10931419   5.143   5.712   2.098 -1.4712 -0.3607 -1.9774
  156MOL   H11031420   4.978   5.959   2.317 -1.5035 -1.1214 -0.5282
  156MOL   H11131421   5.085   5.901   2.444  0.4046  0.6571 -0.3801
  156MOL   C11231422   5.049   5.910   2.057 -0.4514  0.7017 -0.1227
  156MOL   C11331423   5.182   5.993   2.047  0.4355  0.1840 -0.3779
  156MOL   C11431424   5.140   6.134   1.996 -0.5798  0.2280 -0.1317
  156MOL   O11531425   5.158   6.165   1.881 -0.3886 -0.0555 -0.0647
  156MOL   N11631426   5.085   6.232   2.074 -0.1732  0.3467  0.6275
  156MOL   H11731427   4.983   5.973   2.116  0.5883  1.2965  0.4195
  156MOL   H11831428   5.009   5.890   1.958  1.5772 -0.8569 -0.6615
  156MOL   H11931429   5.219   5.994   2.150  0.0602  1.1743 -0.2445
  156MOL   H12031430   5.048   6.209   2.165 -0.7580  1.8390  0.7812
  156MOL   H12131431   5.061   6.326   2.043 -0.8004  0.2473  0.8175
  156MOL   C12231432   5.285   5.926   1.945 -0.0085  0.5372  0.5948
  156MOL   C12331433   5.423   5.886   2.009 -0.5137  0.3149 -0.3948
  156MOL   C12431434   5.542   5.942   1.948 -0.1525 -0.0096 -0.1225
  156MOL   O12531435   5.569   5.923   1.829 -0.1033 -0.1614 -0.1064
  156MOL   N12631436   5.619   6.021   2.019  0.2161  0.0468  0.0979
  156MOL   H12731437   5.315   5.999   1.870 -2.0906 -0.3105 -1.1264
  156MOL   H12831438   5.237   5.846   1.889 -0.6762  2.0262 -1.0044
  156MOL   H12931439   5.426   5.920   2.112  0.7305 -0.6030 -0.1282
  156MOL   H13031440   5.597   6.033   2.117 -1.1552  3.2491 -0.5451
  156MOL   H13131441   5.696   6.064   1.971 -0.9924  2.7782  0.5145
  156MOL   C13231442   5.426   5.731   2.010 -0.6575  0.3608  0.9286
  156MOL   C13331443   5.555   5.662   2.060  0.0817 -0.8252  0.1435
  156MOL   C13431444   5.553   5.509   2.043 -0.2075 -0.5236 -0.4512
  156MOL   O13531445   5.648   5.450   1.992 -0.1534 -0.0125  0.0233
  156MOL   N13631446   5.437   5.445   2.067  0.8305 -0.7162  0.0441
  156MOL   H13731447   5.421   5.706   1.904  1.3971  2.8495  0.1929
  156MOL   H13831448   5.340   5.688   2.061 -2.2270  1.6434 -0.5362
  156MOL   H13931449   5.638   5.700   2.000 -0.5189  0.7921  0.2986
  156MOL   H14031450   5.414   5.352   2.037  1.5418 -0.6316 -0.7940
  156MOL   H14131451   5.359   5.502   2.094  0.8620 -0.4504 -0.4159
  156MOL   C14231452   5.580   5.701   2.209 -0.4209 -0.7692  0.1900
  156MOL   C14331453   5.719   5.659   2.270  0.3223 -0.1929  1.1770
  156MOL   C14431454   5.698   5.586   2.407 -0.4520 -0.3220  0.1809
  156MOL   O14531455   5.680   5.643   2.509  0.0931  0.0182 -0.0925
  156MOL   N14631456   5.713   5.458   2.408 -0.0973 -0.1666  0.1394
  156MOL   H14731457   5.497   5.660   2.266 -0.6810  0.3902  0.6493
  156MOL   H14831458   5.568   5.808   2.221 -0.4077 -0.6467 -0.8787
  156MOL   H14931459   5.769   5.582   2.211  1.6322  0.8209  0.9555
  156MOL   H15031460   5.723   5.411   2.319  0.7246 -0.1571  0.2280
  156MOL   H15131461   5.718   5.399   2.489 -2.0218  0.1468  0.5273
  156MOL   C15231462   5.813   5.780   2.269 -0.1162 -0.2025  0.5947
  156MOL   C15331463   5.945   5.776   2.343 -0.0495  0.1394  0.3304
  156MOL   C15431464   6.027   5.907   2.313  0.3591  0.2301 -0.1733
  156MOL   O15531465   6.048   5.950   2.201  0.3693  0.3028 -0.0294
  156MOL   N15631466   6.070   5.972   2.416 -0.5135 -0.1393 -0.1161
  156MOL   H15731467   5.763   5.867   2.311  2.4403  0.9691  1.3304
  156MOL   H15831468   5.835   5.804   2.165  1.9059  0.3556  1.1186
  156MOL   H15931469   5.932   5.782   2.451 -1.1722  1.1448  0.1469
  156MOL   H16031470   6.057   5.939   2.510 -0.6271  1.0238  0.2833
  156MOL   H16131471   6.117   6.060   2.398  1.3307 -1.2396 -0.9155
  156MOL   C16231472   6.036   5.655   2.303 -0.1431  0.3910  0.5125
  156MOL   C16331473   6.186   5.642   2.358 -0.0446 -0.5518  0.4427
  156MOL   C16431474   6.270   5.586   2.246  0.7027 -0.1511  0.3554
  156MOL   O16531475   6.316   5.661   2.164 -0.2059 -0.2231  0.4224
  156MOL   N16631476   6.301   5.460   2.243  0.0930  0.0809  0.1427
  156MOL   H16731477   6.030   5.658   2.194 -0.8271  2.0558  0.5816
  156MOL   H16831478   5.989   5.562   2.335  1.9597 -0.1411  2.2210
  156MOL   H16931479   6.220   5.745   2.371  1.1523 -1.1186  1.8086
  156MOL   H17031480   6.255   5.400   2.310 -0.9522 -0.9784 -1.4906
  156MOL   H17131481   6.369   5.428   2.175  1.3657 -0.3894  1.6019
  156MOL   C17231482   6.191   5.563   2.486  0.1144 -0.2141 -0.0910
  156MOL   C17331483   6.143   5.634   2.614  0.2374 -0.3869  0.2773
  156MOL   C17431484   6.242   5.736   2.665 -0.6244 -0.1068 -0.1622
  156MOL   O17531485   6.211   5.857   2.670 -0.9322 -0.3939  0.2224
  156MOL   N17631486   6.365   5.702   2.704  0.6016 -0.8984  0.2198
  156MOL   H17731487   6.293   5.531   2.506 -0.0831  0.4666  2.1545
  156MOL   H17831488   6.146   5.466   2.465  0.6938 -0.1941 -1.4241
  156MOL   H17931489   6.046   5.684   2.607 -0.5259 -1.3028  3.4164
  156MOL   H18031490   6.398   5.606   2.696  1.4459 -0.5860 -0.1139
  156MOL   H18131491   6.427   5.779   2.720  0.0834 -0.7001  1.2987
  156MOL   C18231492   6.114   5.531   2.713  0.0138  0.0429 -0.7375
  156MOL   C18331493   5.971   5.466   2.719 -0.5532  0.2401  0.1417
  156MOL   C18431494   5.893   5.539   2.828  1.5553 -0.8068  0.2552
  156MOL   O18531495   5.933   5.535   2.945 -0.1889  0.1522  0.3762
  156MOL   N18631496   5.786   5.614   2.793  0.5746 -0.1287 -0.4422
  156MOL   H18731497   6.125   5.580   2.810  0.2134 -2.9290  0.7764
  156MOL   H18831498   6.194   5.457   2.718  0.6904  0.7699 -0.6071
  156MOL   H18931499   5.917   5.479   2.625  0.7868  1.5358 -0.4727
  156MOL   H19031500   5.734   5.677   2.854 -0.0533 -1.2340  0.1787
  156MOL   H19131501   5.756   5.634   2.699 -1.0227  1.9705  0.4560
  156MOL   C19231502   5.983   5.318   2.748 -0.0850 -0.0951  0.4562
  156MOL   C19331503   6.038   5.241   2.630 -0.6976 -0.2393  0.6575
  156MOL   C19431504   5.937   5.237   2.518  0.1613  0.0347  0.5538
  156MOL   O19531505   5.819   5.241   2.546  0.6108  0.4022  0.2763
  156MOL   N19631506   5.985   5.208   2.397 -0.5266  0.4545  0.5058
  156MOL   H19731507   5.882   5.287   2.775 -0.3649 -0.0836 -0.5672
  156MOL   H19831508   6.039   5.295   2.839  0.1158 -0.2954  0.2832
  156MOL   H19931509   6.133   5.276   2.590 -0.2294 -1.9941  0.2055
  156MOL   H20031510   5.928   5.211   2.314  0.1836  0.4538  0.0083
  156MOL   H20131511   6.084   5.189   2.388 -0.0505  2.9412  0.0889
  156MOL   H20231512   6.057   5.139   2.665 -1.1728 -1.1509 -1.6455
  157MOL     C131513   6.228   0.566   3.587  0.2042  0.0712  0.4685
  157MOL     C231514   6.246   0.446   3.675 -0.5167  0.3099  0.0843
  157MOL     C331515   6.290   0.333   3.587 -0.7996 -0.3243  0.8408
  157MOL     O431516   6.210   0.275   3.522  0.3296  0.0652  0.4376
  157MOL     N531517   6.422   0.295   3.585 -0.3353  0.2645  0.1061
  157MOL     H631518   6.157   0.546   3.507 -1.1850  0.1213  1.6786
  157MOL     H731519   6.187   0.650   3.643 -2.2682 -1.3184  0.8428
  157MOL     H831520   6.333   0.482   3.729 -0.9018  2.8226 -0.8981
  157MOL     H931521   6.456   0.213   3.538 -0.3341  1.0174 -1.2370
  157MOL    H1031522   6.487   0.344   3.645  1.5397  0.8944 -2.3332
  157MOL    H1131523   6.329   0.591   3.556  0.2112  0.5469  0.8725
  157MOL    C1231524   6.118   0.425   3.761 -0.2724  0.0933  0.9159
  157MOL    C1331525   6.128   0.307   3.866  0.0510  0.8973 -0.0887
  157MOL    C1431526   6.002   0.296   3.952  0.3288 -0.8357  0.5920
  157MOL    O1531527   5.912   0.383   3.937 -0.0883  0.4090  0.2253
  157MOL    N1631528   5.986   0.187   4.020 -0.6889 -0.1983 -0.3333
  157MOL    H1731529   6.031   0.406   3.698  0.4855 -2.0495  0.4757
  157MOL    H1831530   6.093   0.517   3.813  0.1612 -0.4753  2.1481
  157MOL    H1931531   6.141   0.216   3.807  2.5327 -0.8188  2.9923
  157MOL    H2031532   6.048   0.108   4.020  0.5920  0.7474 -3.3568
  157MOL    H2131533   5.890   0.173   4.050 -0.1473 -1.0061  1.0870
  157MOL    C2231534   6.257   0.308   3.952  0.3586  0.2279  0.3810
  157MOL    C2331535   6.372   0.207   3.925  0.3548  0.4318  0.4271
  157MOL    C2431536   6.332   0.061   3.949  0.0733  0.4270  0.1522
  157MOL    O2531537   6.236   0.030   4.018  0.3852 -0.2214 -0.1424
  157MOL    N2631538   6.391   7.626   3.875 -0.1524 -0.0584 -0.0429
  157MOL    H2731539   6.238   0.315   4.059  2.9575 -1.5418  0.9964
  157MOL    H2831540   6.289   0.411   3.936 -0.4167  0.0699 -2.5716
  157MOL    H2931541   6.404   0.207   3.821 -0.3809 -0.4810  0.1942
  157MOL    H3031542   6.363   7.531   3.896 -1.8801  0.3386 -0.4702
  157MOL    H3131543   6.479   7.647   3.831  0.2508  3.3668  2.2566
  157MOL    C3231544   6.487   0.242   4.020  0.2854 -0.2886  0.2139
  157MOL    C3331545   6.537   0.388   4.028 -0.0637 -0.1324  0.1242
  157MOL    C3431546   6.548   0.464   3.894 -0.9522  0.0114  0.8060
  157MOL    O3531547   6.569   0.407   3.788  0.3272  0.2483 -0.4562
  157MOL    N3631548   6.527   0.596   3.878 -0.4709 -0.0532 -0.1313
  157MOL    H3731549   6.567   0.172   3.997 -1.2303 -1.2890 -2.3065
  157MOL    H3831550   6.452   0.218   4.120 -1.5071  1.9512  0.1644
  157MOL    H3931551   6.459   0.447   4.077  1.4587  1.9791  0.0739
  157MOL    H4031552   6.527   0.641   3.969  0.6401 -1.5935  0.6702
  157MOL    H4131553   6.556   0.640   3.792 -2.2484 -1.1953 -1.3266
  157MOL    C4231554   6.668   0.390   4.110 -0.1177 -0.2674  0.0841
  157MOL    C4331555   6.674   0.462   4.246  0.0354  0.1135  0.2786
  157MOL    C4431556   6.619   0.599   4.236  0.0302 -0.0057  0.3264
  157MOL    O4531557   6.651   0.659   4.135 -0.3969  0.0697  0.6424
  157MOL    N4631558   6.545   0.661   4.324 -0.3303 -0.2127  0.2140
  157MOL    H4731559   6.741   0.437   4.045 -0.2879 -1.6288 -1.1228
  157MOL    H4831560   6.690   0.284   4.126 -1.5079 -0.4203  1.1229
  157MOL    H4931561   6.617   0.403   4.317  1.2464  0.2230  1.3692
  157MOL    H5031562   6.517   0.609   4.407  0.6559  0.0364  0.7094
  157MOL    H5131563   6.496   0.745   4.297 -1.0468 -0.7549 -0.1865
  157MOL    C5231564   6.810   0.477   4.304 -0.5924  0.4330 -0.6046
  157MOL    C5331565   6.816   0.520   4.455 -0.1384  0.0665  0.8900
  157MOL    C5431566   6.958   0.583   4.488  0.2261 -0.2215 -0.1047
  157MOL    O5531567   7.064   0.520   4.477 -0.3004  0.1299  0.5145
  157MOL    N5631568   6.949   0.710   4.533 -0.3121 -0.0072  0.1224
  157MOL    H5731569   6.860   0.550   4.239 -0.1543 -1.0275 -1.9232
  157MOL    H5831570   6.868   0.386   4.291  0.2864  0.5905  1.8959
  157MOL    H5931571   6.740   0.597   4.470  0.7990  1.1006  0.3502
  157MOL    H6031572   6.862   0.761   4.528  0.7232  2.1180  2.7212
  157MOL    H6131573   7.018   0.780   4.554 -0.3171 -0.0276  0.2110
  157MOL    C6231574   6.782   0.408   4.554  0.3900  0.1740 -0.3442
  157MOL    C6331575   6.684   0.430   4.671 -0.4366 -0.4923 -0.3963
  157MOL    C6431576   6.536   0.431   4.622 -0.2735 -0.2135  0.1256
  157MOL    O6531577   6.502   0.516   4.548 -0.3728  0.7813  0.1189
  157MOL    N6631578   6.470   0.318   4.641 -0.1807  0.2467 -0.1958
  157MOL    H6731579   6.878   0.374   4.594  0.4218  2.7285  1.9193
  157MOL    H6831580   6.740   0.326   4.496  0.4419 -1.0017  1.2348
  157MOL    H6931581   6.699   0.348   4.740 -0.1050  0.4753  0.6897
  157MOL    H7031582   6.505   0.243   4.699  1.4538  1.0278 -0.1511
  157MOL    H7131583   6.372   0.329   4.619 -0.1189  1.9954  0.3742
  157MOL    C7231584   6.713   0.543   4.771  0.5262 -0.0810 -0.6008
  157MOL    C7331585   6.610   0.573   4.883 -0.3662  0.0224 -0.1881
  157MOL    C7431586   6.641   0.702   4.968 -0.5757  0.1742  0.2410
  157MOL    O7531587   6.566   0.742   5.055 -0.9670  0.3286  0.0471
  157MOL    N7631588   6.744   0.776   4.934 -0.2020  0.1790  0.3350
  157MOL    H7731589   6.718   0.631   4.706 -0.6939  2.4782  2.6599
  157MOL    H7831590   6.810   0.526   4.818 -1.0202 -0.2583  2.6001
  157MOL    H7931591   6.515   0.601   4.838 -0.2877  0.1478 -0.2738
  157MOL    H8031592   6.785   0.756   4.844 -1.5709  0.3192 -0.3342
  157MOL    H8131593   6.749   0.869   4.971  0.5981  0.2683  0.0065
  157MOL    C8231594   6.609   0.446   4.980  0.1756 -0.2175  0.9776
  157MOL    C8331595   6.467   0.440   5.053 -0.4586  0.0458  0.2086
  157MOL    C8431596   6.479   0.328   5.157 -0.8860  0.2324 -0.3983
  157MOL    O8531597   6.473   0.214   5.118  0.6631 -0.1205  0.0345
  157MOL    N8631598   6.515   0.357   5.283  0.6132  0.7661  0.4987
  157MOL    H8731599   6.687   0.439   5.056  1.0642 -2.6788 -0.1193
  157MOL    H8831600   6.627   0.347   4.937 -1.4648 -0.5245  0.9668
  157MOL    H8931601   6.450   0.533   5.109  0.4610  0.0471  0.4953
  157MOL    H9031602   6.562   0.280   5.328 -0.0055  0.4592  0.6296
  157MOL    H9131603   6.521   0.447   5.328  0.7317  2.1126 -2.1167
  157MOL    C9231604   6.349   0.422   4.967  0.5215 -0.0809  0.2537
  157MOL    C9331605   6.213   0.412   5.042 -0.0929  0.3983 -0.3397
  157MOL    C9431606   6.147   0.273   5.028  0.1262  0.5436  0.1263
  157MOL    O9531607   6.165   0.195   4.933 -0.2985 -0.0967 -0.1019
  157MOL    N9631608   6.071   0.237   5.125 -0.3423 -0.2173  0.0828
  157MOL    H9731609   6.370   0.332   4.909 -0.4470 -0.9165  1.1684
  157MOL    H9831610   6.339   0.502   4.894  2.0672  1.1821  1.3814
  157MOL    H9931611   6.228   0.430   5.148  0.3107 -1.9279  0.0172
  157MOL   H10031612   6.023   0.148   5.128  0.1519 -0.4959 -0.3494
  157MOL   H10131613   6.034   0.307   5.188 -1.1159  0.4596 -1.1190
  157MOL   C10231614   6.121   0.522   4.997  0.2346  0.2919  0.1035
  157MOL   C10331615   6.158   0.675   5.013  0.1405  1.1095  0.2845
  157MOL   C10431616   6.184   0.714   5.158  0.9518  0.0275 -0.3791
  157MOL   O10531617   6.096   0.701   5.241  0.2903 -0.0032 -0.4947
  157MOL   N10631618   6.302   0.745   5.197  0.3082 -0.2878  0.2933
  157MOL   H10731619   6.025   0.505   5.046 -0.1352 -0.4107 -0.8490
  157MOL   H10831620   6.107   0.503   4.890  1.5914  0.7048 -0.1590
  157MOL   H10931621   6.250   0.679   4.955  1.5363 -0.3477  2.2933
  157MOL   H11031622   6.388   0.742   5.144 -0.1613  1.1643 -0.5633
  157MOL   H11131623   6.307   0.769   5.295 -1.2157  3.4009 -0.4458
  157MOL   C11231624   6.051   0.770   4.945 -0.3391 -0.4607 -0.2058
  157MOL   C11331625   6.096   0.889   4.865  0.3823 -0.2025 -0.5510
  157MOL   C11431626   6.160   0.831   4.738 -0.1228 -0.6435  0.4921
  157MOL   O11531627   6.272   0.778   4.731  0.0798  0.1575 -0.0493
  157MOL   N11631628   6.086   0.827   4.623 -0.0507 -0.3402  0.1817
  157MOL   H11731629   5.990   0.805   5.029  1.1110 -1.3437  1.2541
  157MOL   H11831630   5.979   0.713   4.887 -1.3856 -0.9001  1.4866
  157MOL   H11931631   6.007   0.946   4.839  0.7223 -0.5550 -2.5877
  157MOL   H12031632   5.998   0.877   4.619 -0.6723 -1.2962  1.6292
  157MOL   H12131633   6.145   0.808   4.543 -0.7769  1.3596 -0.7865
  157MOL   C12231634   6.193   0.976   4.948 -0.6127 -0.0121 -0.0211
  157MOL   C12331635   6.238   1.122   4.892  0.4632  0.1977 -0.0662
  157MOL   C12431636   6.124   1.216   4.863 -0.0962 -0.1352 -0.6601
  157MOL   O12531637   6.096   1.239   4.748  1.1707 -0.4585 -0.3992
  157MOL   N12631638   6.054   1.278   4.959 -0.7774 -0.0529  0.0106
  157MOL   H12731639   6.282   0.915   4.963 -1.4894 -1.0969  0.8541
  157MOL   H12831640   6.150   0.995   5.046  1.2063  0.4769  0.7087
  157MOL   H12931641   6.284   1.169   4.978  2.1971  0.6757 -1.2214
  157MOL   H13031642   6.095   1.275   5.051 -0.9899 -0.8853  0.0870
  157MOL   H13131643   5.983   1.345   4.936  0.4282  0.2759 -2.9760
  157MOL   C13231644   6.339   1.125   4.778  0.1518  0.1914 -0.1316
  157MOL   C13331645   6.483   1.073   4.808 -1.6246  0.5008 -0.2459
  157MOL   C13431646   6.547   1.114   4.934  0.0180  0.4337 -0.1290
  157MOL   O13531647   6.587   1.231   4.949 -0.0376  0.6139  0.6181
  157MOL   N13631648   6.559   1.020   5.032 -0.3439  0.1999  0.1431
  157MOL   H13731649   6.353   1.227   4.744 -0.5011  0.6566  0.9580
  157MOL   H13831650   6.294   1.077   4.691  0.2611  0.6540 -0.4468
  157MOL   H13931651   6.482   0.964   4.810  2.6550  0.3788 -0.2771
  157MOL   H14031652   6.599   1.054   5.119 -0.7092  1.2551 -0.1026
  157MOL   H14131653   6.523   0.926   5.025 -0.0981  0.0146  1.2367
  157MOL   C14231654   6.586   1.109   4.694 -0.3657  0.2301  0.3862
  157MOL   C14331655   6.562   1.031   4.563 -0.3960 -0.2236  0.4398
  157MOL   C14431656   6.598   0.882   4.575 -0.9247  0.3168 -0.4991
  157MOL   O14531657   6.714   0.841   4.579  0.5903  0.6440 -0.6249
  157MOL   N14631658   6.503   0.794   4.588  0.4801 -0.5390  0.2255
  157MOL   H14731659   6.684   1.079   4.730 -0.0297 -0.8710 -1.4201
  157MOL   H14831660   6.586   1.216   4.674 -0.1238  0.2597  0.5381
  157MOL   H14931661   6.457   1.027   4.532 -0.3089 -2.9534  0.3989
  157MOL   H15031662   6.409   0.817   4.618  0.4576 -0.6505  0.2405
  157MOL   H15131663   6.520   0.696   4.575  1.2093 -0.2381 -1.1225
  157MOL   C15231664   6.647   1.092   4.443  0.3737  1.1798  0.1116
  157MOL   C15331665   6.572   1.131   4.313 -0.1988 -0.5378 -0.0480
  157MOL   C15431666   6.473   1.031   4.248  0.3992 -0.0007  0.5932
  157MOL   O15531667   6.504   0.922   4.210  0.2551 -0.3652 -0.4138
  157MOL   N15631668   6.344   1.065   4.233 -0.7449 -0.5720  0.1357
  157MOL   H15731669   6.723   1.025   4.403 -0.2329  0.0501  0.8435
  157MOL   H15831670   6.702   1.179   4.479  1.2169  0.5297  0.4336
  157MOL   H15931671   6.508   1.212   4.348 -1.6569 -0.8945 -1.8245
  157MOL   H16031672   6.311   1.153   4.268 -3.2398 -1.3406 -0.1841
  157MOL   H16131673   6.275   1.000   4.197 -2.1829  1.5803 -1.0964
  157MOL   C16231674   6.664   1.198   4.209 -0.4835 -0.6042  0.9276
  157MOL   C16331675   6.680   1.352   4.223  0.6098  0.2806  0.2612
  157MOL   C16431676   6.553   1.421   4.184  0.4812 -0.0864  0.3146
  157MOL   O16531677   6.498   1.438   4.076 -0.1648 -0.2724 -0.2946
  157MOL   N16631678   6.493   1.483   4.288  0.3247  0.4900  0.3132
  157MOL   H16731679   6.631   1.165   4.110 -0.8324  0.8936  0.5270
  157MOL   H16831680   6.760   1.150   4.228 -0.1128 -0.0897  0.3441
  157MOL   H16931681   6.684   1.368   4.331  0.0065 -0.3386  0.3770
  157MOL   H17031682   6.534   1.473   4.379  2.5166  1.1069 -0.5760
  157MOL   H17131683   6.408   1.537   4.277 -0.3951 -0.8643 -0.9534
  157MOL   C17231684   6.821   1.409   4.179 -0.0682  0.1048  0.1279
  157MOL   C17331685   6.831   1.479   4.037  0.2718  0.0413 -0.3409
  157MOL   C17431686   6.952   1.424   3.963 -0.0101 -0.4447 -0.2615
  157MOL   O17531687   7.049   1.492   3.938 -0.1326  0.3928 -0.5080
  157MOL   N17631688   6.942   1.299   3.917  0.2022  0.2582 -0.4716
  157MOL   H17731689   6.894   1.328   4.187 -1.0158 -0.7246  0.5562
  157MOL   H17831690   6.850   1.477   4.259 -0.1520 -1.0767  1.1796
  157MOL   H17931691   6.746   1.455   3.974 -2.1166  2.1144  1.9497
  157MOL   H18031692   6.864   1.240   3.941 -0.2331  0.5609 -1.1262
  157MOL   H18131693   7.004   1.283   3.839  0.5724  1.7197 -0.5025
  157MOL   C18231694   6.825   1.632   4.059 -0.4952  0.1649 -0.3040
  157MOL   C18331695   6.748   1.707   3.949 -0.6580 -0.5201  0.0912
  157MOL   C18431696   6.825   1.717   3.812 -0.3449 -0.0132  0.3057
  157MOL   O18531697   6.911   1.801   3.784  0.0018 -0.2917 -0.1512
  157MOL   N18631698   6.787   1.640   3.717  0.3512  0.4503  0.0155
  157MOL   H18731699   6.929   1.665   4.066 -0.6863  0.6905  0.0841
  157MOL   H18831700   6.780   1.658   4.155 -0.3631 -1.4256  0.1999
  157MOL   H18931701   6.653   1.655   3.934  0.3082 -1.7017 -2.1714
  157MOL   H19031702   6.722   1.564   3.730  1.2712 -0.3127  0.2927
  157MOL   H19131703   6.832   1.653   3.627 -1.9605 -0.7069 -1.3540
  157MOL   C19231704   6.724   1.857   4.000 -0.3899  0.3037 -0.2695
  157MOL   C19331705   6.607   1.922   3.930  0.0599  0.2137  0.7807
  157MOL   C19431706   6.601   2.073   3.937 -0.2252 -0.4155 -0.0919
  157MOL   O19531707   6.695   2.144   3.961 -0.2512  0.2796 -0.0993
  157MOL   N19631708   6.480   2.127   3.921 -0.2425 -0.4256 -0.4806
  157MOL   H19731709   6.814   1.919   3.992  0.0195 -0.1946  0.4035
  157MOL   H19831710   6.703   1.874   4.106 -1.5338  1.6440 -0.6847
  157MOL   H19931711   6.603   1.888   3.827 -2.1751 -0.5735  1.1004
  157MOL   H20031712   6.409   2.063   3.889 -1.0538  0.4496 -0.4776
  157MOL   H20131713   6.463   2.227   3.929  1.4112 -0.3856  3.5317
  157MOL   H20231714   6.522   1.880   3.984 -1.3845  0.0616 -1.5712
  158MOL     C131715   7.498   5.788   1.105  0.6418 -0.0086  0.0038
  158MOL     C231716   7.593   5.745   1.214  0.6016 -0.3076 -0.6428
  158MOL     C331717   0.029   5.632   1.161 -0.5617  0.6317  0.0712
  158MOL     O431718   0.020   5.513   1.176  0.5137  0.2084 -0.1470
  158MOL     N531719   0.138   5.674   1.096  0.1093  0.0390 -0.2617
  158MOL     H631720   7.404   5.734   1.097  0.7947 -0.3039  0.2188
  158MOL     H731721   7.481   5.895   1.122  0.3083 -0.1236  0.3850
  158MOL     H831722   0.005   5.828   1.235  0.4161 -0.2433 -0.2943
  158MOL     H931723   0.158   5.773   1.098 -1.0687  0.2734  0.4649
  158MOL    H1031724   0.197   5.614   1.040  2.0677  0.9874  0.7037
  158MOL    H1131725   7.538   5.787   1.003  1.6334  0.4748  0.3774
  158MOL    C1231726   7.515   5.724   1.346 -0.6639 -0.9460  0.3939
  158MOL    C1331727   7.596   5.641   1.458 -0.4683 -0.1656 -0.0777
  158MOL    C1431728   7.493   5.622   1.574 -0.7468  0.4628  0.4518
  158MOL    O1531729   7.413   5.704   1.609 -0.2310 -0.6624 -0.6595
  158MOL    N1631730   7.511   5.511   1.646 -0.0188 -0.5851 -0.1554
  158MOL    H1731731   7.425   5.664   1.331 -2.1519  1.3362 -0.0076
  158MOL    H1831732   7.484   5.818   1.390 -1.2483  0.1170 -2.2307
  158MOL    H1931733   7.621   5.541   1.422 -0.2217 -1.3326  3.1167
  158MOL    H2031734   7.453   5.502   1.728 -2.1929  2.7184 -1.2337
  158MOL    H2131735   7.572   5.433   1.626  0.4507 -0.8248  2.1425
  158MOL    C2231736   0.073   5.706   1.499  0.6393 -0.0086 -0.8737
  158MOL    C2331737   0.155   5.625   1.600 -0.4401 -0.1897  1.2721
  158MOL    C2431738   0.148   5.695   1.739  0.2934 -0.2610  0.8617
  158MOL    O2531739   0.183   5.811   1.756 -0.1528  0.5348  0.6035
  158MOL    N2631740   0.098   5.635   1.844  0.2979 -0.0374  0.6432
  158MOL    H2731741   0.050   5.803   1.543  1.5801 -1.1321  2.2253
  158MOL    H2831742   0.131   5.721   1.408  0.9209  0.0957 -0.6796
  158MOL    H2931743   0.107   5.529   1.617 -0.1835 -0.8633 -1.5387
  158MOL    H3031744   0.053   5.545   1.833 -2.6287  1.5837 -1.3731
  158MOL    H3131745   0.105   5.684   1.932  0.3463 -0.3288  0.8039
  158MOL    C3231746   0.308   5.590   1.560  0.1568 -0.0071 -0.6632
  158MOL    C3331747   0.321   5.473   1.461  0.0731  0.2935 -0.5991
  158MOL    C3431748   0.287   5.333   1.534 -0.3288  1.0704 -0.2503
  158MOL    O3531749   0.349   5.292   1.634 -0.3616  0.5915  0.2504
  158MOL    N3631750   0.197   5.255   1.467  0.2191 -0.2878 -0.1761
  158MOL    H3731751   0.370   5.573   1.648  3.0856 -0.2150 -2.7270
  158MOL    H3831752   0.339   5.682   1.511 -0.0894  1.3992  1.7292
  158MOL    H3931753   0.254   5.508   1.382 -0.3131  1.9957  0.4633
  158MOL    H4031754   0.165   5.175   1.521 -0.8300  0.2929  0.0877
  158MOL    H4131755   0.148   5.283   1.383  0.4917  0.2243 -0.1631
  158MOL    C4231756   0.469   5.466   1.412  0.0051  0.1384  0.0534
  158MOL    C4331757   0.522   5.357   1.314  0.9109 -0.3053 -0.0502
  158MOL    C4431758   0.668   5.329   1.345 -0.2080  0.0288 -0.0767
  158MOL    O4531759   0.757   5.413   1.312 -0.1653  0.0748  0.0437
  158MOL    N4631760   0.696   5.216   1.404 -0.1565  0.7432 -0.0630
  158MOL    H4731761   0.531   5.465   1.502  2.8339 -3.3767 -1.7674
  158MOL    H4831762   0.477   5.562   1.360 -2.0684  0.6325  0.6070
  158MOL    H4931763   0.464   5.267   1.335  0.1338  0.5999  1.8485
  158MOL    H5031764   0.615   5.158   1.420  2.0019 -2.3932 -0.2239
  158MOL    H5131765   0.789   5.206   1.441  0.4745  0.6552 -1.6226
  158MOL    C5231766   0.492   5.402   1.170 -0.3745  0.1882  0.6441
  158MOL    C5331767   0.542   5.304   1.059  0.2731 -0.4879  0.5092
  158MOL    C5431768   0.535   5.375   0.928  0.2532  0.0014  0.4482
  158MOL    O5531769   0.434   5.442   0.900 -0.0066  0.4787  0.3216
  158MOL    N5631770   0.632   5.366   0.842  0.2362 -0.5741 -0.2529
  158MOL    H5731771   0.538   5.499   1.150  0.2990  0.0191  1.3417
  158MOL    H5831772   0.384   5.416   1.168 -0.3769  0.1648  0.6192
  158MOL    H5931773   0.648   5.286   1.072  0.1536 -0.7583  1.1381
  158MOL    H6031774   0.627   5.406   0.749 -2.6082 -1.4117 -0.5058
  158MOL    H6131775   0.711   5.308   0.867  0.2153 -0.4845  0.0193
  158MOL    C6231776   0.458   5.175   1.050 -0.3719 -0.1820  0.0387
  158MOL    C6331777   0.320   5.182   0.982 -0.0665  0.0068  0.4128
  158MOL    C6431778   0.210   5.225   1.076 -0.0600  0.1004 -0.1460
  158MOL    O6531779   0.212   5.191   1.193 -0.5219 -0.3266  0.4005
  158MOL    N6631780   0.114   5.303   1.037  0.0343  0.7882 -0.1555
  158MOL    H6731781   0.457   5.130   1.149 -2.7139  0.2527  0.2235
  158MOL    H6831782   0.519   5.109   0.989  1.2389  0.1501  1.2351
  158MOL    H6931783   0.315   5.249   0.896  1.3967 -2.0976 -1.3828
  158MOL    H7031784   0.095   5.340   0.945 -1.3743  0.9124  0.1719
  158MOL    H7131785   0.054   5.342   1.108 -0.0061 -0.4729  0.5190
  158MOL    C7231786   0.277   5.053   0.914 -0.0262 -0.4042  0.2475
  158MOL    C7331787   0.370   5.008   0.796  0.4605  0.1329  0.7539
  158MOL    C7431788   0.352   5.112   0.681  0.7511  0.5965  0.9868
  158MOL    O7531789   0.242   5.126   0.632 -0.0712  0.4361  0.0809
  158MOL    N7631790   0.456   5.187   0.645  0.6934  0.2924  0.0787
  158MOL    H7731791   0.176   5.073   0.879  1.3997  1.9533 -2.7880
  158MOL    H7831792   0.260   4.974   0.987  1.8717 -0.8957  0.1760
  158MOL    H7931793   0.478   5.007   0.810  1.0886  1.9191 -3.1133
  158MOL    H8031794   0.424   5.265   0.589 -1.2931 -1.9025 -2.0050
  158MOL    H8131795   0.536   5.189   0.706  0.1552  0.9690  0.7695
  158MOL    C8231796   0.331   4.870   0.737 -0.5741  0.3439  0.0066
  158MOL    C8331797   0.313   4.755   0.829 -0.4981  0.7353  0.0210
  158MOL    C8431798   0.434   4.731   0.917 -0.0466  0.0056  0.2801
  158MOL    O8531799   0.547   4.733   0.866 -0.3804 -0.4417 -0.1488
  158MOL    N8631800   0.417   4.711   1.047 -0.5866  0.0516 -0.0137
  158MOL    H8731801   0.400   4.832   0.661 -0.2135 -1.9280  1.4370
  158MOL    H8831802   0.236   4.873   0.684 -0.9997  1.2879  0.8077
  158MOL    H8931803   0.227   4.771   0.894  0.1983 -1.1217  1.4346
  158MOL    H9031804   0.496   4.712   1.109  0.1476 -0.7700 -0.9219
  158MOL    H9131805   0.330   4.693   1.095 -0.3269 -0.2520  0.3437
  158MOL    C9231806   0.272   4.618   0.741  0.2002  0.1054 -0.2864
  158MOL    C9331807   0.249   4.477   0.815 -0.2621  0.3156 -0.0998
  158MOL    C9431808   0.165   4.497   0.941  0.2124  0.0748  0.1820
  158MOL    O9531809   0.220   4.526   1.046  0.3516  0.7133 -0.3181
  158MOL    N9631810   0.034   4.485   0.930  0.9391  0.4246 -0.1756
  158MOL    H9731811   0.334   4.600   0.653 -0.3618  0.3709 -0.7408
  158MOL    H9831812   0.173   4.648   0.705  1.8309  3.1580 -2.4305
  158MOL    H9931813   0.198   4.409   0.747  0.4376  0.0824 -0.3962
  158MOL   H10031814   7.635   4.493   1.014 -1.5721  0.1475 -1.7386
  158MOL   H10131815   7.636   4.462   0.848  3.8515 -2.7994 -1.3094
  158MOL   C10231816   0.391   4.416   0.856  0.1001  0.1973  0.3822
  158MOL   C10331817   0.401   4.257   0.853  0.2923 -0.5187  0.1596
  158MOL   C10431818   0.391   4.198   0.710  0.5053  0.9493 -0.4286
  158MOL   O10531819   0.471   4.235   0.626 -0.1774 -0.2365  0.5099
  158MOL   N10631820   0.316   4.100   0.680  0.0953 -0.5618  0.0802
  158MOL   H10731821   0.441   4.463   0.941 -0.2514 -0.9849  1.2724
  158MOL   H10831822   0.455   4.444   0.773 -0.1495  0.1455  0.1701
  158MOL   H10931823   0.506   4.238   0.876  0.7778 -0.0232 -1.5995
  158MOL   H11031824   0.261   4.066   0.758  1.1962  1.3169  1.7373
  158MOL   H11131825   0.302   4.062   0.588 -2.0324  0.3167  0.0171
  158MOL   C11231826   0.328   4.192   0.965 -0.2974 -0.3415 -0.0532
  158MOL   C11331827   0.397   4.213   1.097 -0.3375 -0.5669  0.3484
  158MOL   C11431828   0.504   4.107   1.122 -0.0896  0.4371 -0.4178
  158MOL   O11531829   0.466   3.993   1.144 -0.2462  0.1083  0.3579
  158MOL   N11631830   0.631   4.147   1.123 -0.3602 -0.4055 -0.2361
  158MOL   H11731831   0.315   4.085   0.946  0.1588 -0.3333 -0.4150
  158MOL   H11831832   0.227   4.232   0.961 -0.0884  0.1666 -0.2284
  158MOL   H11931833   0.456   4.305   1.093 -0.6220 -0.4536 -1.8244
  158MOL   H12031834   0.699   4.087   1.168 -0.9203  1.5569  3.4228
  158MOL   H12131835   0.653   4.241   1.094 -1.0479  0.0428  0.6852
  158MOL   C12231836   0.282   4.230   1.205 -0.2065  0.6105 -0.4839
  158MOL   C12331837   0.307   4.333   1.313 -0.2848  0.2785 -1.0173
  158MOL   C12431838   0.406   4.289   1.425  0.5778  0.4558 -0.3668
  158MOL   O12531839   0.423   4.173   1.462 -0.2567  0.0919  0.2223
  158MOL   N12631840   0.470   4.385   1.484 -0.6233 -0.3888  0.1132
  158MOL   H12731841   0.260   4.135   1.253  1.4099  0.0590 -0.8207
  158MOL   H12831842   0.189   4.268   1.161 -1.4950 -2.0907 -0.1944
  158MOL   H12931843   0.350   4.420   1.264 -0.3014 -0.8502 -3.0599
  158MOL   H13031844   0.546   4.364   1.546  0.5703  2.2346 -0.4023
  158MOL   H13131845   0.481   4.466   1.424 -0.9597 -0.9009 -0.6524
  158MOL   C13231846   0.178   4.398   1.375 -0.2403 -0.2058  0.6437
  158MOL   C13331847   0.069   4.325   1.455 -0.0071  0.6463  0.2911
  158MOL   C13431848   7.650   4.231   1.362 -0.3458 -0.1564  0.6981
  158MOL   O13531849   7.650   4.107   1.390 -0.5704 -0.6489  0.2943
  158MOL   N13631850   7.587   4.281   1.257 -0.1196 -0.5608 -0.0298
  158MOL   H13731851   0.126   4.456   1.299  2.0175  0.8851 -0.1027
  158MOL   H13831852   0.201   4.470   1.454  0.5978  1.1769 -0.8276
  158MOL   H13931853   0.130   4.277   1.532  1.7370  0.2284 -1.3212
  158MOL   H14031854   7.545   4.220   1.188  0.7784 -0.0311 -1.0574
  158MOL   H14131855   7.598   4.377   1.226  0.6137 -0.9498 -1.0147
  158MOL   C14231856   7.625   4.422   1.531 -0.6239  0.8123 -0.3855
  158MOL   C14331857   7.504   4.358   1.610 -0.2585  0.1081 -0.3598
  158MOL   C14431858   7.415   4.467   1.663  0.1754  0.6550 -0.0080
  158MOL   O14531859   7.428   4.506   1.775 -0.1629  0.7706 -0.5184
  158MOL   N14631860   7.326   4.516   1.578 -0.0342  0.4188  0.2263
  158MOL   H14731861   7.587   4.486   1.452  1.7918  0.5406 -1.8234
  158MOL   H14831862   0.025   4.490   1.595 -0.0884 -1.2498  1.3790
  158MOL   H14931863   7.435   4.301   1.548 -0.6277  1.5989 -1.3448
  158MOL   H15031864   7.313   4.466   1.491  2.9262 -0.2098  0.0693
  158MOL   H15131865   7.275   4.601   1.595  1.1080  1.0707  0.4530
  158MOL   C15231866   7.552   4.253   1.715  0.2281 -0.3865  0.5507
  158MOL   C15331867   7.634   4.303   1.840  0.5501 -0.0265  0.5125
  158MOL   C15431868   0.123   4.295   1.809 -0.2779  0.3675 -0.5868
  158MOL   O15531869   0.183   4.186   1.811  0.1730  0.1725  0.3515
  158MOL   N15631870   0.184   4.408   1.781  0.5189 -0.0547 -0.2431
  158MOL   H15731871   7.605   4.174   1.662 -0.2442  0.4621 -1.2326
  158MOL   H15831872   7.466   4.191   1.740  0.4819 -0.7897  0.4217
  158MOL   H15931873   7.612   4.408   1.863 -0.4179  0.0353 -0.6147
  158MOL   H16031874   0.136   4.497   1.781 -2.8745 -1.7759  1.6110
  158MOL   H16131875   0.282   4.393   1.762  1.3157  1.6604  2.1575
  158MOL   C16231876   7.602   4.211   1.957 -0.7042  0.3309 -0.9178
  158MOL   C16331877   0.025   4.221   2.090  0.6617 -0.1705  0.1639
  158MOL   C16431878   7.601   4.144   2.200  0.3069 -0.2180  0.4039
  158MOL   O16531879   7.502   4.196   2.254  0.3374 -0.0410 -0.1156
  158MOL   N16631880   7.637   4.023   2.218 -0.1380  0.0069 -0.2755
  158MOL   H16731881   7.588   4.108   1.922 -0.7462  0.2799 -0.7547
  158MOL   H16831882   7.499   4.234   1.986 -0.2408  0.7410  0.4199
  158MOL   H16931883   0.120   4.177   2.061  0.7668  0.8454 -1.0611
  158MOL   H17031884   0.046   3.985   2.152  0.3670  0.1640  0.1350
  158MOL   H17131885   7.588   3.961   2.281 -0.0698  0.3397  0.1080
  158MOL   C17231886   0.052   4.370   2.129  0.4793 -0.0755 -0.0780
  158MOL   C17331887   0.136   4.398   2.261 -0.9183 -0.1945  0.5952
  158MOL   C17431888   0.159   4.553   2.275 -0.2031 -0.1419  0.4983
  158MOL   O17531889   0.205   4.618   2.179  0.3497  0.2911 -0.2333
  158MOL   N17631890   0.122   4.617   2.388 -0.5041  0.1155 -0.1442
  158MOL   H17731891   7.612   4.418   2.145 -2.0178 -4.0577 -2.5198
  158MOL   H17831892   0.097   4.427   2.047 -0.0422 -0.6236 -0.7514
  158MOL   H17931893   0.076   4.361   2.344 -2.7076  1.1491 -0.0580
  158MOL   H18031894   0.084   4.575   2.472  0.1523 -0.4438 -0.1181
  158MOL   H18131895   0.154   4.713   2.389  0.1447 -0.0742 -1.1766
  158MOL   C18231896   0.277   4.320   2.255 -0.8412  0.1248  0.1266
  158MOL   C18331897   0.340   4.277   2.396  0.4715 -0.3668  0.7655
  158MOL   C18431898   0.283   4.142   2.436  0.0739  0.2922  0.2805
  158MOL   O18531899   0.313   4.038   2.374 -0.8835  0.2586  0.0827
  158MOL   N18631900   0.209   4.137   2.544 -0.7728  0.2281 -0.1176
  158MOL   H18731901   0.340   4.385   2.194  1.3840 -2.3248 -0.2249
  158MOL   H18831902   0.263   4.229   2.198  0.4413  1.1046 -1.7977
  158MOL   H18931903   0.443   4.249   2.374  0.0011  0.0682 -2.2661
  158MOL   H19031904   0.178   4.045   2.571 -2.1495  0.7588  0.1929
  158MOL   H19131905   0.192   4.219   2.601  1.4706  0.5094  0.1829
  158MOL   C19231906   0.346   4.393   2.511 -0.1792 -0.2333  0.1765
  158MOL   C19331907   0.426   4.363   2.640  0.0983 -0.2152  0.1935
  158MOL   C19431908   0.563   4.305   2.615  0.3656  0.8084 -0.2588
  158MOL   O19531909   0.632   4.330   2.515  0.0314  0.5552 -0.2239
  158MOL   N19631910   0.616   4.242   2.729  0.0408  0.0586 -0.4556
  158MOL   H19731911   0.243   4.409   2.541 -0.1012 -0.6065  0.6608
  158MOL   H19831912   0.388   4.486   2.473 -0.9275  0.9967  2.2906
  158MOL   H19931913   0.437   4.446   2.710 -2.2252  2.3183 -2.3297
  158MOL   H20031914   0.710   4.204   2.723 -0.7748 -1.8483 -1.4104
  158MOL   H20131915   0.569   4.231   2.817  0.1570  1.0627 -0.2616
  158MOL   H20231916   0.372   4.295   2.706 -0.5056  1.8649  1.9012
  159MOL     C131917   5.007   1.683   0.193 -0.3402 -0.3933 -0.0157
  159MOL     C231918   4.990   1.784   0.310 -0.0481  0.5485 -0.0696
  159MOL     C331919   5.005   1.706   0.447 -0.3132 -0.2312 -0.1178
  159MOL     O431920   4.910   1.664   0.517  0.5368  0.5604 -0.1560
  159MOL     N531921   5.123   1.680   0.494 -0.0776  0.6231 -0.2379
  159MOL     H631922   5.102   1.629   0.194  0.0238  0.2353 -0.0173
  159MOL     H731923   4.931   1.606   0.190 -0.5884 -0.1466 -0.0358
  159MOL     H831924   5.068   1.860   0.302  0.7856 -0.1618  1.2306
  159MOL     H931925   5.209   1.694   0.444  0.6954 -0.6571  0.7011
  159MOL    H1031926   5.122   1.614   0.571 -0.0493 -0.6427 -1.3040
  159MOL    H1131927   4.997   1.742   0.102  0.4310 -1.1333 -0.5878
  159MOL    C1231928   4.856   1.865   0.304 -0.2201  0.3582  0.6355
  159MOL    C1331929   4.718   1.787   0.271 -0.3023  0.1129 -0.5813
  159MOL    C1431930   4.650   1.867   0.151  0.3408 -0.0387 -0.4392
  159MOL    O1531931   4.621   1.987   0.169  0.2998  0.4325  0.1614
  159MOL    N1631932   4.639   1.797   0.041 -0.3350  0.1211  0.3131
  159MOL    H1731933   4.872   1.949   0.236 -2.6813  1.0764  0.9098
  159MOL    H1831934   4.845   1.913   0.401 -0.1622 -0.1225  0.8814
  159MOL    H1931935   4.742   1.692   0.225 -0.0915  0.3171 -0.8973
  159MOL    H2031936   4.674   1.703   0.051  3.6638  1.2696 -1.5509
  159MOL    H2131937   4.599   1.833   7.612 -0.4098 -2.3553 -0.7300
  159MOL    C2231938   4.621   1.760   0.385 -0.6269 -0.0945  0.1151
  159MOL    C2331939   4.479   1.696   0.364 -0.4220  0.1119 -0.3597
  159MOL    C2431940   4.371   1.741   0.462 -0.0780 -0.0749  0.0961
  159MOL    O2531941   4.396   1.763   0.582 -0.5383 -0.5058  0.5912
  159MOL    N2631942   4.248   1.761   0.410  0.1064  0.8381  0.2611
  159MOL    H2731943   4.594   1.861   0.415 -2.3253 -0.0649 -1.4593
  159MOL    H2831944   4.666   1.725   0.478  2.2931  2.4868 -0.2371
  159MOL    H2931945   4.455   1.733   0.264 -0.2867 -0.8449 -0.7610
  159MOL    H3031946   4.243   1.746   0.310 -2.0793  1.1664  0.2932
  159MOL    H3131947   4.172   1.779   0.474  0.4949  1.3860  0.5678
  159MOL    C3231948   4.498   1.543   0.377  0.1505 -0.2416 -0.3177
  159MOL    C3331949   4.376   1.456   0.348  0.1266  0.4297 -0.3810
  159MOL    C3431950   4.399   1.313   0.396 -0.0696  0.1464 -0.3730
  159MOL    O3531951   4.430   1.215   0.320  0.0918  0.2763  0.3765
  159MOL    N3631952   4.376   1.289   0.519 -0.0704  0.3235  0.2375
  159MOL    H3731953   4.530   1.528   0.480 -0.9934  0.3712  0.1314
  159MOL    H3831954   4.581   1.510   0.313 -0.7742  0.0982 -1.7193
  159MOL    H3931955   4.291   1.486   0.409 -1.1125 -1.7913 -0.9956
  159MOL    H4031956   4.324   1.358   0.571 -0.6819 -0.8690  1.2375
  159MOL    H4131957   4.417   1.205   0.557  1.9154  1.1147 -0.0893
  159MOL    C4231958   4.314   1.473   0.202  0.1267  0.5673  0.2856
  159MOL    C4331959   4.384   1.428   0.073 -0.7741 -0.3909 -0.2824
  159MOL    C4431960   4.540   1.433   0.070 -0.0429  0.7097 -0.0475
  159MOL    O4531961   4.609   1.521   0.021  0.1706  0.4898 -0.4330
  159MOL    N4631962   4.607   1.335   0.125 -0.3111  0.7728  0.1527
  159MOL    H4731963   4.295   1.580   0.200 -1.7275  0.2163 -2.1473
  159MOL    H4831964   4.211   1.440   0.203 -0.1221  1.3169  3.0118
  159MOL    H4931965   4.341   1.329   0.059 -0.9159  0.0390 -3.3918
  159MOL    H5031966   4.708   1.333   0.133 -0.4251 -0.4518  1.4351
  159MOL    H5131967   4.557   1.264   0.175 -1.7295 -0.4637 -2.8874
  159MOL    C5231968   4.329   1.513   7.616  0.1481  0.2813 -0.0103
  159MOL    C5331969   4.365   1.455   7.473  0.0168 -0.6702 -0.1284
  159MOL    C5431970   4.315   1.548   7.363 -0.1529  0.7362 -0.0110
  159MOL    O5531971   4.218   1.521   7.291 -0.3676 -0.5566  0.0759
  159MOL    N5631972   4.380   1.656   7.350 -0.2159  0.3159 -0.6448
  159MOL    H5731973   4.359   1.617   7.634 -0.2739  0.4465 -0.2540
  159MOL    H5831974   4.221   1.510   7.620  0.1789  0.3752  0.8493
  159MOL    H5931975   4.474   1.459   7.468  0.0288  1.3742  1.1870
  159MOL    H6031976   4.455   1.679   7.413 -0.3739  1.7826 -0.9742
  159MOL    H6131977   4.359   1.721   7.276  1.3292  0.3641 -1.0498
  159MOL    C6231978   4.315   1.313   7.455  0.2283 -0.5591 -0.1645
  159MOL    C6331979   4.359   1.232   7.332 -0.2635 -0.2841 -0.0885
  159MOL    C6431980   4.284   1.100   7.333  0.5051  0.3864 -0.0505
  159MOL    O6531981   4.311   1.018   7.421 -0.6138  0.4351  0.1527
  159MOL    N6631982   4.199   1.075   7.232 -0.4306  0.2140  0.7342
  159MOL    H6731983   4.206   1.322   7.450 -0.0173 -1.6719  2.3057
  159MOL    H6831984   4.340   1.245   7.535 -0.2819 -0.0921  0.4026
  159MOL    H6931985   4.334   1.282   7.238 -1.5824 -1.8253 -0.5826
  159MOL    H7031986   4.188   1.150   7.165  0.3568 -0.6204 -0.3508
  159MOL    H7131987   4.145   0.990   7.219  2.5740 -1.6852  0.1730
  159MOL    C7231988   4.513   1.207   7.324 -1.1814 -0.2869  0.2334
  159MOL    C7331989   4.594   1.306   7.235 -0.2136 -0.2196  0.4384
  159MOL    C7431990   4.560   1.271   7.090  0.2829  0.0403  0.9668
  159MOL    O7531991   4.591   1.163   7.043  0.1531  0.1733 -0.4767
  159MOL    N7631992   4.488   1.360   7.028  0.2834  0.5285  0.2210
  159MOL    H7731993   4.521   1.105   7.287  0.9587 -0.7681  1.9758
  159MOL    H7831994   4.549   1.218   7.426 -2.3678 -0.0032  0.6291
  159MOL    H7931995   4.566   1.409   7.257 -0.7533 -0.7826  2.4896
  159MOL    H8031996   4.451   1.344   6.935 -2.0809 -0.1342  1.2366
  159MOL    H8131997   4.482   1.455   7.064  2.0487  0.0695  1.8169
  159MOL    C8231998   4.749   1.288   7.256  0.9605 -0.6577 -0.4229
  159MOL    C8331999   4.799   1.340   7.391 -0.2580 -0.5705 -0.2466
  159MOL    C8432000   4.828   1.496   7.382 -0.2318  0.2054  0.3725
  159MOL    O8532001   4.911   1.529   7.302  0.0026 -0.3209  0.1040
  159MOL    N8632002   4.768   1.578   7.458 -0.5399 -0.6501 -0.2775
  159MOL    H8732003   4.806   1.321   7.170  0.7859  0.4295 -0.1271
  159MOL    H8832004   4.764   1.180   7.252 -2.0681 -1.1504  0.1687
  159MOL    H8932005   4.710   1.337   7.454 -1.0847  1.4077 -1.2817
  159MOL    H9032006   4.797   1.675   7.452 -3.4291  0.2852  0.1075
  159MOL    H9132007   4.714   1.551   7.539  1.1170  2.5560  1.9897
  159MOL    C9232008   4.920   1.241   7.440 -0.1616 -0.6014 -0.1006
  159MOL    C9332009   4.996   1.269   7.576  0.1711  1.1457 -0.3011
  159MOL    C9432010   4.909   1.296   0.042  0.8923  0.7330 -0.4249
  159MOL    O9532011   4.865   1.404   0.079 -0.1632 -0.4214  0.2873
  159MOL    N9632012   4.890   1.187   0.121 -0.1253  0.2891  0.5052
  159MOL    H9732013   5.000   1.246   7.367 -0.4481 -2.2567 -0.5494
  159MOL    H9832014   4.883   1.138   7.434  1.2169 -1.2596  2.0536
  159MOL    H9932015   5.053   1.177   7.587 -0.0470  1.1624  1.0880
  159MOL   H10032016   4.939   1.101   0.097 -1.2190 -0.1378 -0.2437
  159MOL   H10132017   4.833   1.189   0.204  0.9221 -1.1011  1.2847
  159MOL   C10232018   5.105   1.381   7.582 -0.1825  0.4842 -0.5071
  159MOL   C10332019   5.227   1.346   7.491 -0.4363 -0.4110 -0.3686
  159MOL   C10432020   5.332   1.271   7.569 -0.0540  0.3102  0.1475
  159MOL   O10532021   5.407   1.327   7.651  0.0680 -0.5460 -0.1958
  159MOL   N10632022   5.342   1.137   7.553 -0.1948 -0.1677  0.0538
  159MOL   H10732023   5.143   1.397   0.026  1.3803 -0.1914 -0.9723
  159MOL   H10832024   5.056   1.475   7.554 -0.0831  1.7713  3.3140
  159MOL   H10932025   5.201   1.284   7.405 -0.8383 -1.6586  0.6456
  159MOL   H11032026   5.282   1.084   7.491 -0.8435 -0.3257  0.8006
  159MOL   H11132027   5.409   1.088   7.610 -1.5767 -2.6661 -0.4000
  159MOL   C11232028   5.288   1.473   7.423 -0.1355 -0.2447  0.2449
  159MOL   C11332029   5.410   1.462   7.328 -0.4770  0.6275  0.1699
  159MOL   C11432030   5.465   1.604   7.290  0.1909  0.1605  0.4824
  159MOL   O11532031   5.394   1.676   7.222 -0.1720 -0.3608  0.1503
  159MOL   N11632032   5.590   1.643   7.321  0.3846 -0.5553  0.0277
  159MOL   H11732033   5.321   1.544   7.500  0.0175 -0.4870  0.4050
  159MOL   H11832034   5.215   1.525   7.362 -0.3353 -2.1582 -1.1774
  159MOL   H11932035   5.486   1.417   7.391  1.3346  1.1043 -1.6273
  159MOL   H12032036   5.618   1.737   7.295 -2.6598  0.8524  1.6013
  159MOL   H12132037   5.655   1.594   7.381 -0.6485 -1.5598  0.3293
  159MOL   C12232038   5.377   1.379   7.197 -0.2696  0.1413  0.2604
  159MOL   C12332039   5.481   1.272   7.150 -0.1655 -0.7560 -0.3648
  159MOL   C12432040   5.441   1.210   7.018  0.5104  0.1120 -0.5670
  159MOL   O12532041   5.354   1.123   7.015 -0.2162 -0.0597 -0.4524
  159MOL   N12632042   5.490   1.264   6.911 -0.3913 -0.5648 -0.9014
  159MOL   H12732043   5.379   1.450   7.115  0.8962 -1.2944 -1.0050
  159MOL   H12832044   5.279   1.331   7.201  0.1698 -0.9045 -1.0361
  159MOL   H12932045   5.576   1.323   7.136 -1.6752  2.3654  0.3706
  159MOL   H13032046   5.565   1.331   6.918 -0.0692 -1.0044 -0.0719
  159MOL   H13132047   5.439   1.260   6.824 -2.0479  1.6960 -0.0810
  159MOL   C13232048   5.505   1.168   7.263  0.2739 -0.9774 -0.1206
  159MOL   C13332049   5.612   1.062   7.237 -0.1586 -0.3970  0.3414
  159MOL   C13432050   5.606   0.961   7.353  0.4559  0.2055  0.4321
  159MOL   O13532051   5.692   0.948   7.435 -0.1474  0.0355  0.0063
  159MOL   N13632052   5.514   0.867   7.340 -0.9613 -0.4934 -0.3986
  159MOL   H13732053   5.408   1.121   7.282 -0.5740 -0.0257 -2.0419
  159MOL   H13832054   5.535   1.220   7.354 -1.3331 -2.8808  1.5611
  159MOL   H13932055   5.588   1.009   7.145  1.8878 -1.3818  0.3431
  159MOL   H14032056   5.522   0.793   7.408  1.6701  0.2442  0.1580
  159MOL   H14132057   5.448   0.868   7.263 -1.0368  1.5697 -0.3375
  159MOL   C14232058   5.752   1.104   7.205 -0.4864 -0.7541 -0.6350
  159MOL   C14332059   5.858   1.175   7.309 -0.2528 -0.3000 -0.0014
  159MOL   C14432060   5.811   1.314   7.342  0.5981  0.1708 -0.2320
  159MOL   O14532061   5.814   1.397   7.250  0.1805  0.6773  0.1853
  159MOL   N14632062   5.777   1.343   7.466  0.2281  0.2904  0.5203
  159MOL   H14732063   5.771   1.143   7.105  1.5560 -1.6878 -0.6392
  159MOL   H14832064   5.812   1.015   7.184  3.3785  1.2893  1.1899
  159MOL   H14932065   5.868   1.109   7.395  1.1858  1.7022  1.4336
  159MOL   H15032066   5.757   1.439   7.493 -1.8588  0.1956 -0.5594
  159MOL   H15132067   5.770   1.274   7.539  0.8853 -0.6798 -0.3253
  159MOL   C15232068   6.002   1.174   7.246  1.0545 -0.2963 -0.2400
  159MOL   C15332069   6.123   1.220   7.332  0.7904  0.7865  0.3035
  159MOL   C15432070   6.141   1.373   7.346  0.1209  0.3446  0.4315
  159MOL   O15532071   6.140   1.445   7.242  0.0288 -0.2373  0.2814
  159MOL   N15632072   6.148   1.424   7.468 -0.5700 -0.2950 -0.3322
  159MOL   H15732073   5.986   1.225   7.151  0.7605 -0.4580 -0.2759
  159MOL   H15832074   6.018   1.066   7.237  0.2981 -0.1450 -4.0018
  159MOL   H15932075   6.105   1.175   7.429 -2.7099 -2.6705 -1.8182
  159MOL   H16032076   6.134   1.369   7.551  1.1125 -1.9336 -1.0906
  159MOL   H16132077   6.158   1.524   7.478 -0.7447 -0.1948 -1.1121
  159MOL   C16232078   6.251   1.168   7.274 -0.8639 -0.1656  0.0888
  159MOL   C16332079   6.386   1.176   7.344  0.5589  0.1120 -0.4537
  159MOL   C16432080   6.378   1.110   7.479 -0.1236 -0.6659 -0.2070
  159MOL   O16532081   6.314   1.012   7.504 -0.5029  0.4446  0.6525
  159MOL   N16632082   6.454   1.156   7.571 -0.4615 -0.3397 -0.0949
  159MOL   H16732083   6.264   1.213   7.175  1.4773  0.5508  0.7007
  159MOL   H16832084   6.237   1.062   7.254  1.0313 -0.5601  0.7158
  159MOL   H16932085   6.443   1.107   7.282  0.2312 -0.1483 -0.4676
  159MOL   H17032086   6.536   1.209   7.544 -0.8608  1.3027  1.8580
  159MOL   H17132087   6.429   1.126   0.007 -0.7468 -0.0529 -0.0807
  159MOL   C17232088   6.458   1.319   7.349 -0.0948 -0.0483  0.1236
  159MOL   C17332089   6.494   1.372   7.206 -0.9744 -0.3102  0.0993
  159MOL   C17432090   6.592   1.279   7.128 -0.2203 -0.1049 -0.3985
  159MOL   O17532091   6.713   1.278   7.161  0.3919  0.0265  0.0883
  159MOL   N17632092   6.544   1.208   7.028  0.0720 -0.1675 -0.1820
  159MOL   H17732093   6.550   1.304   7.405 -0.7241 -1.2456  0.8677
  159MOL   H17832094   6.411   1.390   7.417 -0.2737 -1.1480  1.1717
  159MOL   H17932095   6.403   1.383   7.146 -1.3876  2.1349  1.1010
  159MOL   H18032096   6.596   1.138   6.978  0.4620 -1.3007  1.7276
  159MOL   H18132097   6.451   1.227   6.992  0.5410  0.7374 -0.9131
  159MOL   C18232098   6.543   1.519   7.210 -0.2205  0.3857  0.4694
  159MOL   C18332099   6.429   1.621   7.209 -0.3831 -0.0433  0.1754
  159MOL   C18432100   6.375   1.645   7.067 -0.4639 -0.7688 -0.1859
  159MOL   O18532101   6.439   1.727   7.002  0.4286 -0.0691 -0.3425
  159MOL   N18632102   6.274   1.572   7.026 -0.2402  0.8461 -0.4304
  159MOL   H18732103   6.612   1.544   7.130  1.4117  1.4887  2.1676
  159MOL   H18832104   6.604   1.537   7.299 -1.5051  1.1097  1.2115
  159MOL   H18932105   6.355   1.583   7.281  0.5450 -0.4315  0.9345
  159MOL   H19032106   6.213   1.538   7.099  2.0985 -2.0782  0.2279
  159MOL   H19132107   6.233   1.578   6.934  0.7067 -0.1106 -0.9247
  159MOL   C19232108   6.463   1.752   7.279  0.7439  0.4528 -0.3382
  159MOL   C19332109   6.350   1.848   7.286  0.3975 -0.3281 -0.0823
  159MOL   C19432110   6.395   1.970   7.380 -0.2678 -0.2586 -0.3602
  159MOL   O19532111   6.395   1.953   7.501 -0.2523 -1.2646 -0.6894
  159MOL   N19632112   6.441   2.078   7.305 -0.2781 -0.2133 -0.0184
  159MOL   H19732113   6.552   1.786   7.226  2.3184 -0.4570  1.6559
  159MOL   H19832114   6.498   1.726   7.379  0.0810 -0.1584 -0.2547
  159MOL   H19932115   6.327   1.894   7.189  0.9604 -2.4431 -1.2341
  159MOL   H20032116   6.491   2.151   7.354 -1.9761  2.0933 -1.6553
  159MOL   H20132117   6.442   2.073   7.204  0.1440  0.3651 -0.0459
  159MOL   H20232118   6.270   1.795   7.337  0.4260 -0.8466 -0.5792
  160MOL     C132119   7.095   2.364   5.483  1.2049  0.4580 -0.3715
  160MOL     C232120   7.049   2.219   5.517  0.8592  0.6898 -0.3169
  160MOL     C332121   6.955   2.156   5.412  0.7434 -0.1737 -0.0083
  160MOL     O432122   6.916   2.039   5.428  0.7940  0.1194 -0.2374
  160MOL     N532123   6.913   2.231   5.307 -0.1062  0.7128 -0.4161
  160MOL     H632124   7.133   2.378   5.382  1.1260  4.2021  0.0424
  160MOL     H732125   7.007   2.430   5.483  0.3310 -0.6868  0.7343
  160MOL     H832126   7.143   2.163   5.521  0.6914  0.3424 -1.1147
  160MOL     H932127   6.853   2.194   5.235 -0.3370  0.7147 -0.2299
  160MOL    H1032128   6.917   2.332   5.306  0.0135  0.7056 -0.7250
  160MOL    H1132129   7.168   2.393   5.558  0.4583 -1.1894  1.0162
  160MOL    C1232130   6.984   2.222   5.662 -0.2357 -0.1160  0.8716
  160MOL    C1332131   7.056   2.135   5.770  0.5076 -0.2194  0.0352
  160MOL    C1432132   7.208   2.151   5.791 -0.0638 -0.3319 -1.0954
  160MOL    O1532133   7.287   2.062   5.823  0.1496  0.3625 -0.6444
  160MOL    N1632134   7.264   2.272   5.785 -0.1451  0.2574  0.3344
  160MOL    H1732135   6.876   2.205   5.663  0.1718 -3.2540 -0.9501
  160MOL    H1832136   6.991   2.324   5.699 -0.6627  0.3036 -0.1889
  160MOL    H1932137   7.015   2.151   5.870  1.1104  1.0390  0.0908
  160MOL    H2032138   7.203   2.350   5.765 -0.3426 -0.4950 -2.2481
  160MOL    H2132139   7.362   2.289   5.767 -0.2004  0.8147  0.5440
  160MOL    C2232140   7.024   1.983   5.735 -0.5091 -0.3626 -0.0666
  160MOL    C2332141   6.885   1.923   5.781 -0.5930  0.4256 -0.5697
  160MOL    C2432142   6.875   1.898   5.932  0.0110 -0.5334  0.2107
  160MOL    O2532143   6.964   1.832   5.996 -0.1878 -0.3330 -0.6633
  160MOL    N2632144   6.778   1.959   6.000 -0.0755  0.4315 -0.4502
  160MOL    H2732145   7.098   1.915   5.777 -1.1166 -0.8413  0.2433
  160MOL    H2832146   7.034   1.961   5.629 -1.4044 -3.8266  0.4837
  160MOL    H2932147   6.805   1.989   5.749  0.0669  2.6556  2.1091
  160MOL    H3032148   6.701   2.017   5.970 -1.3625 -0.0613  1.7683
  160MOL    H3132149   6.795   1.946   6.098  0.6779 -0.2934 -0.6692
  160MOL    C3232150   6.853   1.789   5.713 -0.0280  0.1118  0.5960
  160MOL    C3332151   6.721   1.720   5.754  0.4510 -0.3450  0.0698
  160MOL    C3432152   6.737   1.610   5.860  0.2166  0.3937 -0.2177
  160MOL    O3532153   6.802   1.511   5.833  0.0587 -0.0525  0.4425
  160MOL    N3632154   6.681   1.639   5.975  0.3455 -0.7158 -0.1167
  160MOL    H3732155   6.935   1.719   5.730 -1.3241 -1.9048 -1.2406
  160MOL    H3832156   6.859   1.808   5.605  1.2911  0.7365  0.7663
  160MOL    H3932157   6.648   1.794   5.787  0.1052  0.6593 -2.8215
  160MOL    H4032158   6.689   1.573   6.052  0.4431 -1.6428 -0.9141
  160MOL    H4132159   6.630   1.724   5.994  2.4726  0.7033 -0.5413
  160MOL    C4232160   6.645   1.654   5.631 -0.1000  0.4712  0.3964
  160MOL    C4332161   6.496   1.616   5.638  0.0554  0.5301  0.1000
  160MOL    C4432162   6.489   1.461   5.652  0.5096 -0.0653 -0.6753
  160MOL    O4532163   6.506   1.390   5.553 -0.0925 -0.3792 -0.1310
  160MOL    N4632164   6.478   1.406   5.768  0.1650  1.0914  0.6783
  160MOL    H4732165   6.710   1.568   5.613  0.7302  0.9603  1.0104
  160MOL    H4832166   6.670   1.726   5.553 -1.9485  1.3832  0.6096
  160MOL    H4932167   6.452   1.638   5.735  0.3491  0.8629  0.1599
  160MOL    H5032168   6.475   1.305   5.779  0.8625  1.1887  1.8504
  160MOL    H5132169   6.512   1.454   5.850  1.0728 -0.3661  1.1875
  160MOL    C5232170   6.410   1.663   5.511  0.5441  0.5624  0.4297
  160MOL    C5332171   6.328   1.793   5.526 -1.1696 -0.1178 -0.4333
  160MOL    C5432172   6.409   1.927   5.537  0.0982  0.5109  0.0677
  160MOL    O5532173   6.427   2.006   5.443 -0.1369 -0.1469  0.6697
  160MOL    N5632174   6.447   1.950   5.657 -0.0633  0.1355 -0.5253
  160MOL    H5732175   6.347   1.583   5.472  1.4561  0.7085 -1.3615
  160MOL    H5832176   6.474   1.665   5.423 -2.2897 -0.6549 -1.7378
  160MOL    H5932177   6.280   1.799   5.428 -3.5203  0.9229  0.7659
  160MOL    H6032178   6.518   2.016   5.688  1.6212 -0.3469 -3.2402
  160MOL    H6132179   6.407   1.892   5.729 -1.5078  3.1092  1.1897
  160MOL    C6232180   6.213   1.784   5.629 -0.1999  0.2392 -0.4761
  160MOL    C6332181   6.081   1.709   5.590 -0.5433 -0.0587 -0.2783
  160MOL    C6432182   5.998   1.797   5.495  0.0279 -0.0103 -0.5442
  160MOL    O6532183   5.930   1.889   5.534  0.2334 -0.2427  0.2657
  160MOL    N6632184   5.999   1.779   5.368  0.1803  0.3886 -0.1654
  160MOL    H6732185   6.185   1.889   5.642  0.7545  0.2016  2.0913
  160MOL    H6832186   6.255   1.748   5.722 -0.9274 -0.4950 -0.4306
  160MOL    H6932187   6.104   1.619   5.532  1.0157 -2.0230  3.2598
  160MOL    H7032188   6.036   1.692   5.332  1.8001  0.1189  2.0518
  160MOL    H7132189   5.956   1.838   5.297 -2.2968  0.5886  1.4516
  160MOL    C7232190   5.995   1.674   5.714  0.0126 -0.4632 -0.9400
  160MOL    C7332191   6.048   1.556   5.792  0.0990 -0.0660 -0.3243
  160MOL    C7432192   6.056   1.430   5.702  0.2705  0.1933  0.2213
  160MOL    O7532193   5.974   1.409   5.615  0.1366  0.5111 -1.0011
  160MOL    N7632194   6.166   1.352   5.718  0.4336 -0.1804  0.3837
  160MOL    H7732195   5.899   1.650   5.668 -0.7752  1.2350 -0.2478
  160MOL    H7832196   5.989   1.759   5.782 -1.1233 -2.0284  0.9715
  160MOL    H7932197   6.151   1.577   5.822 -0.2660  1.1380  0.1069
  160MOL    H8032198   6.239   1.385   5.780  1.9666  0.8645 -1.9334
  160MOL    H8132199   6.167   1.260   5.678  0.6813 -0.3098  0.6833
  160MOL    C8232200   5.953   1.534   5.914 -0.7421  0.2070  0.0258
  160MOL    C8332201   5.983   1.422   6.015  0.3922 -0.5261 -0.1475
  160MOL    C8432202   6.128   1.436   6.075 -0.1214  0.2638 -0.3375
  160MOL    O8532203   6.231   1.411   6.016  0.5308 -0.3569  0.1524
  160MOL    N8632204   6.142   1.474   6.205 -0.1241  0.0646  0.2913
  160MOL    H8732205   5.859   1.508   5.866 -0.6840  0.0214  0.0149
  160MOL    H8832206   5.935   1.627   5.969 -0.0940  0.1977  0.2613
  160MOL    H8932207   5.928   1.450   6.105  1.7220 -1.4937  0.9912
  160MOL    H9032208   6.054   1.502   6.245  0.4713  0.8849  1.0360
  160MOL    H9132209   6.237   1.482   6.240  0.0147  1.1460 -0.3161
  160MOL    C9232210   5.943   1.277   5.983 -0.3155 -0.4532 -0.2829
  160MOL    C9332211   5.791   1.238   6.002  0.1463  0.7101  0.6346
  160MOL    C9432212   5.692   1.311   5.914  0.3410 -0.2438 -0.3171
  160MOL    O9532213   5.630   1.411   5.964 -0.2171 -0.1529  0.1787
  160MOL    N9632214   5.655   1.260   5.796  0.2024  0.1346 -0.2052
  160MOL    H9732215   5.995   1.209   6.051 -1.2343 -0.5602  0.3173
  160MOL    H9832216   5.984   1.254   5.885 -0.3080  2.0719 -0.9066
  160MOL    H9932217   5.793   1.133   5.972  0.1881  0.7231  0.5917
  160MOL   H10032218   5.603   1.304   5.721  1.2799 -0.6667 -1.4516
  160MOL   H10132219   5.726   1.195   5.762  0.3779  0.4845 -0.5160
  160MOL   C10232220   5.748   1.233   6.149 -0.8808  0.7849  0.4890
  160MOL   C10332221   5.632   1.139   6.195 -0.2267 -0.2282 -0.1815
  160MOL   C10432222   5.570   1.184   6.329  0.3677 -0.0427  0.0470
  160MOL   O10532223   5.640   1.210   6.428 -0.2172 -0.0002 -0.3663
  160MOL   N10632224   5.435   1.178   6.345 -0.3385 -0.3260  0.5547
  160MOL   H10732225   5.737   1.333   6.190 -0.7404  1.2582 -0.6091
  160MOL   H10832226   5.837   1.211   6.208  0.3385  0.4107 -1.4420
  160MOL   H10932227   5.555   1.142   6.118 -1.1820  0.2869  0.7785
  160MOL   H11032228   5.371   1.174   6.266 -0.5932 -1.1299  0.7942
  160MOL   H11132229   5.395   1.189   6.437 -2.4443  0.7911 -0.4528
  160MOL   C11232230   5.674   0.994   6.208  0.3386  0.0935  0.7314
  160MOL   C11332231   5.675   0.899   6.076  0.1155  0.3722  0.2865
  160MOL   C11432232   5.537   0.876   6.005 -0.3716  0.2384 -0.2033
  160MOL   O11532233   5.435   0.868   6.077 -0.1673  0.7562  0.1370
  160MOL   N11632234   5.518   0.895   5.876  0.3381 -0.6228 -0.1050
  160MOL   H11732235   5.633   0.945   6.296 -1.4741  0.3093  0.0172
  160MOL   H11832236   5.778   0.995   6.242  0.7109  2.3196 -0.3342
  160MOL   H11932237   5.733   0.948   5.999  1.2789  0.7412  1.3784
  160MOL   H12032238   5.583   0.940   5.814 -0.6335 -0.0033 -0.6960
  160MOL   H12132239   5.427   0.864   5.846  0.1617 -0.3354  0.1221
  160MOL   C12232240   5.731   0.760   6.116  0.3679  0.5919  0.2584
  160MOL   C12332241   5.885   0.744   6.102 -0.1647 -0.3997  0.2514
  160MOL   C12432242   5.920   0.753   5.948 -0.2355 -1.0274 -0.6562
  160MOL   O12532243   5.853   0.695   5.872  0.4757 -0.3006  0.3380
  160MOL   N12632244   6.017   0.837   5.908  0.5595 -0.2851 -0.1712
  160MOL   H12732245   5.676   0.678   6.070  0.0749  0.7403  0.3424
  160MOL   H12832246   5.712   0.750   6.223 -1.0983 -2.2606 -0.2126
  160MOL   H12932247   5.938   0.825   6.151  2.8286 -1.2627 -1.4394
  160MOL   H13032248   6.071   0.882   5.980 -1.6325 -0.8105  1.8759
  160MOL   H13132249   6.046   0.850   5.812  0.7459  1.3049  0.0935
  160MOL   C13232250   5.914   0.609   6.176 -0.4090 -0.0947  0.5292
  160MOL   C13332251   6.066   0.593   6.217 -0.2164  0.4623 -0.6718
  160MOL   C13432252   6.143   0.539   6.092  0.1522  0.7740 -0.2938
  160MOL   O13532253   6.140   0.418   6.064  0.4503  0.0483 -0.4302
  160MOL   N13632254   6.215   0.622   6.027  0.2136  0.5652  0.4095
  160MOL   H13732255   5.885   0.524   6.115 -0.3091  0.4858 -0.3445
  160MOL   H13832256   5.856   0.604   6.268  2.0597 -2.3485  2.0180
  160MOL   H13932257   6.119   0.685   6.238  0.1559  0.3542 -1.1595
  160MOL   H14032258   6.213   0.721   6.048 -0.2517  0.5363  0.4975
  160MOL   H14132259   6.257   0.598   5.938 -1.1139  3.2698 -1.0120
  160MOL   C14232260   6.083   0.503   6.345 -0.0050 -0.3692  0.5124
  160MOL   C14332261   6.186   0.539   6.445 -0.1705 -0.3685 -0.1757
  160MOL   C14432262   6.176   0.686   6.490  0.7920  0.3449 -0.4719
  160MOL   O14532263   6.273   0.753   6.529  0.0740 -0.4948 -0.0172
  160MOL   N14632264   6.053   0.738   6.496  0.1937 -0.4271  0.0454
  160MOL   H14732265   6.100   0.400   6.313  0.3813 -0.3959  0.8065
  160MOL   H14832266   5.987   0.488   6.394 -0.0141  0.4029  0.7470
  160MOL   H14932267   6.161   0.476   6.530 -1.4614 -1.4805 -1.3611
  160MOL   H15032268   5.974   0.699   6.447 -0.1894 -0.7316  0.8962
  160MOL   H15132269   6.039   0.832   6.531 -2.0714 -1.1196  1.0884
  160MOL   C15232270   6.331   0.513   6.410  0.3271 -0.3732  0.4420
  160MOL   C15332271   6.375   0.360   6.413  0.7367 -0.5732  0.3671
  160MOL   C15432272   6.405   0.323   6.560 -0.1551  0.0839  0.5565
  160MOL   O15532273   6.440   0.405   6.646  0.1344 -0.3804 -0.5004
  160MOL   N15632274   6.389   0.196   6.598  0.2307  0.2587 -0.0477
  160MOL   H15732275   6.400   0.568   6.473 -1.7573  2.4933  0.3420
  160MOL   H15832276   6.344   0.548   6.308  0.8889  0.3214  0.7527
  160MOL   H15932277   6.287   0.304   6.382  0.0304  1.2122 -0.9278
  160MOL   H16032278   6.411   0.170   6.694 -0.0998  0.3203  0.0472
  160MOL   H16132279   6.368   0.113   6.544  1.1444  0.4070 -0.6348
  160MOL   C16232280   6.494   0.341   6.322 -0.0149 -0.8546  0.1513
  160MOL   C16332281   6.470   0.352   6.172 -0.0931  0.2279 -0.2833
  160MOL   C16432282   6.426   0.213   6.121 -0.0555 -0.2126  0.0430
  160MOL   O16532283   6.507   0.124   6.119  0.2437  0.1001  0.2303
  160MOL   N16632284   6.306   0.202   6.068  0.3032  0.1030 -0.2308
  160MOL   H16732285   6.556   0.258   6.355  1.3050  0.1549  0.2948
  160MOL   H16832286   6.552   0.429   6.351 -1.9723  0.1977  0.9049
  160MOL   H16932287   6.389   0.421   6.151  0.7155  1.8110  1.6553
  160MOL   H17032288   6.284   0.112   6.027  2.7636 -0.4257 -0.4818
  160MOL   H17132289   6.241   0.279   6.064 -0.3497 -0.4249  0.0864
  160MOL   C17232290   6.598   0.387   6.091  0.2357 -0.9555 -0.0464
  160MOL   C17332291   6.672   0.524   6.114  0.0759 -0.1570 -0.0990
  160MOL   C17432292   6.571   0.636   6.079  0.0586  0.7490  0.3194
  160MOL   O17532293   6.524   0.651   5.968  0.3359 -0.5462 -0.0593
  160MOL   N17632294   6.532   0.710   6.190 -0.0028 -0.2313  0.1615
  160MOL   H17732295   6.594   0.380   5.982  2.3009  1.2560 -0.3223
  160MOL   H17832296   6.674   0.319   6.130  1.2835 -0.5015 -1.2125
  160MOL   H17932297   6.698   0.542   6.218  3.5545  1.2223 -1.1477
  160MOL   H18032298   6.471   0.788   6.171 -0.8666 -1.3376 -1.7734
  160MOL   H18132299   6.574   0.678   6.276 -2.2542 -0.6264  1.1275
  160MOL   C18232300   6.814   0.527   6.042 -0.0593 -0.2469  0.6263
  160MOL   C18332301   6.907   0.655   6.051  0.8682 -0.5111 -0.2596
  160MOL   C18432302   6.869   0.766   5.951  0.5994  0.1683 -0.3318
  160MOL   O18532303   6.790   0.753   5.858 -0.5935  0.8258  0.7703
  160MOL   N18632304   6.913   0.887   5.984  1.1730  0.2888  0.2559
  160MOL   H18732305   6.785   0.517   5.937  1.7777 -0.1178  0.0846
  160MOL   H18832306   6.864   0.433   6.064  0.3490 -0.1695  0.0649
  160MOL   H18932307   6.905   0.696   6.151 -0.5155 -2.2454  0.4470
  160MOL   H19032308   6.885   0.965   5.926  1.1934 -1.4207 -2.1823
  160MOL   H19132309   6.976   0.890   6.063  1.1335  0.2674  0.2875
  160MOL   C19232310   7.049   0.612   6.021 -0.6751  0.0039  0.2390
  160MOL   C19332311   7.175   0.697   6.070 -0.0512  0.0262  0.0666
  160MOL   C19432312   7.213   0.668   6.214  0.0307 -0.0278  0.0705
  160MOL   O19532313   7.138   0.610   6.292  0.0929 -0.0497 -0.2921
  160MOL   N19632314   7.335   0.713   6.245  0.6751  0.1030 -0.6664
  160MOL   H19732315   7.069   0.606   5.914 -1.6223  0.6963  0.0186
  160MOL   H19832316   7.058   0.515   6.071  0.3951  0.2625  0.5667
  160MOL   H19932317   7.259   0.665   6.010 -1.2484 -0.7390 -1.2176
  160MOL   H20032318   7.384   0.753   6.166 -2.2074 -0.2475 -2.7042
  160MOL   H20132319   7.360   0.698   6.342 -0.8892 -0.6164 -0.3659
  160MOL   H20232320   7.163   0.805   6.055 -1.2481 -0.1798 -0.5187
  161MOL     C132321   6.660   0.588   0.937 -0.2163  0.2610 -0.4263
  161MOL     C232322   6.766   0.497   0.862  0.2077 -0.1148  1.0205
  161MOL     C332323   6.863   0.588   0.785  0.6599 -0.2867  0.5166
  161MOL     O432324   6.834   0.694   0.728  0.0381 -0.2372 -0.1451
  161MOL     N532325   6.985   0.550   0.784 -0.6617  0.3523  0.1383
  161MOL     H632326   6.585   0.524   0.984  1.5578 -0.2321  1.8156
  161MOL     H732327   6.704   0.655   1.011 -0.3333 -1.2792  1.0648
  161MOL     H832328   6.804   0.442   0.948  0.4859 -0.2261  0.8275
  161MOL     H932329   7.015   0.466   0.831 -0.2545 -0.6476 -1.8297
  161MOL    H1032330   7.055   0.608   0.741 -0.7706 -0.2615 -0.8908
  161MOL    H1132331   6.612   0.654   0.865 -0.8092  1.4338  1.0171
  161MOL    C1232332   6.690   0.405   0.767 -0.1772 -0.3198 -0.1299
  161MOL    C1332333   6.672   0.260   0.807 -0.5517  0.6408  0.8217
  161MOL    C1432334   6.807   0.194   0.848 -0.0323 -0.4055 -0.4518
  161MOL    O1532335   6.920   0.235   0.816  0.0960 -0.5071 -0.8298
  161MOL    N1632336   6.790   0.091   0.923 -0.1073 -0.1861 -0.6308
  161MOL    H1732337   6.746   0.398   0.674 -1.3435 -3.0583 -0.6673
  161MOL    H1832338   6.597   0.455   0.741 -0.8399 -1.3893  0.1340
  161MOL    H1932339   6.601   0.245   0.888 -0.8405  0.2089  0.4904
  161MOL    H2032340   6.868   0.031   0.948  0.8104  2.0013  2.0009
  161MOL    H2132341   6.696   0.077   0.955 -0.5175  1.9965 -0.7920
  161MOL    C2232342   6.612   0.172   0.686  0.0226  0.0612 -0.2029
  161MOL    C2332343   6.459   0.193   0.648 -0.2177 -0.9041 -0.6723
  161MOL    C2432344   6.366   0.141   0.757 -0.3796 -0.6084 -0.0276
  161MOL    O2532345   6.308   0.216   0.830  0.4847 -0.6027  0.1427
  161MOL    N2632346   6.353   0.008   0.780 -0.4969 -1.2328  0.2063
  161MOL    H2732347   6.615   0.068   0.720  0.5667  0.0682 -0.2312
  161MOL    H2832348   6.688   0.177   0.608  0.9415  1.5406  0.7635
  161MOL    H2932349   6.451   0.301   0.646 -0.5322 -0.9306 -0.8601
  161MOL    H3032350   6.392   7.603   0.710  1.3592 -1.2154  1.1843
  161MOL    H3132351   6.332   7.641   0.876  1.8490  1.7111  1.5366
  161MOL    C3232352   6.430   0.134   0.508 -0.2943 -0.0709 -0.2150
  161MOL    C3332353   6.433   0.230   0.379 -0.2434  0.0623 -0.6606
  161MOL    C3432354   6.571   0.238   0.307  0.3387 -0.3551 -0.0257
  161MOL    O3532355   6.655   0.306   0.357  0.3837 -0.5728 -0.7000
  161MOL    N3632356   6.586   0.158   0.207  0.1734  0.0106  0.0865
  161MOL    H3732357   6.329   0.094   0.507 -0.6810  0.7982  1.5726
  161MOL    H3832358   6.487   0.042   0.494 -1.9139 -1.0754 -0.2506
  161MOL    H3932359   6.363   0.185   0.310 -2.2568  0.1235  1.2872
  161MOL    H4032360   6.674   0.161   0.158 -0.6691  0.2631 -1.4386
  161MOL    H4132361   6.521   0.084   0.187 -0.6149  0.4790  0.8606
  161MOL    C4232362   6.382   0.377   0.405  0.2939 -0.7925  0.1339
  161MOL    C4332363   6.233   0.399   0.442  0.2520  0.7806 -0.0191
  161MOL    C4432364   6.131   0.376   0.331 -0.5113  0.0235 -0.0833
  161MOL    O4532365   6.149   0.351   0.210  0.2515  0.1900  0.2824
  161MOL    N4632366   6.004   0.372   0.379 -0.4467  0.0636  0.7343
  161MOL    H4732367   6.398   0.441   0.319  1.7532 -0.7886  0.4057
  161MOL    H4832368   6.453   0.423   0.473  0.2841 -2.7678  1.5311
  161MOL    H4932369   6.210   0.323   0.517  3.5016 -0.3345 -0.0546
  161MOL    H5032370   5.924   0.351   0.321 -1.8843  1.9729  1.9755
  161MOL    H5132371   5.987   0.400   0.474  0.6242 -0.9775  1.2455
  161MOL    C5232372   6.219   0.544   0.486 -0.1325  0.1320 -0.2731
  161MOL    C5332373   6.188   0.553   0.639  0.2402 -0.3441  0.2602
  161MOL    C5432374   6.054   0.478   0.682 -0.0009 -0.1519  0.0488
  161MOL    O5532375   5.938   0.519   0.661 -0.4391  0.1746 -0.3989
  161MOL    N5632376   6.073   0.365   0.749 -0.4848  0.4633  0.0892
  161MOL    H5732377   6.139   0.588   0.427 -0.7581 -0.2885  0.2413
  161MOL    H5832378   6.312   0.594   0.464 -0.5560  0.5681 -1.0717
  161MOL    H5932379   6.267   0.498   0.690 -1.4315 -2.1226  0.9882
  161MOL    H6032380   6.000   0.310   0.793 -1.2852  1.0566 -0.4914
  161MOL    H6132381   6.165   0.328   0.765 -0.8449 -0.2796  0.4669
  161MOL    C6232382   6.216   0.696   0.695  0.4579 -0.0969  0.7442
  161MOL    C6332383   6.091   0.799   0.681 -0.0341 -0.8469 -0.1607
  161MOL    C6432384   6.054   0.819   0.528 -0.1635 -0.3186 -0.5788
  161MOL    O6532385   6.139   0.869   0.461  0.1530 -0.5170  0.6494
  161MOL    N6632386   5.935   0.772   0.491  0.4154  0.0825 -0.3531
  161MOL    H6732387   6.308   0.740   0.659  0.9494 -1.9221 -0.3375
  161MOL    H6832388   6.228   0.679   0.802 -3.1626  0.4274  1.3054
  161MOL    H6932389   6.001   0.751   0.720 -0.4618 -1.2996 -1.6480
  161MOL    H7032390   5.887   0.721   0.564 -0.1333  0.8355 -0.1832
  161MOL    H7132391   5.905   0.767   0.394  1.6620 -1.6945 -0.6726
  161MOL    C7232392   6.118   0.934   0.747  0.2548  0.3585  0.5764
  161MOL    C7332393   6.002   0.993   0.828  0.4868  0.0256 -0.9509
  161MOL    C7432394   5.870   0.996   0.752  0.7043 -0.2481  0.1145
  161MOL    O7532395   5.783   0.913   0.776 -0.0483  0.0514  0.2243
  161MOL    N7632396   5.858   1.084   0.653  0.3571  0.3141  0.3466
  161MOL    H7732397   6.156   0.998   0.668 -0.5769 -1.3032 -1.2290
  161MOL    H7832398   6.202   0.924   0.815  1.4639 -1.2344 -1.1018
  161MOL    H7932399   5.992   0.928   0.915  1.9959 -1.0576 -1.5650
  161MOL    H8032400   5.941   1.142   0.644  1.3171 -0.5793  3.0483
  161MOL    H8132401   5.789   1.077   0.579  0.7433  1.8378 -0.1970
  161MOL    C8232402   6.048   1.129   0.876  0.2604 -0.3339 -0.4975
  161MOL    C8332403   5.961   1.219   0.972  0.1994  0.0509  0.2396
  161MOL    C8432404   5.916   1.137   1.093 -0.1901 -0.3408  0.2394
  161MOL    O8532405   5.796   1.105   1.105 -0.7139 -0.2141 -0.9391
  161MOL    N8632406   6.004   1.103   1.188 -0.0896 -0.5253  0.5990
  161MOL    H8732407   6.095   1.178   0.790  2.4225 -0.0427  0.8173
  161MOL    H8832408   6.144   1.112   0.925  0.2286 -0.7050 -0.5640
  161MOL    H8932409   6.026   1.293   1.020  0.0212  0.0605  0.4655
  161MOL    H9032410   6.100   1.130   1.173 -0.1298  0.0180  1.2861
  161MOL    H9132411   5.978   1.083   1.284  1.7127  2.0891  1.6921
  161MOL    C9232412   5.845   1.301   0.904  0.0022 -0.8827 -0.1004
  161MOL    C9332413   5.873   1.436   0.826 -1.2599 -0.8617 -0.2320
  161MOL    C9432414   5.936   1.416   0.690 -0.3925 -0.6986  0.1918
  161MOL    O9532415   6.049   1.370   0.674  0.2534  0.0342  0.5716
  161MOL    N9632416   5.855   1.442   0.588  0.1515  0.2720  0.4111
  161MOL    H9732417   5.779   1.334   0.984 -0.2825 -0.8364 -0.3513
  161MOL    H9832418   5.800   1.230   0.834  0.5679  0.5679 -1.9850
  161MOL    H9932419   5.773   1.477   0.811  0.0259  2.8848  0.8953
  161MOL   H10032420   5.900   1.441   0.497  0.2456  3.8754  0.3268
  161MOL   H10132421   5.756   1.452   0.605  0.2456  0.0693  1.0870
  161MOL   C10232422   5.945   1.533   0.923 -0.5617  0.6537  0.6388
  161MOL   C10332423   5.922   1.681   0.890 -1.4628  0.0783 -0.5566
  161MOL   C10432424   6.020   1.762   0.981 -0.2035  0.3758 -0.0492
  161MOL   O10532425   6.011   1.738   1.101 -0.4818 -0.1488 -0.2294
  161MOL   N10632426   6.087   1.859   0.930  0.3408  0.4676  0.5843
  161MOL   H10732427   6.052   1.515   0.911 -0.4399  0.9213  1.3128
  161MOL   H10832428   5.923   1.508   1.026 -1.7102  1.2034  0.5327
  161MOL   H10932429   5.946   1.702   0.786  0.2108  0.6393 -0.0865
  161MOL   H11032430   6.149   1.915   0.988  0.5106 -1.6017  2.4760
  161MOL   H11132431   6.072   1.884   0.834  0.8700 -0.6318  0.2066
  161MOL   C11232432   5.779   1.725   0.924  0.0320  0.2665  0.2067
  161MOL   C11332433   5.700   1.784   0.812 -0.0325 -0.4725  0.2213
  161MOL   C11432434   5.734   1.934   0.814 -0.0865 -0.6565 -0.0127
  161MOL   O11532435   5.672   2.009   0.890 -0.0556  0.9504 -0.1584
  161MOL   N11632436   5.815   1.983   0.716  0.6864  0.0489 -0.2041
  161MOL   H11732437   5.769   1.778   1.019 -1.5625 -3.5319  2.2410
  161MOL   H11832438   5.725   1.639   0.962 -0.6271 -0.8226 -3.0931
  161MOL   H11932439   5.729   1.743   0.715  0.9355  2.4637 -0.7711
  161MOL   H12032440   5.857   1.911   0.659 -0.4654 -1.7374  1.1536
  161MOL   H12132441   5.850   2.077   0.720 -2.0320  1.2144 -2.2628
  161MOL   C12232442   5.543   1.764   0.820 -0.6020  0.1135  0.8212
  161MOL   C12332443   5.491   1.618   0.810  0.5159 -1.1199  0.0930
  161MOL   C12432444   5.526   1.561   0.677 -0.1922  0.4298 -0.1267
  161MOL   O12532445   5.509   1.622   0.575 -0.3311  0.3468  0.1664
  161MOL   N12632446   5.565   1.434   0.667  0.1497  0.1909  0.5054
  161MOL   H12732447   5.499   1.820   0.737  1.4240 -0.8057 -0.9036
  161MOL   H12832448   5.509   1.807   0.915  0.0439 -1.8874  1.9810
  161MOL   H12932449   5.539   1.558   0.887  0.7879 -0.0830  0.7496
  161MOL   H13032450   5.559   1.367   0.742 -0.8923 -0.0523  0.2107
  161MOL   H13132451   5.572   1.403   0.571 -1.7857 -0.1904  0.4743
  161MOL   C13232452   5.328   1.614   0.842  0.5004  0.1256  0.4632
  161MOL   C13332453   5.265   1.471   0.846 -0.0422 -0.7058  0.6022
  161MOL   C13432454   5.117   1.474   0.801 -0.0110 -0.5253  0.4866
  161MOL   O13532455   5.028   1.503   0.883  0.1782 -0.0216 -0.1070
  161MOL   N13632456   5.083   1.435   0.679 -0.0915 -0.2079  0.1555
  161MOL   H13732457   5.274   1.678   0.772  0.6821 -0.1402  0.0801
  161MOL   H13832458   5.302   1.671   0.931 -1.0537  1.4596 -0.8017
  161MOL   H13932459   5.310   1.407   0.769  0.9812  1.1975 -0.3998
  161MOL   H14032460   5.141   1.404   0.603  1.7059 -1.7440  2.1028
  161MOL   H14132461   4.984   1.442   0.662  0.0964 -1.8619 -1.8039
  161MOL   C14232462   5.277   1.413   0.991 -0.1486 -0.6369  1.0559
  161MOL   C14332463   5.309   1.264   0.997  0.1757  0.0581 -0.1970
  161MOL   C14432464   5.459   1.242   0.973 -0.1448  1.3285 -0.3775
  161MOL   O14532465   5.509   1.280   0.870 -0.0851  0.0572 -0.0443
  161MOL   N14632466   5.521   1.165   1.064 -0.2175 -0.2183 -0.2558
  161MOL   H14732467   5.197   1.429   1.064 -0.3114 -1.8800  1.1573
  161MOL   H14832468   5.360   1.464   1.040  0.0479  1.1257 -1.0741
  161MOL   H14932469   5.300   1.262   1.106  1.7724  1.5985 -0.0140
  161MOL   H15032470   5.482   1.126   1.149  2.2577 -1.9455  0.1639
  161MOL   H15132471   5.622   1.161   1.058 -0.1960  0.8932 -0.6400
  161MOL   C15232472   5.225   1.163   0.913  0.3300 -0.2331  0.5006
  161MOL   C15332473   5.259   1.013   0.922 -0.0963  0.7140 -0.4926
  161MOL   C15432474   5.332   0.963   0.792  0.0880  0.2150  0.1469
  161MOL   O15532475   5.273   0.910   0.694  0.6440  0.0134  0.5229
  161MOL   N15632476   5.461   0.967   0.787  0.1493 -0.1354 -0.3726
  161MOL   H15732477   5.243   1.189   0.809  0.2467  2.5078  1.1197
  161MOL   H15832478   5.120   1.182   0.939  0.2287  0.1123 -0.1431
  161MOL   H15932479   5.326   1.006   1.008  1.8308  0.1497 -2.0033
  161MOL   H16032480   5.515   0.996   0.867 -0.9800 -0.8781  0.6935
  161MOL   H16132481   5.505   0.914   0.713  0.4057  0.3534 -0.5656
  161MOL   C16232482   5.135   0.917   0.945  0.2182 -0.1332  0.5478
  161MOL   C16332483   5.045   0.934   1.073  0.1323  0.0618  0.3370
  161MOL   C16432484   5.065   0.818   1.170 -0.6397 -0.1673 -0.0712
  161MOL   O16532485   5.052   0.700   1.130 -1.0115  0.3453  0.8255
  161MOL   N16632486   5.105   0.845   1.291  0.0589 -0.1822  0.2676
  161MOL   H16732487   5.162   0.812   0.934 -1.8166 -0.4391 -2.3529
  161MOL   H16832488   5.072   0.923   0.856 -1.2618 -1.1216  1.5050
  161MOL   H16932489   5.071   1.029   1.119 -3.6774  1.7883 -0.8315
  161MOL   H17032490   5.117   0.762   1.346  1.7799 -0.5402 -0.6338
  161MOL   H17132491   5.116   0.938   1.328 -0.1707  0.1312 -0.4250
  161MOL   C17232492   4.889   0.943   1.039  0.3388  0.8111 -0.4300
  161MOL   C17332493   4.844   1.079   0.972  0.2059  0.5139  0.0377
  161MOL   C17432494   4.845   1.199   1.073 -0.5657 -0.2543  0.8382
  161MOL   O17532495   4.813   1.186   1.187 -0.5755 -0.3045  0.1181
  161MOL   N17632496   4.865   1.319   1.024  0.1188  0.0768  0.3315
  161MOL   H17732497   4.829   0.924   1.128 -2.1553 -0.6955 -2.3739
  161MOL   H17832498   4.878   0.858   0.972  0.8916  1.4752 -1.3761
  161MOL   H17932499   4.927   1.080   0.901 -0.5669  0.8866 -0.8552
  161MOL   H18032500   4.898   1.380   1.097 -0.9706 -1.9455  2.5840
  161MOL   H18132501   4.904   1.337   0.933  1.0423  0.3045  0.7673
  161MOL   C18232502   4.713   1.063   0.883 -0.2066  0.1686  0.9546
  161MOL   C18332503   4.668   1.186   0.798 -0.9112 -0.3666 -0.1152
  161MOL   C18432504   4.515   1.204   0.782 -0.0733 -0.1193 -0.2079
  161MOL   O18532505   4.442   1.123   0.724  0.5248 -0.3696  0.0074
  161MOL   N18632506   4.457   1.302   0.852  0.1548 -0.1741  0.0224
  161MOL   H18732507   4.632   1.017   0.940  0.0294 -0.9359  0.4258
  161MOL   H18832508   4.728   0.978   0.817  2.8479  1.2454  0.1850
  161MOL   H18932509   4.703   1.278   0.844 -0.0777 -1.1387  0.8249
  161MOL   H19032510   4.358   1.320   0.843  0.1517 -0.5670 -0.7553
  161MOL   H19132511   4.510   1.381   0.887 -1.4205  0.6516  0.6069
  161MOL   C19232512   4.734   1.173   0.652  0.0534  0.3716  0.2362
  161MOL   C19332513   4.729   1.310   0.573  0.2036 -0.3063  0.0329
  161MOL   C19432514   4.784   1.302   0.433 -0.6864  0.0963 -0.2977
  161MOL   O19532515   4.791   1.193   0.374 -0.0852 -0.7332 -0.3304
  161MOL   N19632516   4.839   1.409   0.382 -0.4489 -0.2693 -0.5380
  161MOL   H19732517   4.697   1.090   0.592 -3.0971  0.3024  2.1622
  161MOL   H19832518   4.838   1.148   0.674  0.3430  0.9600 -0.4571
  161MOL   H19932519   4.628   1.349   0.560 -0.3453 -1.6476  0.1982
  161MOL   H20032520   4.872   1.418   0.287  0.3878 -1.7469 -0.3877
  161MOL   H20132521   4.848   1.491   0.440  1.2298 -0.6750 -0.2042
  161MOL   H20232522   4.788   1.383   0.629 -2.0563  0.8267  0.9886
  162MOL     C132523   3.598   6.172   2.710 -0.6800 -0.3507  0.2019
  162MOL     C232524   3.706   6.194   2.818  0.6708  0.4447  0.0922
  162MOL     C332525   3.770   6.331   2.796  0.7261  0.1780 -0.1263
  162MOL     O432526   3.820   6.355   2.686 -0.4977  0.2515 -0.3592
  162MOL     N532527   3.774   6.424   2.893  0.0812 -0.1843  0.2054
  162MOL     H632528   3.638   6.169   2.608  1.8921 -0.3503  1.1641
  162MOL     H732529   3.521   6.095   2.707  0.9526 -1.9986 -1.4019
  162MOL     H832530   3.649   6.193   2.911 -1.0429  0.5858 -0.9201
  162MOL     H932531   3.736   6.420   2.987 -0.6082  2.5088  0.0791
  162MOL    H1032532   3.835   6.503   2.882 -0.7465  0.3948 -0.2094
  162MOL    H1132533   3.536   6.260   2.719 -1.5592 -0.7938 -1.3834
  162MOL    C1232534   3.820   6.089   2.802  0.0394  0.6114  0.4055
  162MOL    C1332535   3.766   5.946   2.780 -0.1015 -0.0736  0.3816
  162MOL    C1432536   3.673   5.896   2.895 -1.0753 -0.0492  1.0764
  162MOL    O1532537   3.721   5.893   3.003 -0.3644 -0.5551 -0.3754
  162MOL    N1632538   3.545   5.882   2.866 -0.0238  0.2563 -0.5056
  162MOL    H1732539   3.880   6.106   2.891 -1.7310  3.6562  1.0828
  162MOL    H1832540   3.884   6.120   2.720 -0.4048  1.8451  0.5211
  162MOL    H1932541   3.710   5.942   2.686  1.3247  0.7295 -0.5282
  162MOL    H2032542   3.520   5.886   2.768  0.9512  1.1597 -0.7298
  162MOL    H2132543   3.484   5.876   2.946  0.4952  0.0304 -0.1250
  162MOL    C2232544   3.876   5.843   2.746 -0.5783 -0.2813 -0.3074
  162MOL    C2332545   4.000   5.824   2.841 -0.5770 -0.0622 -0.3022
  162MOL    C2432546   4.100   5.936   2.821 -1.0361 -0.5796  0.1533
  162MOL    O2532547   4.142   5.972   2.710  0.3171  0.3341 -0.4801
  162MOL    N2632548   4.166   5.983   2.931  0.0239  0.1467 -0.5552
  162MOL    H2732549   3.917   5.878   2.652 -1.7959  2.2021  0.0240
  162MOL    H2832550   3.826   5.748   2.727  0.1361 -0.6799 -0.2026
  162MOL    H2932551   3.956   5.851   2.937 -0.3748 -2.1186  0.3926
  162MOL    H3032552   4.145   5.946   3.023 -0.8475 -1.0394 -1.2175
  162MOL    H3132553   4.239   6.052   2.925  0.6115 -0.3074  1.0449
  162MOL    C3232554   4.057   5.685   2.833 -0.1558 -0.0459  0.1234
  162MOL    C3332555   4.142   5.624   2.944 -0.3409 -0.0559 -0.2008
  162MOL    C3432556   4.284   5.693   2.952  0.1600 -0.7865  0.0918
  162MOL    O3532557   4.347   5.700   3.057 -0.4383 -0.0827 -0.1943
  162MOL    N3632558   4.334   5.734   2.837 -0.0318  0.8655 -0.5940
  162MOL    H3732559   4.115   5.673   2.742  0.9482 -1.9120  1.0561
  162MOL    H3832560   3.961   5.633   2.827  0.2152 -0.8499  1.2407
  162MOL    H3932561   4.091   5.648   3.037 -0.4298  0.8215 -0.4660
  162MOL    H4032562   4.418   5.789   2.826 -1.4614  3.5854  1.2478
  162MOL    H4132563   4.278   5.704   2.758 -1.7455  0.9387  0.5670
  162MOL    C4232564   4.138   5.468   2.943  0.5331  0.8240 -0.4948
  162MOL    C4332565   4.199   5.381   3.066  0.4946 -0.1380 -0.4541
  162MOL    C4432566   4.127   5.415   3.197  0.5032  0.0152 -0.1341
  162MOL    O4532567   4.008   5.436   3.206  0.2952 -0.0479 -0.1842
  162MOL    N4632568   4.204   5.418   3.303 -0.6420  0.5576  0.7198
  162MOL    H4732569   4.192   5.435   2.854  0.7942 -0.1654  0.0239
  162MOL    H4832570   4.033   5.440   2.928  1.1430 -0.6517 -2.0669
  162MOL    H4932571   4.173   5.277   3.049  0.9880 -0.3373  0.0164
  162MOL    H5032572   4.171   5.433   3.398 -0.6694 -2.6319  1.2404
  162MOL    H5132573   4.303   5.433   3.290 -1.1267  0.9202 -3.0256
  162MOL    C5232574   4.357   5.371   3.072  0.4714 -0.5734  0.8783
  162MOL    C5332575   4.450   5.352   2.948 -0.2489 -0.0965 -0.2341
  162MOL    C5432576   4.398   5.231   2.866 -0.5908  0.0721 -0.5299
  162MOL    O5532577   4.416   5.118   2.907  0.1529  0.4134  0.3565
  162MOL    N5632578   4.343   5.253   2.745 -0.3407 -0.1521 -0.0752
  162MOL    H5732579   4.384   5.293   3.144  0.1724 -0.9000  0.6405
  162MOL    H5832580   4.386   5.463   3.123 -1.0528 -0.2130  1.0935
  162MOL    H5932581   4.427   5.436   2.882 -0.9558 -0.6926 -0.7643
  162MOL    H6032582   4.337   5.177   2.679 -0.9304  0.0339 -0.2388
  162MOL    H6132583   4.332   5.350   2.718  1.2379  0.1127  0.1633
  162MOL    C6232584   4.600   5.338   2.993  0.1512 -1.0719  0.7361
  162MOL    C6332585   4.697   5.442   2.930  0.2739  0.1879  0.0219
  162MOL    C6432586   4.841   5.396   2.958 -0.0211 -0.6751  0.0724
  162MOL    O6532587   4.878   5.291   2.916  0.1037  0.4192  0.3426
  162MOL    N6632588   4.915   5.463   3.042  0.0991  0.0621  0.1079
  162MOL    H6732589   4.626   5.235   2.971  1.3450 -0.3817 -1.2958
  162MOL    H6832590   4.618   5.348   3.100 -0.3082 -0.3681  0.7527
  162MOL    H6932591   4.682   5.427   2.823  1.9885 -0.6486 -0.1192
  162MOL    H7032592   4.894   5.550   3.089 -0.5862  1.2503 -2.2744
  162MOL    H7132593   4.994   5.410   3.076  0.7839  0.3500 -1.0183
  162MOL    C7232594   4.671   5.584   2.972  0.6324  0.1636 -0.2606
  162MOL    C7332595   4.741   5.695   2.885 -0.4516 -0.4989  0.4175
  162MOL    C7432596   4.730   5.845   2.931  0.6497  0.7384  0.0019
  162MOL    O7532597   4.824   5.922   2.918  0.2068 -1.0094  0.1986
  162MOL    N7632598   4.618   5.874   2.996 -0.2397 -0.2607  0.5122
  162MOL    H7732599   4.699   5.599   3.076  1.9043  0.8685 -0.6945
  162MOL    H7832600   4.565   5.605   2.965  0.3738 -0.9259  0.1784
  162MOL    H7932601   4.848   5.673   2.887 -0.8200 -2.3501 -0.0896
  162MOL    H8032602   4.557   5.802   3.031 -1.3707 -0.6098 -2.1086
  162MOL    H8132603   4.595   5.969   3.022  0.6967  0.0024  0.3976
  162MOL    C8232604   4.700   5.694   2.734 -0.4622  0.3879 -0.6005
  162MOL    C8332605   4.806   5.749   2.632 -0.0128 -1.1710  0.3804
  162MOL    C8432606   4.732   5.791   2.506 -0.1221  0.2080 -0.4585
  162MOL    O8532607   4.716   5.904   2.472  0.1376 -0.1411  0.7447
  162MOL    N8632608   4.682   5.699   2.429  0.0688  0.3673  0.0522
  162MOL    H8732609   4.609   5.753   2.721 -0.7594 -0.0392 -0.4660
  162MOL    H8832610   4.662   5.596   2.706  0.1091 -0.3424  1.1161
  162MOL    H8932611   4.844   5.845   2.668 -0.3053 -0.6051 -0.8116
  162MOL    H9032612   4.634   5.718   2.342 -1.3973  1.1267  1.0074
  162MOL    H9132613   4.682   5.603   2.460 -0.8831  0.3417 -0.0061
  162MOL    C9232614   4.915   5.651   2.585 -0.6129 -0.1584  0.0596
  162MOL    C9332615   5.043   5.636   2.675 -0.4126  0.1044  0.8403
  162MOL    C9432616   5.119   5.771   2.692 -0.0121 -0.1144  0.5125
  162MOL    O9532617   5.217   5.799   2.624 -0.0675 -0.0167  0.3937
  162MOL    N9632618   5.084   5.855   2.788 -0.4141 -0.0638 -0.5055
  162MOL    H9732619   4.956   5.672   2.487 -1.4677 -0.7539 -0.4286
  162MOL    H9832620   4.879   5.549   2.568  1.5650 -0.8177 -0.6937
  162MOL    H9932621   5.018   5.599   2.775 -0.0122  1.5083  1.4624
  162MOL   H10032622   5.126   5.947   2.787  0.6949 -0.5537  0.0303
  162MOL   H10132623   4.993   5.843   2.829 -1.0886 -0.5991 -2.1403
  162MOL   C10232624   5.127   5.531   2.607 -0.4085  0.1792  0.1113
  162MOL   C10332625   5.241   5.477   2.688 -0.6096  0.4629  0.1147
  162MOL   C10432626   5.372   5.498   2.620 -0.4381  0.4436 -0.4232
  162MOL   O10532627   5.461   5.411   2.608  0.2878  0.1409 -0.1587
  162MOL   N10632628   5.410   5.620   2.575 -0.1099  0.1860  0.0003
  162MOL   H10732629   5.164   5.568   2.512 -1.7164 -0.5874 -0.7075
  162MOL   H10832630   5.070   5.440   2.588 -3.1775  1.6159  1.2177
  162MOL   H10932631   5.249   5.545   2.774 -3.9941 -0.1463  1.0108
  162MOL   H11032632   5.503   5.631   2.536  0.7292 -1.3393  1.4589
  162MOL   H11132633   5.353   5.703   2.580  0.5219  0.6087  0.2692
  162MOL   C11232634   5.221   5.331   2.735  0.2820 -0.2221  0.0523
  162MOL   C11332635   5.317   5.283   2.850  0.1701 -0.5627 -0.6844
  162MOL   C11432636   5.311   5.135   2.870 -0.3536 -0.6613  0.0931
  162MOL   O11532637   5.406   5.076   2.915  0.0473 -0.0346  0.4362
  162MOL   N11632638   5.206   5.068   2.834 -0.5993 -0.6196 -0.2461
  162MOL   H11732639   5.220   5.264   2.649 -0.3837  0.0423 -0.1480
  162MOL   H11832640   5.118   5.321   2.769  0.0435  2.4277  0.2033
  162MOL   H11932641   5.417   5.295   2.808  0.4415 -2.2724 -0.5590
  162MOL   H12032642   5.124   5.117   2.799 -0.2148 -1.1574 -1.9161
  162MOL   H12132643   5.219   4.968   2.828  1.1469 -0.2788 -2.6816
  162MOL   C12232644   5.324   5.374   2.979 -0.1713 -0.2976 -0.6698
  162MOL   C12332645   5.460   5.446   3.003 -0.1591  0.1255 -0.0234
  162MOL   C12432646   5.568   5.353   3.056 -0.4128  0.1182 -0.6413
  162MOL   O12532647   5.541   5.268   3.136 -0.0528 -0.1051 -0.5530
  162MOL   N12632648   5.692   5.364   3.005  0.6467 -0.1060  0.1041
  162MOL   H12732649   5.296   5.308   3.061  3.2725 -1.7649 -0.6100
  162MOL   H12832650   5.237   5.440   2.979 -0.1674 -0.2640  0.9865
  162MOL   H12932651   5.497   5.497   2.915  1.0530  0.5868  0.7377
  162MOL   H13032652   5.702   5.441   2.941  1.1375 -0.3140 -0.0734
  162MOL   H13132653   5.766   5.302   3.034  1.0595 -0.5373 -1.8406
  162MOL   C13232654   5.442   5.564   3.101 -0.6396  0.3248  0.2298
  162MOL   C13332655   5.393   5.705   3.046 -0.4966 -0.0465  0.1543
  162MOL   C13432656   5.490   5.765   2.946 -0.4826  0.2854  0.3791
  162MOL   O13532657   5.611   5.764   2.961 -0.1955 -0.4096 -0.3937
  162MOL   N13632658   5.449   5.806   2.829  0.1516 -0.0715 -0.2350
  162MOL   H13732659   5.525   5.583   3.169 -1.8042 -1.4768  2.2275
  162MOL   H13832660   5.371   5.534   3.178  0.5894 -2.8379  0.1900
  162MOL   H13932661   5.295   5.685   3.004 -0.3749  0.9870 -0.6622
  162MOL   H14032662   5.516   5.831   2.757 -0.5471  0.0889 -0.8416
  162MOL   H14132663   5.350   5.800   2.813 -0.2291  2.3288  1.1352
  162MOL   C14232664   5.382   5.801   3.166  0.2340  0.1554 -0.1337
  162MOL   C14332665   5.236   5.834   3.222 -0.4080  0.5194 -0.8728
  162MOL   C14432666   5.168   5.929   3.123  0.7458  0.3231 -0.4396
  162MOL   O14532667   5.228   6.006   3.048 -0.2621  0.2932 -0.2777
  162MOL   N14632668   5.034   5.927   3.118 -0.1164  0.4237  0.0369
  162MOL   H14732669   5.432   5.896   3.147  1.8558 -0.8059 -0.7369
  162MOL   H14832670   5.444   5.774   3.252  0.6188  3.3285  0.6752
  162MOL   H14932671   5.186   5.737   3.224  2.0032 -0.7634  1.8702
  162MOL   H15032672   4.971   5.867   3.170 -2.3817  1.7978 -1.0444
  162MOL   H15132673   5.003   5.979   3.038 -3.6123 -1.0318  0.3761
  162MOL   C15232674   5.239   5.888   3.373 -0.0021 -0.6491  0.0655
  162MOL   C15332675   5.264   6.039   3.392  0.1171 -0.6710  0.2109
  162MOL   C15432676   5.408   6.070   3.362 -0.0970  0.1844  0.3908
  162MOL   O15532677   5.505   6.025   3.427  0.6660  0.3503  0.4091
  162MOL   N15632678   5.429   6.149   3.253  0.2521  0.1464 -0.0629
  162MOL   H15732679   5.320   5.838   3.426 -0.8555 -1.4308  0.6545
  162MOL   H15832680   5.159   5.848   3.437 -0.2771 -2.3851 -1.3053
  162MOL   H15932681   5.202   6.097   3.324  0.9044  0.5166  0.4946
  162MOL   H16032682   5.348   6.176   3.199  0.7420 -0.8377 -1.3152
  162MOL   H16132683   5.520   6.177   3.219 -0.4408  1.8132 -0.5733
  162MOL   C16232684   5.249   6.087   3.539  0.0574 -0.3453 -0.6647
  162MOL   C16332685   5.106   6.144   3.573 -0.3191 -0.1774  0.0015
  162MOL   C16432686   5.088   6.293   3.526 -0.4442  0.0389 -0.0716
  162MOL   O16532687   5.164   6.381   3.563 -0.2350 -0.0562  0.0755
  162MOL   N16632688   4.994   6.323   3.440  0.1661 -0.2402  0.4087
  162MOL   H16732689   5.321   6.164   3.568  0.7810 -0.6351 -1.6524
  162MOL   H16832690   5.267   5.998   3.599  0.0690  0.1820  0.1190
  162MOL   H16932691   5.038   6.077   3.519 -0.1116  0.7066 -1.3571
  162MOL   H17032692   4.928   6.248   3.422 -0.3126 -0.0664  1.4210
  162MOL   H17132693   4.974   6.419   3.413  0.8439  1.1637  4.5851
  162MOL   C17232694   5.072   6.136   3.724 -0.0791 -0.7636 -0.6200
  162MOL   C17332695   5.081   5.990   3.789  0.1116 -0.3200  0.0187
  162MOL   C17432696   4.946   5.915   3.810  0.1636  0.0475 -0.2074
  162MOL   O17532697   4.847   5.981   3.839  0.2511  0.3105  0.1916
  162MOL   N17632698   4.944   5.783   3.790 -0.3287 -0.0319  0.0133
  162MOL   H17732699   4.968   6.166   3.741 -0.1697 -0.5060 -1.6331
  162MOL   H17832700   5.133   6.207   3.780 -1.3751  1.0708 -1.4950
  162MOL   H17932701   5.138   5.922   3.726 -2.0922 -1.2670 -1.0015
  162MOL   H18032702   4.859   5.729   3.804 -1.1327  1.1848 -0.1307
  162MOL   H18132703   5.023   5.733   3.752  0.5447  1.0329  0.4164
  162MOL   C18232704   5.159   6.000   3.923  0.1756  1.1906  0.3898
  162MOL   C18332705   5.307   6.008   3.909 -1.2428 -0.5119  0.2024
  162MOL   C18432706   5.366   5.868   3.898  0.9367  0.0627  0.4828
  162MOL   O18532707   5.417   5.833   3.788 -0.3845  0.2572 -0.4553
  162MOL   N18632708   5.346   5.784   3.999  0.3838  0.4080 -0.8453
  162MOL   H18732709   5.118   5.923   3.989  1.5260 -2.0778 -2.4156
  162MOL   H18832710   5.112   6.080   3.980  0.9211  0.3556  2.2549
  162MOL   H18932711   5.323   6.062   3.815 -0.0650  0.1283  0.7602
  162MOL   H19032712   5.389   5.693   3.988 -0.5441 -0.1025 -0.2734
  162MOL   H19132713   5.311   5.815   4.088 -0.0875 -2.0428 -0.1603
  162MOL   C19232714   5.382   6.101   4.005  0.4790  0.2408 -0.4763
  162MOL   C19332715   5.361   6.252   4.001 -0.5511  0.1182 -0.4221
  162MOL   C19432716   5.412   6.327   3.884  0.3046  0.7157 -1.0229
  162MOL   O19532717   5.513   6.296   3.828 -0.0962  0.5970  0.0183
  162MOL   N19632718   5.353   6.438   3.847  0.2322 -0.4811 -0.0961
  162MOL   H19732719   5.488   6.078   3.990 -0.1389 -1.1203 -3.0513
  162MOL   H19832720   5.356   6.067   4.105 -1.7898  1.0002 -0.7761
  162MOL   H19932721   5.255   6.276   4.009 -0.0831  1.6776  1.6258
  162MOL   H20032722   5.273   6.482   3.891  1.9074  0.3959  2.1404
  162MOL   H20132723   5.390   6.494   3.771  0.6431 -1.7166 -0.8287
  162MOL   H20232724   5.419   6.300   4.080  0.4198 -0.7139 -0.6077
  163MOL     C132725   3.889   6.178   3.239 -0.1516 -0.4160 -0.3843
  163MOL     C232726   3.847   6.040   3.300  0.2265  0.5258  0.4238
  163MOL     C332727   3.701   6.042   3.329 -0.3043  0.3625  0.5587
  163MOL     O432728   3.655   6.101   3.429  0.8136 -0.0855 -0.3735
  163MOL     N532729   3.624   5.975   3.244  0.0344 -0.3170  0.2855
  163MOL     H632730   3.986   6.162   3.191 -1.2448 -2.4614 -1.9680
  163MOL     H732731   3.819   6.195   3.157  0.5817 -0.1175 -0.9586
  163MOL     H832732   3.858   5.966   3.221  0.5806  0.3587  0.6318
  163MOL     H932733   3.663   5.927   3.164  1.3618  0.9277  0.1520
  163MOL    H1032734   3.524   5.985   3.242  0.0313 -0.4144 -0.2377
  163MOL    H1132735   3.884   6.261   3.309  0.3935  0.8468 -1.8060
  163MOL    C1232736   3.922   6.017   3.435  0.1100 -0.2963 -0.7211
  163MOL    C1332737   4.046   5.927   3.421 -0.4409 -0.2304 -0.0634
  163MOL    C1432738   4.001   5.782   3.414  0.0963 -0.7525  0.3926
  163MOL    O1532739   3.936   5.733   3.506 -0.3952  0.6342  0.8986
  163MOL    N1632740   4.055   5.715   3.319 -0.1153  0.5993 -0.1852
  163MOL    H1732741   3.855   5.972   3.509 -1.8363  2.7538 -0.5160
  163MOL    H1832742   3.960   6.108   3.482  3.7635 -2.2535  0.2938
  163MOL    H1932743   4.107   5.957   3.335  0.4878 -1.0598  0.2845
  163MOL    H2032744   4.153   5.725   3.299 -0.1262 -0.0601 -0.5821
  163MOL    H2132745   4.024   5.620   3.301  1.3118 -0.3412  2.0027
  163MOL    C2232746   4.141   5.949   3.535 -0.2834  0.0096  0.1653
  163MOL    C2332747   4.256   5.843   3.561  0.1381  0.3067  0.5869
  163MOL    C2432748   4.311   5.882   3.695 -0.5399 -0.4239 -0.4222
  163MOL    O2532749   4.415   5.952   3.709  0.7303  0.0389 -0.1633
  163MOL    N2632750   4.236   5.860   3.802 -0.0643  0.1581 -0.5995
  163MOL    H2732751   4.065   5.944   3.613 -1.5650  0.3409 -1.0364
  163MOL    H2832752   4.173   6.053   3.547 -0.6290  0.1968 -0.4981
  163MOL    H2932753   4.211   5.744   3.567 -1.9485  1.3329  2.4240
  163MOL    H3032754   4.259   5.909   3.887  0.0204  2.0579 -1.7021
  163MOL    H3132755   4.146   5.814   3.797  0.8608 -1.6884 -0.6547
  163MOL    C3232756   4.369   5.827   3.452  0.1484 -0.3678 -0.3832
  163MOL    C3332757   4.452   5.949   3.407 -0.9402 -0.5917 -0.0150
  163MOL    C3432758   4.374   6.037   3.312  0.2148 -0.1472  0.2135
  163MOL    O3532759   4.325   5.991   3.209 -0.1168 -0.2278 -0.0027
  163MOL    N3632760   4.369   6.166   3.342 -0.4390 -0.2254  0.0751
  163MOL    H3732761   4.324   5.790   3.360 -2.5681  1.2322  0.2402
  163MOL    H3832762   4.434   5.743   3.477 -1.7542 -2.3886 -2.1040
  163MOL    H3932763   4.470   6.020   3.488  1.0865 -3.2736  1.9730
  163MOL    H4032764   4.329   6.230   3.275  0.1240 -0.3952 -0.4251
  163MOL    H4132765   4.425   6.196   3.421  1.7964  0.3140 -1.6679
  163MOL    C4232766   4.586   5.912   3.351  0.2611 -0.0623 -0.0431
  163MOL    C4332767   4.694   5.900   3.463  0.4069 -0.6718  0.5167
  163MOL    C4432768   4.735   6.043   3.508  0.3125 -1.2144 -0.8541
  163MOL    O4532769   4.804   6.116   3.437  0.3674 -0.6765  0.3708
  163MOL    N4632770   4.684   6.083   3.623  0.1772 -0.1379 -0.1207
  163MOL    H4732771   4.617   5.981   3.273  0.3024 -1.7631 -1.5751
  163MOL    H4832772   4.592   5.815   3.300 -0.8279 -0.2708  0.2209
  163MOL    H4932773   4.659   5.844   3.550 -1.5750  3.0249  2.1941
  163MOL    H5032774   4.722   6.167   3.664  2.6002 -0.2284 -2.0561
  163MOL    H5132775   4.630   6.016   3.676  1.7079 -0.7967  0.6339
  163MOL    C5232776   4.818   5.827   3.407 -0.3575  0.1602 -0.0587
  163MOL    C5332777   4.833   5.671   3.440 -0.1056 -0.2812 -0.0190
  163MOL    C5432778   4.948   5.616   3.349  0.1450  0.2963 -0.7195
  163MOL    O5532779   4.954   5.664   3.238  0.0991  0.4816 -0.1878
  163MOL    N5632780   5.032   5.534   3.404  0.2742 -0.8477 -0.2135
  163MOL    H5732781   4.907   5.877   3.444 -1.1207  0.5151  1.3196
  163MOL    H5832782   4.812   5.848   3.300 -1.4748  0.8405  0.1235
  163MOL    H5932783   4.857   5.672   3.546  0.0771  1.9039 -0.0504
  163MOL    H6032784   5.024   5.522   3.504 -2.2472  0.3036 -0.2553
  163MOL    H6132785   5.095   5.469   3.359  2.3001  0.0597  1.2565
  163MOL    C6232786   4.708   5.596   3.411 -0.1767  0.1512  0.4449
  163MOL    C6332787   4.711   5.436   3.439 -0.1690 -0.3893 -0.0504
  163MOL    C6432788   4.578   5.376   3.395 -0.2021  0.7738  0.0778
  163MOL    O6532789   4.472   5.446   3.379  0.2288 -1.1434  0.5891
  163MOL    N6632790   4.566   5.242   3.369  0.4599 -0.3924  0.1098
  163MOL    H6732791   4.704   5.595   3.302 -0.2273 -0.3058  0.4506
  163MOL    H6832792   4.623   5.646   3.457 -1.4071 -2.3173  0.9443
  163MOL    H6932793   4.793   5.396   3.380  1.0831 -0.5218  1.7505
  163MOL    H7032794   4.646   5.183   3.387  0.4794 -0.7763 -1.1902
  163MOL    H7132795   4.475   5.207   3.344  1.3241 -1.4609 -1.6376
  163MOL    C7232796   4.734   5.407   3.595  0.5267  0.2002  0.2502
  163MOL    C7332797   4.627   5.410   3.712 -0.6828 -0.4304  0.2657
  163MOL    C7432798   4.605   5.555   3.753  0.1007 -0.0312  0.4763
  163MOL    O7532799   4.706   5.621   3.764 -0.5554 -0.6020  0.5076
  163MOL    N7632800   4.482   5.600   3.760  0.8601  0.0486 -0.2188
  163MOL    H7732801   4.828   5.455   3.623  0.7856  0.4398 -0.9925
  163MOL    H7832802   4.775   5.306   3.599  0.8235  0.2534 -1.1628
  163MOL    H7932803   4.526   5.376   3.690 -0.4274 -0.5032 -0.7917
  163MOL    H8032804   4.399   5.550   3.729 -0.2338  2.1307 -0.7237
  163MOL    H8132805   4.482   5.694   3.795 -1.2078 -0.9782  2.7790
  163MOL    C8232806   4.676   5.319   3.836 -0.0319  0.1669 -0.0207
  163MOL    C8332807   4.657   5.167   3.829 -0.0888  1.3008 -0.0700
  163MOL    C8432808   4.510   5.148   3.822 -0.1170 -0.2628 -0.0775
  163MOL    O8532809   4.438   5.161   3.918 -0.1833 -0.1343  0.2806
  163MOL    N8632810   4.463   5.108   3.703  0.1963 -0.1788 -0.3920
  163MOL    H8732811   4.624   5.346   3.927 -1.2313  0.8615 -0.8986
  163MOL    H8832812   4.780   5.339   3.860  0.0099 -0.7031  0.5677
  163MOL    H8932813   4.709   5.127   3.742 -0.5095  0.7711 -0.0766
  163MOL    H9032814   4.524   5.059   3.639 -1.7938 -0.1710 -2.3659
  163MOL    H9132815   4.365   5.104   3.678 -0.1611  1.6660  0.6201
  163MOL    C9232816   4.723   5.098   3.961  0.4311 -0.4696 -0.2584
  163MOL    C9332817   4.714   4.948   3.982  0.0070  0.8640  0.5522
  163MOL    C9432818   4.758   4.914   4.125 -0.6510  0.2503  0.4345
  163MOL    O9532819   4.871   4.876   4.153  0.2419 -0.0787 -0.5158
  163MOL    N9632820   4.670   4.937   4.223  0.0292 -0.2154 -0.5461
  163MOL    H9732821   4.688   5.140   4.054  0.7138  1.4641 -1.0034
  163MOL    H9832822   4.830   5.122   3.961  0.2182  0.5173 -0.9047
  163MOL    H9932823   4.611   4.913   3.970  0.8987 -1.9609  0.6635
  163MOL   H10032824   4.699   4.949   4.319 -3.7418  0.7064  0.5912
  163MOL   H10132825   4.577   4.958   4.190 -0.3273 -0.4927  0.2647
  163MOL   C10232826   4.806   4.864   3.883 -0.3342 -0.3164  0.4309
  163MOL   C10332827   4.802   4.706   3.886  0.2378  0.4125  0.5872
  163MOL   C10432828   4.920   4.656   3.803 -0.0897 -0.5154  0.3762
  163MOL   O10532829   4.922   4.662   3.679 -0.0883 -0.7669  0.3631
  163MOL   N10632830   5.017   4.598   3.868  0.1409  0.1861 -0.0864
  163MOL   H10732831   4.909   4.897   3.889 -0.6337  0.9076 -0.9277
  163MOL   H10832832   4.776   4.894   3.783  1.0284 -2.5155 -0.6517
  163MOL   H10932833   4.806   4.665   3.987  1.4157 -0.1606  0.3126
  163MOL   H11032834   5.013   4.582   3.967  1.9412  1.4929  0.2307
  163MOL   H11132835   5.079   4.538   3.815 -1.5683 -0.6426 -1.1895
  163MOL   C11232836   4.664   4.663   3.830 -0.0018 -0.1363  0.0460
  163MOL   C11332837   4.627   4.511   3.847  0.0780 -0.1555  0.1465
  163MOL   C11432838   4.492   4.483   3.779  0.2735  0.7221  0.1355
  163MOL   O11532839   4.405   4.568   3.767 -0.1535 -0.5334 -0.2856
  163MOL   N11632840   4.476   4.364   3.719  0.2004  0.5663 -0.1216
  163MOL   H11732841   4.657   4.688   3.724 -1.9348 -2.4181 -0.4064
  163MOL   H11832842   4.585   4.721   3.876  0.5576  0.2090  0.5769
  163MOL   H11932843   4.694   4.457   3.781  0.3991  1.8334 -1.1991
  163MOL   H12032844   4.388   4.332   3.682  0.6467  0.1035 -0.7980
  163MOL   H12132845   4.553   4.298   3.721 -0.9766 -0.8813 -1.4387
  163MOL   C12232846   4.647   4.461   3.993 -0.0245  0.4343  0.3774
  163MOL   C12332847   4.585   4.542   4.109  0.9869 -0.6436 -0.3673
  163MOL   C12432848   4.663   4.491   4.233 -0.5304  0.1167 -0.6315
  163MOL   O12532849   4.699   4.375   4.242 -0.5729  0.3143 -0.2195
  163MOL   N12632850   4.714   4.583   4.312  0.5559  0.5104 -0.1611
  163MOL   H12732851   4.755   4.463   4.008  0.1905  0.0889 -1.0142
  163MOL   H12832852   4.614   4.357   3.996 -2.7305  1.1912 -1.7087
  163MOL   H12932853   4.618   4.644   4.088 -1.0784  0.8710  3.1924
  163MOL   H13032854   4.771   4.551   4.389  0.6435  1.0431 -0.0017
  163MOL   H13132855   4.702   4.683   4.304 -1.3765  0.4544  1.7345
  163MOL   C13232856   4.428   4.529   4.121 -0.0160  0.7516  0.6369
  163MOL   C13332857   4.356   4.674   4.132 -0.1059  0.1257 -0.4294
  163MOL   C13432858   4.368   4.741   4.277 -0.4452 -1.1000 -0.0056
  163MOL   O13532859   4.432   4.687   4.370 -0.1854 -0.7277  0.2865
  163MOL   N13632860   4.325   4.867   4.289  0.6197 -0.3067 -0.0218
  163MOL   H13732861   4.392   4.485   4.214 -1.4839  2.4750  0.9200
  163MOL   H13832862   4.388   4.462   4.046 -0.7967  0.3736  1.3792
  163MOL   H13932863   4.404   4.742   4.063  1.8441  1.3733  2.0570
  163MOL   H14032864   4.256   4.901   4.224  0.2374  0.1088  0.5932
  163MOL   H14132865   4.309   4.911   4.379 -2.7755 -2.9267  0.7420
  163MOL   C14232866   4.203   4.666   4.098  0.7691  0.1046  0.7310
  163MOL   C14332867   4.162   4.736   3.974  0.0006 -0.1223  0.3166
  163MOL   C14432868   4.195   4.878   3.982 -0.2051 -0.7726 -0.3710
  163MOL   O14532869   4.162   4.951   4.074 -0.3138  0.0126  0.4099
  163MOL   N14632870   4.270   4.927   3.888  0.0084 -0.0228  0.3482
  163MOL   H14732871   4.139   4.706   4.177 -1.3958  0.2038 -1.0208
  163MOL   H14832872   4.167   4.564   4.089 -0.6609  0.7485 -1.6533
  163MOL   H14932873   4.224   4.690   3.898  0.3861  0.2410  0.4069
  163MOL   H15032874   4.274   4.869   3.806  0.2992  0.4039  0.0557
  163MOL   H15132875   4.323   5.013   3.887  1.3779 -0.8539  0.0597
  163MOL   C15232876   4.015   4.728   3.925 -0.2626  0.2312  0.0551
  163MOL   C15332877   3.944   4.592   3.905  0.8081 -0.0536  0.8086
  163MOL   C15432878   3.900   4.540   4.040  0.0274 -0.0684  0.2768
  163MOL   O15532879   3.942   4.429   4.070  0.5389  0.0750 -0.2476
  163MOL   N15632880   3.795   4.598   4.095 -0.1494  0.3247 -0.2565
  163MOL   H15732881   4.011   4.782   3.830  2.0542  0.6932  0.1784
  163MOL   H15832882   3.961   4.790   3.996 -1.9261 -0.4402 -0.6067
  163MOL   H15932883   3.852   4.622   3.853  0.6942 -0.4312  0.7874
  163MOL   H16032884   3.733   4.657   4.040  0.4387  0.0545 -1.2285
  163MOL   H16132885   3.762   4.551   4.178  1.6550 -3.6113 -1.6317
  163MOL   C16232886   4.028   4.497   3.814  0.2545 -0.1149 -0.0418
  163MOL   C16332887   4.012   4.504   3.661  0.4785 -0.1180  0.1597
  163MOL   C16432888   4.058   4.642   3.607  0.0260 -0.5702  0.2046
  163MOL   O16532889   3.982   4.720   3.550  0.5574 -0.3617 -0.3137
  163MOL   N16632890   4.185   4.679   3.624 -0.1843 -0.9889 -0.4987
  163MOL   H16732891   3.989   4.396   3.831  1.6559 -0.7532 -0.5405
  163MOL   H16832892   4.135   4.488   3.833 -0.1229 -1.0493  1.8079
  163MOL   H16932893   4.091   4.437   3.626  0.2959 -0.3526  0.1982
  163MOL   H17032894   4.213   4.756   3.564 -0.9793 -0.2304  0.0946
  163MOL   H17132895   4.246   4.618   3.676  0.6279  1.3744  1.4212
  163MOL   C17232896   3.864   4.464   3.617 -0.5397  0.0643 -1.3031
  163MOL   C17332897   3.847   4.454   3.467  0.3979 -0.0554 -0.0699
  163MOL   C17432898   3.707   4.509   3.425 -0.1199  0.1049 -0.6553
  163MOL   O17532899   3.687   4.575   3.324  0.0109  0.5027  0.4511
  163MOL   N17632900   3.604   4.486   3.505 -0.2015 -0.5546 -0.2700
  163MOL   H17732901   3.793   4.537   3.657  0.1512 -0.4169  0.8466
  163MOL   H17832902   3.841   4.376   3.676  1.2390  0.1831 -0.4162
  163MOL   H17932903   3.924   4.515   3.419 -0.9010  0.0860 -2.0406
  163MOL   H18032904   3.608   4.439   3.594  0.0977  0.9964  0.5445
  163MOL   H18132905   3.517   4.529   3.477  0.7174  0.6799 -1.2616
  163MOL   C18232906   3.863   4.310   3.423 -0.1296 -0.0061 -0.4999
  163MOL   C18332907   3.852   4.286   3.268  0.2448 -0.2421 -0.1633
  163MOL   C18432908   3.861   4.141   3.251 -0.2944  0.0682 -0.3135
  163MOL   O18532909   3.960   4.081   3.293 -0.1646  0.0307 -0.8783
  163MOL   N18632910   3.758   4.074   3.188 -0.6304 -0.3343  0.0272
  163MOL   H18732911   3.787   4.252   3.475  0.8954 -0.8611  0.0769
  163MOL   H18832912   3.959   4.269   3.456 -1.4332 -1.6489  1.3442
  163MOL   H18932913   3.752   4.318   3.237  0.2594 -0.7463 -0.7397
  163MOL   H19032914   3.687   4.126   3.139 -1.9596 -1.2293  0.9697
  163MOL   H19132915   3.767   3.977   3.160  0.6078 -0.2327  0.0508
  163MOL   C19232916   3.961   4.363   3.184 -0.3028  0.4988  0.6464
  163MOL   C19332917   3.925   4.380   3.036 -0.8258  0.0188 -0.0539
  163MOL   C19432918   3.864   4.508   2.994 -0.9069 -0.1246 -0.1725
  163MOL   O19532919   3.941   4.604   2.977  0.2721 -0.4110  0.3703
  163MOL   N19632920   3.736   4.512   2.968  0.2509  0.2826  0.3697
  163MOL   H19732921   4.046   4.298   3.204  0.0998  0.1360 -2.1344
  163MOL   H19832922   3.980   4.461   3.229 -1.2676  2.0432 -2.1744
  163MOL   H19932923   4.015   4.364   2.978 -0.9741  1.4923 -0.7041
  163MOL   H20032924   3.684   4.427   2.955 -0.4480  1.1015 -2.3867
  163MOL   H20132925   3.692   4.598   2.938 -1.3412 -0.2413  1.1553
  163MOL   H20232926   3.867   4.292   3.007  0.9251 -0.7785 -1.2125
  164MOL     C132927   0.698   7.263   5.805 -0.3891  0.1131 -0.4722
  164MOL     C232928   0.796   7.181   5.722 -0.0608  0.0032 -0.5092
  164MOL     C332929   0.738   7.047   5.698 -0.6129  0.3214  0.0706
  164MOL     O432930   0.755   6.997   5.588 -0.7866 -0.1126  0.4302
  164MOL     N532931   0.669   6.986   5.798 -0.0434  0.5871 -1.1320
  164MOL     H632932   0.733   7.365   5.791 -0.8268  0.1572 -1.2428
  164MOL     H732933   0.597   7.248   5.768  0.2045 -0.6353 -1.7997
  164MOL     H832934   0.809   7.229   5.625 -2.5614  1.8362  0.0046
  164MOL     H932935   0.638   6.890   5.795 -0.7725  0.7631  0.1704
  164MOL    H1032936   0.653   7.040   5.882 -1.3966  1.5036 -1.9620
  164MOL    H1132937   0.698   7.231   5.910 -1.3171  1.6258  0.0068
  164MOL    C1232938   0.935   7.180   5.797  0.5746 -0.1625 -0.9006
  164MOL    C1332939   1.046   7.108   5.719 -0.4039 -0.6441 -1.0443
  164MOL    C1432940   1.065   6.966   5.778 -0.7795 -0.3112  0.3165
  164MOL    O1532941   1.110   6.957   5.892 -0.5137  0.4368  0.3706
  164MOL    N1632942   1.046   6.857   5.706 -0.0940  0.8099 -0.6401
  164MOL    H1732943   0.924   7.136   5.896 -1.9223 -1.2579 -1.6442
  164MOL    H1832944   0.964   7.284   5.809  0.0137 -0.0854 -0.2180
  164MOL    H1932945   1.002   7.100   5.620 -1.1159  2.0847 -0.9803
  164MOL    H2032946   1.005   6.873   5.616 -0.3616  0.1960 -0.6308
  164MOL    H2132947   1.061   6.765   5.745 -1.2333  0.2936 -1.3891
  164MOL    C2232948   1.175   7.205   5.708 -0.2488  0.1666 -0.7382
  164MOL    C2332949   1.309   7.135   5.689  0.3201 -1.1060 -0.7847
  164MOL    C2432950   1.422   7.240   5.691 -0.6108  0.0171  1.0726
  164MOL    O2532951   1.460   7.297   5.587  0.7228  0.2576 -0.5358
  164MOL    N2632952   1.485   7.263   5.806 -0.2620  0.1283 -0.0472
  164MOL    H2732953   1.183   7.261   5.801 -0.6528  1.3649 -1.4166
  164MOL    H2832954   1.154   7.277   5.629  1.9599  0.8910 -0.6853
  164MOL    H2932955   1.319   7.089   5.787 -2.1250  1.7748  0.9088
  164MOL    H3032956   1.452   7.216   5.888  3.7201 -1.3171  0.8468
  164MOL    H3132957   1.534   7.351   5.815 -1.5449  0.7574  0.9519
  164MOL    C3232958   1.325   7.039   5.560  0.0095  0.0449  1.0778
  164MOL    C3332959   1.375   6.896   5.595 -0.1488  0.5084  0.3993
  164MOL    C3432960   1.509   6.904   5.670  0.5885 -0.0293 -0.2046
  164MOL    O3532961   1.620   6.911   5.617 -0.2018  0.2935 -0.4060
  164MOL    N3632962   1.504   6.906   5.798  0.6030  0.0152 -0.2349
  164MOL    H3732963   1.389   7.079   5.482  0.4910  0.9569  1.9220
  164MOL    H3832964   1.224   7.031   5.519 -1.0039 -0.2200  3.5458
  164MOL    H3932965   1.291   6.856   5.652 -1.4272  1.9463 -0.4603
  164MOL    H4032966   1.586   6.907   5.857  0.6443 -1.0337 -0.2526
  164MOL    H4132967   1.412   6.899   5.839  0.0417  1.3482 -1.2514
  164MOL    C4232968   1.373   6.799   5.473 -0.8561 -0.3647 -0.1547
  164MOL    C4332969   1.329   6.646   5.500 -0.3885 -0.9290 -0.3546
  164MOL    C4432970   1.431   6.571   5.586  0.2834 -0.2700 -0.5723
  164MOL    O4532971   1.543   6.537   5.543  0.2197  0.1074 -0.4434
  164MOL    N4632972   1.396   6.549   5.711  0.5672  0.1987  0.0823
  164MOL    H4732973   1.470   6.803   5.424  0.6256  0.7459  2.6987
  164MOL    H4832974   1.308   6.834   5.393 -0.6220  0.8017  0.1554
  164MOL    H4932975   1.246   6.655   5.570  0.1988 -0.5131  0.2966
  164MOL    H5032976   1.457   6.505   5.779  2.1458 -0.8826 -1.9615
  164MOL    H5132977   1.300   6.568   5.737  0.3999  2.2370 -1.8448
  164MOL    C5232978   1.302   6.569   5.366  0.2931  0.3774 -0.2777
  164MOL    C5332979   1.250   6.425   5.379 -0.4822 -0.0898  1.0670
  164MOL    C5432980   1.356   6.323   5.339 -0.7878 -0.7609  0.6705
  164MOL    O5532981   1.336   6.240   5.248  0.2562 -0.5776  0.0046
  164MOL    N5632982   1.462   6.315   5.418 -0.0036  0.7350  0.4571
  164MOL    H5732983   1.397   6.573   5.313  0.1578 -0.8783 -0.6316
  164MOL    H5832984   1.233   6.624   5.301  0.7813 -1.7936 -2.7398
  164MOL    H5932985   1.229   6.408   5.484  0.6890 -3.5966  0.8322
  164MOL    H6032986   1.530   6.243   5.401  0.7663  0.9497  2.4548
  164MOL    H6132987   1.496   6.398   5.465  1.6038 -0.3375  1.2048
  164MOL    C6232988   1.118   6.401   5.302 -0.2955  0.1002 -0.9146
  164MOL    C6332989   1.002   6.475   5.369 -1.1642 -0.1856  0.2896
  164MOL    C6432990   0.923   6.391   5.472 -0.8411  1.4429  0.2016
  164MOL    O6532991   0.980   6.334   5.565 -0.0762 -0.0252 -0.4137
  164MOL    N6632992   0.793   6.370   5.450  0.0945 -0.1325 -0.4673
  164MOL    H6732993   1.094   6.295   5.306 -0.0763  0.0629 -0.5427
  164MOL    H6832994   1.130   6.422   5.195 -1.0313  0.3197 -0.9562
  164MOL    H6932995   1.046   6.552   5.433  2.9069 -2.4562  0.4300
  164MOL    H7032996   0.734   6.308   5.504  1.5178 -0.4669  0.7563
  164MOL    H7132997   0.750   6.404   5.366  0.2527  0.5908 -0.2543
  164MOL    C7232998   0.907   6.549   5.273  1.1131 -0.7993 -0.4029
  164MOL    C7332999   0.945   6.684   5.199  0.2185  0.2432 -0.3725
  164MOL    C7433000   0.976   6.806   5.288  0.1794 -0.8308  1.2289
  164MOL    O7533001   0.911   6.830   5.387  0.3778  0.0032 -0.2519
  164MOL    N7633002   1.075   6.884   5.247 -0.2271  0.4259  0.0040
  164MOL    H7733003   0.809   6.569   5.316  1.3972  0.6482 -0.4114
  164MOL    H7833004   0.877   6.480   5.194  1.2488 -0.8219 -0.4358
  164MOL    H7933005   1.045   6.672   5.157  1.4547  1.2316  2.1546
  164MOL    H8033006   1.084   6.980   5.278 -0.5032  0.3223  0.4119
  164MOL    H8133007   1.095   6.863   5.150  1.6508 -0.1542  0.4952
  164MOL    C8233008   0.856   6.716   5.073 -0.9266 -0.3411  0.2164
  164MOL    C8333009   0.931   6.745   4.934  0.1018 -0.3451 -0.1039
  164MOL    C8433010   1.015   6.630   4.880  0.1427  0.1177 -0.1697
  164MOL    O8533011   1.113   6.590   4.938  0.1303  0.2418 -0.1782
  164MOL    N8633012   0.968   6.585   4.764  0.0722 -0.4829 -0.1080
  164MOL    H8733013   0.797   6.804   5.095  0.7432  0.1657  3.0282
  164MOL    H8833014   0.790   6.632   5.051 -2.5203  0.9556 -0.0265
  164MOL    H8933015   0.846   6.756   4.867  0.4476  0.2192 -0.4550
  164MOL    H9033016   1.007   6.509   4.709  0.1014  1.0664 -2.2668
  164MOL    H9133017   0.882   6.629   4.736 -0.4712 -0.9878  0.7475
  164MOL    C9233018   0.987   6.882   4.924  0.4578 -0.4405 -0.1585
  164MOL    C9333019   1.026   6.931   4.783 -0.7080  0.4194  0.6152
  164MOL    C9433020   1.152   6.875   4.721 -0.2091  0.1023 -0.2445
  164MOL    O9533021   1.257   6.848   4.785  0.2003 -0.0030 -0.8189
  164MOL    N9633022   1.152   6.866   4.589 -0.0359  0.1400  0.7733
  164MOL    H9733023   1.076   6.888   4.986 -0.3967 -1.3694  1.1784
  164MOL    H9833024   0.915   6.952   4.964 -1.0759 -2.2083  0.2343
  164MOL    H9933025   0.945   6.919   4.711  0.0113  3.6361 -0.7902
  164MOL   H10033026   1.237   6.848   4.538 -0.3599  1.1666 -0.1280
  164MOL   H10133027   1.070   6.886   4.534 -2.5725 -0.6096  4.0908
  164MOL   C10233028   1.031   7.083   4.795  0.4275 -0.2901 -0.0242
  164MOL   C10333029   0.893   7.153   4.793  0.3409  0.1920 -0.0682
  164MOL   C10433030   0.869   7.204   4.646 -0.2624  0.2219  0.0270
  164MOL   O10533031   0.946   7.286   4.595 -0.2011 -0.2656  0.3659
  164MOL   N10633032   0.763   7.154   4.587 -0.7738 -0.0106  0.1879
  164MOL   H10733033   1.093   7.128   4.717  0.0968  2.1499  1.0765
  164MOL   H10833034   1.077   7.110   4.890  1.7591  0.5305 -0.8905
  164MOL   H10933035   0.816   7.078   4.814  1.8660 -1.4431 -0.2250
  164MOL   H11033036   0.742   7.177   4.490 -0.2873 -0.2351  0.0269
  164MOL   H11133037   0.710   7.085   4.638 -1.7904  1.3273  0.9766
  164MOL   C11233038   0.886   7.268   4.891 -0.2599  0.2623 -0.0915
  164MOL   C11333039   0.858   7.247   5.040  0.3884 -0.5635 -0.6161
  164MOL   C11433040   0.730   7.161   5.054 -0.3993 -0.3778  0.1046
  164MOL   O11533041   0.641   7.166   4.975 -0.3491 -0.0260  0.0587
  164MOL   N11633042   0.724   7.080   5.160 -0.7072  0.3905  0.2723
  164MOL   H11733043   0.810   7.335   4.850 -0.5133  0.1635  0.2130
  164MOL   H11833044   0.976   7.329   4.887  1.2923 -1.8137  2.2291
  164MOL   H11933045   0.943   7.189   5.074 -1.1503 -1.5459  1.7061
  164MOL   H12033046   0.646   7.017   5.173 -0.8527  0.4132 -0.4503
  164MOL   H12133047   0.793   7.086   5.233 -1.5277 -1.9838  1.3043
  164MOL   C12233048   0.839   7.380   5.119  0.7888 -0.1720  0.4563
  164MOL   C12333049   0.907   7.386   5.262 -0.4041  0.1265 -0.0382
  164MOL   C12433050   0.931   7.252   5.334 -0.1138 -0.1918 -0.2711
  164MOL   O12533051   1.034   7.184   5.329  0.6501 -0.9092  0.3277
  164MOL   N12633052   0.828   7.201   5.395  0.7135  0.3617 -0.2223
  164MOL   H12733053   0.734   7.411   5.117  1.5783  2.6467  0.6695
  164MOL   H12833054   0.887   7.457   5.058  0.6668 -0.1347  0.4071
  164MOL   H12933055   1.009   7.422   5.255 -0.0323 -0.9515 -0.2780
  164MOL   H13033056   0.736   7.242   5.390  0.9127  0.8468  0.0858
  164MOL   H13133057   0.842   7.121   5.454 -3.2231  1.5077  2.4506
  164MOL   C13233058   0.842   7.490   5.349  0.2471  0.4351  0.2378
  164MOL   C13333059   0.852   7.645   5.313  0.4021  0.0543  0.5328
  164MOL   C13433060   1.000   0.029   5.312 -0.5070  0.3811 -0.7215
  164MOL   O13533061   1.067   0.017   5.211 -0.3417 -0.1251 -0.4961
  164MOL   N13633062   1.045   0.057   5.433  0.5104 -0.2146  0.2859
  164MOL   H13733063   0.868   7.465   5.451 -1.1206 -1.7931  0.0856
  164MOL   H13833064   0.734   7.474   5.355  0.0858  2.0265  2.1330
  164MOL   H13933065   0.827   0.008   5.209  1.5194  2.1658  0.6390
  164MOL   H14033066   1.138   0.095   5.446  1.2645 -2.4658  1.6504
  164MOL   H14133067   0.973   0.080   5.500 -0.6571 -1.2261 -0.5899
  164MOL   C14233068   0.753   0.075   5.398 -0.0685 -0.0968 -0.2290
  164MOL   C14333069   0.701   0.210   5.335 -0.8806 -0.3626  0.1756
  164MOL   C14433070   0.817   0.312   5.321 -0.6728 -0.6163  0.6767
  164MOL   O14533071   0.910   0.314   5.401  0.2903 -0.1411 -0.0634
  164MOL   N14633072   0.812   0.396   5.220  0.2113  0.5625 -0.4886
  164MOL   H14733073   0.789   0.089   5.500  0.2859  0.3957 -0.4177
  164MOL   H14833074   0.662   0.016   5.403 -0.3911  0.4145 -0.0677
  164MOL   H14933075   0.664   0.189   5.235  0.1756 -0.5092 -0.1901
  164MOL   H15033076   0.878   0.472   5.210 -2.1178  2.6501 -0.5919
  164MOL   H15133077   0.735   0.382   5.156 -1.3070 -0.0232  1.4297
  164MOL   C15233078   0.588   0.264   5.412  0.4775  0.0988 -0.7190
  164MOL   C15333079   0.608   0.303   5.560  0.5321  0.6259 -0.1010
  164MOL   C15433080   0.538   0.198   5.645 -0.2583 -0.4927  0.0572
  164MOL   O15533081   0.422   0.169   5.631 -0.3208 -0.1959 -0.5195
  164MOL   N15633082   0.617   0.147   5.737 -0.1718  0.1938  0.7021
  164MOL   H15733083   0.511   0.187   5.416 -2.2923  2.8372  0.4987
  164MOL   H15833084   0.548   0.349   5.358  0.2778 -0.7570 -1.9247
  164MOL   H15933085   0.715   0.293   5.575  1.1784  3.0366 -2.6027
  164MOL   H16033086   0.571   0.084   5.802  0.8264  0.9629  2.1787
  164MOL   H16133087   0.712   0.180   5.745 -0.4030  1.1669 -0.4783
  164MOL   C16233088   0.558   0.449   5.588  0.0892 -0.2100 -0.2372
  164MOL   C16333089   0.665   0.557   5.560  0.4997 -0.1286  0.0156
  164MOL   C16433090   0.786   0.564   5.652 -0.0663  0.2127 -0.1210
  164MOL   O16533091   0.808   0.656   5.728  0.7300  0.0221 -0.2057
  164MOL   N16633092   0.882   0.477   5.625 -0.1794 -0.7284  0.2754
  164MOL   H16733093   0.523   0.465   5.690 -1.1404  1.1339 -0.8531
  164MOL   H16833094   0.473   0.470   5.524 -0.7209 -0.6528  0.6724
  164MOL   H16933095   0.699   0.533   5.459 -0.1364 -1.1435  0.0394
  164MOL   H17033096   0.881   0.407   5.553 -0.0607 -1.2053  0.7382
  164MOL   H17133097   0.958   0.479   5.692 -2.4713  2.2680  2.9779
  164MOL   C17233098   0.601   0.700   5.537 -0.0923 -0.9891  0.7189
  164MOL   C17333099   0.510   0.725   5.419 -0.2452 -0.5742  0.2274
  164MOL   C17433100   0.587   0.730   5.286 -0.1486  0.0081 -0.5728
  164MOL   O17533101   0.707   0.726   5.286 -0.0121  0.1368  0.4286
  164MOL   N17633102   0.525   0.721   5.171  0.7038  0.5560 -0.0397
  164MOL   H17733103   0.678   0.778   5.538 -2.2925  1.3143 -1.3209
  164MOL   H17833104   0.542   0.721   5.627 -0.8380  0.6460 -0.1306
  164MOL   H17933105   0.435   0.647   5.406 -2.5840  1.5908  0.3641
  164MOL   H18033106   0.424   0.733   5.176  0.4548 -1.9997  1.8538
  164MOL   H18133107   0.567   0.750   5.084 -1.9705  1.7059 -1.0158
  164MOL   C18233108   0.433   0.858   5.429  0.4261  0.5641 -0.6617
  164MOL   C18333109   0.281   0.847   5.459 -0.7861 -0.8732 -0.1458
  164MOL   C18433110   0.186   0.814   5.344  0.1983  0.6325 -0.3892
  164MOL   O18533111   0.209   0.868   5.238 -0.3767  0.6895  0.2579
  164MOL   N18633112   0.095   0.717   5.357 -0.1292  0.9058 -0.2672
  164MOL   H18733113   0.446   0.927   5.345 -0.6611  2.4705  0.7060
  164MOL   H18833114   0.477   0.916   5.510 -0.5396  1.8377 -1.0283
  164MOL   H18933115   0.269   0.781   5.545 -0.6176 -0.4354  0.2156
  164MOL   H19033116   0.029   0.692   5.285 -0.6262  1.9298 -0.1756
  164MOL   H19133117   0.097   0.669   5.446  0.6842 -1.3541 -1.4500
  164MOL   C19233118   0.243   0.989   5.510  0.1467  0.2304 -1.0501
  164MOL   C19333119   0.104   1.024   5.552 -1.1497 -0.4960  0.1130
  164MOL   C19433120   0.087   1.167   5.603 -0.1915  0.4512  0.4330
  164MOL   O19533121   0.119   1.200   5.714  0.0688  0.1602  0.0393
  164MOL   N19633122   0.021   1.248   5.527  0.1311  0.4494  0.2620
  164MOL   H19733123   0.276   1.055   5.431 -0.4401  0.8457 -0.7959
  164MOL   H19833124   0.303   1.014   5.597 -2.0076  1.8304  0.0552
  164MOL   H19933125   0.039   1.005   5.467 -2.2440  1.4002  0.4984
  164MOL   H20033126   7.657   1.222   5.431  2.0791  0.4488 -0.1854
  164MOL   H20133127   0.006   1.344   5.556  0.5508  0.1650  1.4528
  164MOL   H20233128   0.063   0.959   5.630 -3.1257 -1.1267 -1.4155
  165MOL     C133129   4.775   3.857   5.595  0.0800  0.1222  0.6335
  165MOL     C233130   4.753   3.827   5.748 -0.1830 -0.0881  0.2596
  165MOL     C333131   4.660   3.704   5.773 -0.1631  1.0400 -0.2856
  165MOL     O433132   4.570   3.676   5.696 -0.1060  0.0771  0.1717
  165MOL     N533133   4.693   3.617   5.874  0.3305 -0.3805 -0.6508
  165MOL     H633134   4.680   3.853   5.541 -0.3910 -0.0427  1.4709
  165MOL     H733135   4.808   3.956   5.565 -1.0780 -0.6704 -3.6510
  165MOL     H833136   4.853   3.801   5.783  0.2636 -1.5938 -2.0868
  165MOL     H933137   4.775   3.628   5.931  0.4025  0.5635 -0.9335
  165MOL    H1033138   4.643   3.530   5.864 -0.4757  0.0279 -0.2624
  165MOL    H1133139   4.851   3.793   5.548  1.1295  2.2061 -0.5897
  165MOL    C1233140   4.700   3.961   5.811  0.2773 -0.5559  0.0606
  165MOL    C1333141   4.718   3.971   5.966 -0.3005 -0.1187 -0.4934
  165MOL    C1433142   4.596   4.036   6.028  0.4601  0.9651 -0.1270
  165MOL    O1533143   4.527   3.973   6.107 -0.0413  0.1474  0.2155
  165MOL    N1633144   4.568   4.157   5.991  0.2019  0.5414 -0.0712
  165MOL    H1733145   4.595   3.979   5.788  0.3830 -2.3117 -1.9767
  165MOL    H1833146   4.761   4.039   5.766  0.2118 -0.7200 -0.3123
  165MOL    H1933147   4.710   3.874   6.014  0.2387  0.7099  1.3194
  165MOL    H2033148   4.626   4.211   5.929  1.7007 -1.3882 -0.4150
  165MOL    H2133149   4.487   4.200   6.032 -0.2342  0.9448 -1.3454
  165MOL    C2233150   4.849   4.028   6.017  0.5986  0.7836 -0.8509
  165MOL    C2333151   4.857   4.042   6.173  0.0629 -0.3770 -0.3664
  165MOL    C2433152   4.971   4.130   6.233 -0.6686  0.4832  0.8293
  165MOL    O2533153   5.090   4.109   6.208  0.0838 -0.5324  0.5952
  165MOL    N2633154   4.933   4.218   6.323  0.0534 -0.5174 -0.1446
  165MOL    H2733155   4.866   4.123   5.965  0.4361  1.5909  0.5257
  165MOL    H2833156   4.930   3.963   5.984  0.7476  0.3502  0.3381
  165MOL    H2933157   4.769   4.097   6.206 -0.4119 -1.4589  0.1920
  165MOL    H3033158   4.837   4.243   6.342  1.1057  3.3920  0.5303
  165MOL    H3133159   4.997   4.279   6.372  0.9041 -0.6973 -1.0158
  165MOL    C3233160   4.855   3.907   6.248  0.6188 -0.4863  0.1865
  165MOL    C3333161   4.986   3.826   6.260  0.0161  0.2405  0.7720
  165MOL    C3433162   5.035   3.769   6.130  0.1765 -0.2400  0.1605
  165MOL    O3533163   4.961   3.717   6.047 -0.5182  0.6028  0.5396
  165MOL    N3633164   5.162   3.795   6.103  0.5424 -0.0219 -0.0462
  165MOL    H3733165   4.772   3.848   6.207  0.0212  0.4743  0.0069
  165MOL    H3833166   4.824   3.916   6.352  1.5631 -1.6389  0.5844
  165MOL    H3933167   5.061   3.889   6.308  0.1049 -0.4292  1.5199
  165MOL    H4033168   5.197   3.781   6.010 -1.2610  0.0481 -0.7401
  165MOL    H4133169   5.208   3.862   6.163 -0.0956  1.6386 -1.3622
  165MOL    C4233170   4.973   3.715   6.366  0.3484 -0.3438  0.2144
  165MOL    C4333171   5.100   3.683   6.449 -0.4696 -0.0289 -0.5388
  165MOL    C4433172   5.187   3.576   6.381  0.3124 -0.5887  0.1222
  165MOL    O4533173   5.159   3.456   6.386  0.1251  0.5532 -0.2241
  165MOL    N4633174   5.301   3.608   6.316  0.0801 -0.0994  0.0847
  165MOL    H4733175   4.935   3.624   6.318  1.3658 -0.9720  0.5778
  165MOL    H4833176   4.892   3.749   6.430  0.8727 -0.4052  0.9082
  165MOL    H4933177   5.157   3.775   6.457  0.3932 -0.6183  0.4041
  165MOL    H5033178   5.328   3.555   6.234  1.1929  0.1118  0.3115
  165MOL    H5133179   5.320   3.706   6.301  1.9714 -0.6592 -1.3711
  165MOL    C5233180   5.056   3.649   6.597  0.0203 -0.3649 -0.2758
  165MOL    C5333181   5.141   3.726   6.705  1.1369 -0.0639  0.1163
  165MOL    C5433182   5.136   3.877   6.701 -0.2566  0.6070 -0.1523
  165MOL    O5533183   5.213   3.950   6.761  0.1621  0.4683 -0.1545
  165MOL    N5633184   5.051   3.943   6.624 -0.6583  0.0913 -0.5874
  165MOL    H5733185   5.074   3.542   6.604 -1.6475 -0.6553 -0.2120
  165MOL    H5833186   4.951   3.670   6.616 -0.0910 -2.0739  1.1189
  165MOL    H5933187   5.090   3.699   6.798  0.2771 -3.6769 -1.2863
  165MOL    H6033188   4.992   3.893   6.558 -1.2342  0.6709 -0.5155
  165MOL    H6133189   5.054   4.044   6.618  1.3944  0.1162  0.5354
  165MOL    C6233190   5.290   3.675   6.700 -0.3916  0.2732  0.1263
  165MOL    C6333191   5.325   3.528   6.742  0.6670 -0.2147 -0.4810
  165MOL    C6433192   5.246   3.472   6.865  0.4635 -0.0672  0.8706
  165MOL    O6533193   5.277   3.496   6.980  0.2270  0.1564  0.1872
  165MOL    N6633194   5.150   3.387   6.837 -0.0388  0.5263 -0.5528
  165MOL    H6733195   5.340   3.741   6.771 -1.7240  0.7691  0.6132
  165MOL    H6833196   5.327   3.689   6.598  2.1251  0.1313  0.9757
  165MOL    H6933197   5.284   3.474   6.657 -0.9724  2.6892 -1.5965
  165MOL    H7033198   5.139   3.349   6.744 -1.7769 -0.8873  0.1921
  165MOL    H7133199   5.104   3.347   6.918 -1.4986 -0.3755 -1.7949
  165MOL    C7233200   5.477   3.499   6.762  0.0760 -0.3535  0.7343
  165MOL    C7333201   5.551   3.480   6.623 -0.5330  0.1745  0.7171
  165MOL    C7433202   5.524   3.344   6.554  0.1496  0.3058 -0.0474
  165MOL    O7533203   5.589   3.245   6.586 -0.6088  0.5274  0.3767
  165MOL    N7633204   5.415   3.332   6.474 -0.7041 -0.2538 -0.1330
  165MOL    H7733205   5.491   3.407   6.820  3.0186 -0.2519  0.2688
  165MOL    H7833206   5.521   3.589   6.805 -0.5310 -0.2813  1.1996
  165MOL    H7933207   5.497   3.549   6.557 -1.8996 -1.5009  0.0203
  165MOL    H8033208   5.385   3.241   6.443  1.2171 -1.0068  0.1368
  165MOL    H8133209   5.345   3.405   6.462 -1.3960 -1.2026 -2.0585
  165MOL    C8233210   5.699   3.516   6.636  0.1846  0.0574  0.9529
  165MOL    C8333211   5.793   3.518   6.516 -0.2267  0.2512 -0.3026
  165MOL    C8433212   5.932   3.567   6.562 -0.4949  0.1569  0.3510
  165MOL    O8533213   5.977   3.675   6.532 -0.2142  0.2358  0.1711
  165MOL    N8633214   6.004   3.481   6.635 -0.7081 -0.1184 -0.4870
  165MOL    H8733215   5.744   3.433   6.692  1.0364 -2.2871 -3.0108
  165MOL    H8833216   5.703   3.603   6.701  0.3063  0.3723  0.5236
  165MOL    H8933217   5.807   3.416   6.478  1.6051  0.2233  0.3833
  165MOL    H9033218   5.990   3.381   6.629  0.5333 -0.3075 -0.5644
  165MOL    H9133219   6.100   3.511   6.646 -0.9724  0.0322  1.4874
  165MOL    C9233220   5.733   3.603   6.406 -0.2085  0.2977  0.6475
  165MOL    C9333221   5.795   3.610   6.267 -0.1145 -0.3851 -0.1286
  165MOL    C9433222   5.747   3.734   6.193 -0.1092 -0.3331 -0.4804
  165MOL    O9533223   5.664   3.720   6.107 -0.1035 -0.0935 -0.1094
  165MOL    N9633224   5.796   3.852   6.219  0.1322 -0.0421 -0.2769
  165MOL    H9733225   5.726   3.707   6.439  1.8047  1.2359 -1.7123
  165MOL    H9833226   5.628   3.574   6.397  0.7701 -3.0747 -0.5304
  165MOL    H9933227   5.904   3.612   6.274  0.0457 -0.6096 -2.1169
  165MOL   H10033228   5.839   3.883   6.305  0.7612 -1.1447 -0.1796
  165MOL   H10133229   5.765   3.920   6.150 -3.2980 -0.7952  0.4534
  165MOL   C10233230   5.777   3.479   6.192 -0.4054  0.5445  0.3842
  165MOL   C10333231   5.872   3.465   6.069  0.2024  0.9392  0.0201
  165MOL   C10433232   5.786   3.426   5.945  0.4135 -0.4115  0.3570
  165MOL   O10533233   5.816   3.328   5.875 -0.6188 -0.4895 -0.6260
  165MOL   N10633234   5.684   3.503   5.914 -0.5888 -0.1663  0.5742
  165MOL   H10733235   5.672   3.472   6.164 -0.2468 -0.6624  0.0815
  165MOL   H10833236   5.787   3.394   6.259 -1.3148  1.3672  1.5913
  165MOL   H10933237   5.923   3.558   6.045  2.9891 -0.0816  1.6962
  165MOL   H11033238   5.643   3.565   5.982 -2.4194 -2.4194  1.5873
  165MOL   H11133239   5.626   3.489   5.832  1.4754  2.0697 -1.3311
  165MOL   C11233240   5.990   3.370   6.104 -0.3051  0.2629  0.3575
  165MOL   C11333241   6.109   3.445   6.175  0.3350  0.0212  0.3869
  165MOL   C11433242   6.169   3.562   6.089 -0.4442  0.2779 -0.0644
  165MOL   O11533243   6.191   3.544   5.968  0.1606  0.2523 -0.1366
  165MOL   N11633244   6.180   3.682   6.149 -0.1573 -0.3479 -0.4016
  165MOL   H11733245   6.036   3.319   6.020 -2.0593 -0.3493 -0.2399
  165MOL   H11833246   5.945   3.293   6.166 -2.6290  0.6744 -0.7855
  165MOL   H11933247   6.068   3.485   6.268 -0.0616  0.7781 -0.1036
  165MOL   H12033248   6.213   3.755   6.088  1.6927  0.2230  1.2563
  165MOL   H12133249   6.146   3.704   6.242 -1.1517  0.8044 -1.0205
  165MOL   C12233250   6.225   3.350   6.205  0.1310  0.0276 -0.8325
  165MOL   C12333251   6.212   3.219   6.293 -0.1562 -0.2164 -0.7035
  165MOL   C12433252   6.138   3.103   6.223  0.0746  0.7760  0.1943
  165MOL   O12533253   6.025   3.067   6.250 -0.2169  0.2441 -0.6938
  165MOL   N12633254   6.207   3.042   6.125  0.0346 -0.1645  0.6566
  165MOL   H12733255   6.316   3.402   6.237 -0.9686  1.0431  0.6925
  165MOL   H12833256   6.256   3.313   6.108 -1.3347 -2.1730 -0.4925
  165MOL   H12933257   6.307   3.176   6.324  0.7828  2.2060 -0.0552
  165MOL   H13033258   6.284   3.086   6.078 -0.0326 -2.8719 -2.0622
  165MOL   H13133259   6.156   2.972   6.073  2.5510  0.3281 -2.6447
  165MOL   C13233260   6.138   3.255   6.428  0.1405  0.4267  0.2276
  165MOL   C13333261   6.130   3.143   6.536 -0.0994 -0.4960  0.1877
  165MOL   C13433262   5.987   3.115   6.574 -0.8261  0.6295  0.4551
  165MOL   O13533263   5.922   3.204   6.638  0.4197  0.6410 -0.1772
  165MOL   N13633264   5.943   2.993   6.552 -0.2991 -0.5299 -0.3175
  165MOL   H13733265   6.038   3.292   6.406 -0.0004 -0.4899 -0.7244
  165MOL   H13833266   6.191   3.337   6.477 -0.0887  0.2085  0.8353
  165MOL   H13933267   6.173   3.053   6.492  1.0716 -0.5426  1.4185
  165MOL   H14033268   6.002   2.922   6.510  0.2768  0.0306 -0.4647
  165MOL   H14133269   5.867   2.959   6.610 -0.4491  0.3249 -0.0059
  165MOL   C14233270   6.209   3.167   6.666 -0.0151 -0.0020  0.2481
  165MOL   C14333271   6.358   3.140   6.656  0.5944 -0.1385  0.7380
  165MOL   C14433272   6.389   2.990   6.625 -0.0611 -0.1254 -0.0913
  165MOL   O14533273   6.461   2.951   6.533 -0.7079 -0.1131  0.4321
  165MOL   N14633274   6.350   2.897   6.711  0.4558 -0.8265  0.3579
  165MOL   H14733275   6.187   3.093   6.743  3.0276 -2.5266 -1.1705
  165MOL   H14833276   6.180   3.264   6.708 -1.6793 -0.1932 -0.4183
  165MOL   H14933277   6.393   3.194   6.568  1.0610  0.5329  1.3289
  165MOL   H15033278   6.401   2.810   6.707 -0.7767 -1.6890  2.5898
  165MOL   H15133279   6.292   2.919   6.791 -1.5045 -0.0974 -1.2517
  165MOL   C15233280   6.434   3.197   6.772 -0.3906  0.2180  0.4743
  165MOL   C15333281   6.507   3.332   6.751  0.6723 -0.0319  0.4631
  165MOL   C15433282   6.411   3.452   6.768 -0.4574  0.2031  0.0295
  165MOL   O15533283   6.316   3.470   6.685 -0.4656  0.4051 -0.2854
  165MOL   N15633284   6.438   3.534   6.866  0.0876 -0.3389 -0.2563
  165MOL   H15733285   6.501   3.126   6.819  0.5839  0.1951 -0.9261
  165MOL   H15833286   6.368   3.208   6.858 -0.6653  0.6547  0.2081
  165MOL   H15933287   6.572   3.344   6.837  2.5105 -1.6510 -0.6644
  165MOL   H16033288   6.377   3.612   6.885  1.3213  0.4137  0.7099
  165MOL   H16133289   6.519   3.511   6.923 -0.7189 -0.9920  0.6314
  165MOL   C16233290   6.601   3.350   6.627  0.7323 -0.4087 -0.2057
  165MOL   C16333291   6.714   3.249   6.590  0.4854 -0.1034  0.2958
  165MOL   C16433292   6.813   3.227   6.706 -0.3618 -0.2410  0.1860
  165MOL   O16533293   6.792   3.268   6.816 -0.0861 -0.5679 -0.5125
  165MOL   N16633294   6.924   3.163   6.676 -0.6796 -0.0309  0.2501
  165MOL   H16733295   6.639   3.451   6.646  0.5807 -0.4849  0.5293
  165MOL   H16833296   6.539   3.357   6.538 -0.1250 -0.7284  0.3591
  165MOL   H16933297   6.659   3.155   6.582 -3.3265  2.2414 -2.9123
  165MOL   H17033298   6.948   3.123   6.586 -1.5586 -1.8267  0.8097
  165MOL   H17133299   7.000   3.153   6.742 -2.5296 -0.6408  2.3056
  165MOL   C17233300   6.773   3.286   6.454  0.1425 -0.5395 -0.4222
  165MOL   C17333301   6.786   3.180   6.340 -0.2388 -0.0226  0.0192
  165MOL   C17433302   6.829   3.044   6.393  0.3805  0.3472  0.2235
  165MOL   O17533303   6.939   3.026   6.444 -0.4236  0.8727  0.5352
  165MOL   N17633304   6.737   2.946   6.383  0.1834 -0.8903  0.1516
  165MOL   H17733305   6.868   3.338   6.469  1.0675 -2.7533  1.6652
  165MOL   H17833306   6.705   3.362   6.416  0.6600  1.9853  3.4574
  165MOL   H17933307   6.690   3.155   6.296  0.0480 -0.3575 -0.4343
  165MOL   H18033308   6.648   2.971   6.343  0.5748 -0.6023 -0.5662
  165MOL   H18133309   6.764   2.854   6.414 -0.1191 -0.9695  0.1798
  165MOL   C18233310   6.886   3.241   6.224  0.2480  0.2079  0.4010
  165MOL   C18333311   6.830   3.359   6.136 -0.3541  0.3447  0.7535
  165MOL   C18433312   6.839   3.494   6.202 -0.4570  0.0151  0.0383
  165MOL   O18533313   6.755   3.538   6.284  0.4257 -0.4652 -0.0306
  165MOL   N18633314   6.931   3.579   6.151 -0.1477  0.1015  0.0467
  165MOL   H18733315   6.900   3.164   6.148  0.5073  0.2644  0.3921
  165MOL   H18833316   6.985   3.261   6.266 -0.0282  2.0654  0.2145
  165MOL   H18933317   6.896   3.370   6.050 -1.3867 -1.2713 -0.2733
  165MOL   H19033318   6.912   3.678   6.150  2.0165  0.5276  0.3207
  165MOL   H19133319   7.002   3.543   6.088 -1.6585 -2.2823 -0.3850
  165MOL   C19233320   6.683   3.332   6.082  0.0158 -0.3077  0.8286
  165MOL   C19333321   6.643   3.429   5.966  0.5948 -0.0415 -0.4219
  165MOL   C19433322   6.722   3.431   5.836  0.5475  0.7192  0.4791
  165MOL   O19533323   6.780   3.332   5.795  0.2787 -0.3798  0.9080
  165MOL   N19633324   6.746   3.551   5.777 -0.4028 -0.0848 -0.2080
  165MOL   H19733325   6.602   3.342   6.154 -1.6272 -4.3558 -0.3151
  165MOL   H19833326   6.679   3.233   6.037 -0.3736  0.9385 -2.0063
  165MOL   H19933327   6.539   3.405   5.943  0.6660 -0.1684 -0.6148
  165MOL   H20033328   6.690   3.631   5.805 -1.2241 -0.9675  0.7550
  165MOL   H20133329   6.811   3.547   5.701 -1.7834 -0.9320 -1.3542
  165MOL   H20233330   6.637   3.528   6.011 -0.0549  0.2475 -1.1268
  166MOL     C133331   1.321   6.691   2.264  0.5298 -0.5180 -0.0778
  166MOL     C233332   1.199   6.783   2.261  0.2066 -0.8420  0.4162
  166MOL     C333333   1.153   6.815   2.113 -0.4106 -0.0579 -0.5705
  166MOL     O433334   1.070   6.744   2.054  0.7857 -0.5197  0.7073
  166MOL     N533335   1.205   6.922   2.061  0.8161 -0.1602 -0.0944
  166MOL     H633336   1.323   6.624   2.179  1.0325 -0.5701 -0.0225
  166MOL     H733337   1.412   6.751   2.265 -0.7277  1.4593  0.7805
  166MOL     H833338   1.115   6.730   2.307 -1.1701  1.7897  1.0642
  166MOL     H933339   1.194   6.954   1.966  0.3310  1.7871  0.5936
  166MOL    H1033340   1.263   6.977   2.123  0.6780  1.7258 -1.5956
  166MOL    H1133341   1.324   6.626   2.351  1.4351  0.4973  0.6631
  166MOL    C1233342   1.218   6.911   2.341 -0.2919 -0.2806  0.6432
  166MOL    C1333343   1.219   6.899   2.493 -0.7275 -0.4402  0.2519
  166MOL    C1433344   1.085   6.852   2.542 -0.1133 -0.3216  0.3655
  166MOL    O1533345   0.992   6.935   2.540  0.0062  0.5997  0.6454
  166MOL    N1633346   1.070   6.739   2.607 -0.7764  0.5382 -0.3964
  166MOL    H1733347   1.155   6.989   2.298  0.6768 -0.7270 -1.6474
  166MOL    H1833348   1.318   6.943   2.313  0.7340 -1.3632  2.9439
  166MOL    H1933349   1.293   6.821   2.511 -0.6748 -1.0987 -2.5967
  166MOL    H2033350   1.159   6.692   2.621 -0.2897  1.6009  0.0930
  166MOL    H2133351   0.991   6.718   2.666  0.0886  1.2809  1.0763
  166MOL    C2233352   1.265   7.031   2.556 -0.1362  0.0252  0.3360
  166MOL    C2333353   1.321   7.030   2.701  0.8319 -0.6070 -0.3426
  166MOL    C2433354   1.453   6.958   2.702  0.0439  0.3201 -0.0757
  166MOL    O2533355   1.468   6.836   2.698 -0.2912 -0.4620  0.6566
  166MOL    N2633356   1.557   7.033   2.719 -0.0665  0.7030  0.9984
  166MOL    H2733357   1.191   7.109   2.540 -1.0214 -0.7632  0.4749
  166MOL    H2833358   1.344   7.069   2.492 -0.7004 -1.6974 -1.4319
  166MOL    H2933359   1.337   7.138   2.706 -1.5427 -0.3179  2.2091
  166MOL    H3033360   1.644   6.984   2.730  1.0736  2.5223  0.4172
  166MOL    H3133361   1.543   7.132   2.738 -1.5554  0.6567  0.2312
  166MOL    C3233362   1.230   6.985   2.823  0.1395 -0.1600  0.0590
  166MOL    C3333363   1.167   7.096   2.914 -0.2906 -0.6107 -0.1337
  166MOL    C3433364   1.088   7.204   2.842 -0.3059 -0.2263 -0.7539
  166MOL    O3533365   1.084   7.322   2.873  0.6981 -0.6989  0.6057
  166MOL    N3633366   1.026   7.169   2.736 -0.1886 -0.2254 -0.5703
  166MOL    H3733367   1.287   6.918   2.886 -0.3002 -0.8111 -0.2246
  166MOL    H3833368   1.165   6.908   2.782 -1.9369  1.2143  0.6681
  166MOL    H3933369   1.105   7.037   2.982 -0.7649 -0.1676 -0.1838
  166MOL    H4033370   1.037   7.077   2.696 -0.2220  0.2409 -1.6855
  166MOL    H4133371   0.980   7.242   2.683  3.1385  1.3530 -1.4310
  166MOL    C4233372   1.276   7.156   3.002 -0.6709  0.1062  0.0429
  166MOL    C4333373   1.248   7.151   3.154 -0.0745 -0.1703  0.3333
  166MOL    C4433374   1.248   7.009   3.208 -1.5508 -0.2924 -0.5654
  166MOL    O4533375   1.167   6.928   3.180  0.1601  0.0993  0.2593
  166MOL    N4633376   1.357   6.967   3.275  0.0809  0.1321  0.0774
  166MOL    H4733377   1.299   7.256   2.966 -2.2837  1.3492  2.3123
  166MOL    H4833378   1.370   7.105   2.982 -0.9655 -0.7162  0.7114
  166MOL    H4933379   1.329   7.212   3.194 -0.0375  0.1317 -0.1879
  166MOL    H5033380   1.434   7.031   3.271  0.2136 -0.1241 -2.6930
  166MOL    H5133381   1.364   6.866   3.269 -1.1719 -0.2785  4.0066
  166MOL    C5233382   1.125   7.232   3.196 -0.1607 -0.4400  0.0756
  166MOL    C5333383   1.128   7.382   3.182 -0.2859  0.4103 -0.1543
  166MOL    C5433384   1.215   7.456   3.288 -0.0016  0.6302 -0.0226
  166MOL    O5533385   1.232   7.415   3.403  0.1967 -0.1499 -0.2572
  166MOL    N5633386   1.274   7.569   3.252 -0.5152  0.0062 -0.0649
  166MOL    H5733387   1.106   7.209   3.301 -1.0679  0.3125  0.0845
  166MOL    H5833388   1.030   7.194   3.157  0.4850 -3.9086  1.6277
  166MOL    H5933389   1.174   7.398   3.085  1.2979  0.3863  0.5674
  166MOL    H6033390   1.250   7.616   3.166  1.0759 -0.7046 -0.9244
  166MOL    H6133391   1.351   7.594   3.313  0.8261 -0.6389 -1.4407
  166MOL    C6233392   0.988   7.433   3.161  0.7037 -0.1693 -0.7588
  166MOL    C6333393   0.904   7.478   3.285  0.5247 -0.3106 -0.3414
  166MOL    C6433394   0.803   7.367   3.338  0.2334 -0.1955  0.8824
  166MOL    O6533395   0.772   7.362   3.456  0.1558 -0.6071 -0.7385
  166MOL    N6633396   0.752   7.284   3.251 -0.7707  0.3187  0.1233
  166MOL    H6733397   0.936   7.369   3.090  0.0803 -0.9894  0.4098
  166MOL    H6833398   0.999   7.532   3.117 -0.3252  1.3208  2.1498
  166MOL    H6933399   0.973   7.510   3.363 -1.6721  0.6581  1.2451
  166MOL    H7033400   0.715   7.198   3.291  3.7560 -1.7372  0.1833
  166MOL    H7133401   0.769   7.279   3.152  0.6466  0.0513  0.3761
  166MOL    C7233402   0.817   7.612   3.262 -0.1597 -0.5376  0.2448
  166MOL    C7333403   0.842   0.087   3.351 -0.4362 -0.7830 -0.1003
  166MOL    C7433404   0.985   0.115   3.390  0.1959 -0.0215  0.0289
  166MOL    O7533405   1.031   0.059   3.487  0.2294 -0.1166 -0.4818
  166MOL    N7633406   1.047   0.205   3.323 -0.4080 -0.2424  0.2728
  166MOL    H7733407   0.711   7.587   3.261 -0.4274  0.5171  1.5405
  166MOL    H7833408   0.831   7.645   3.159 -0.4889  0.0660  0.3900
  166MOL    H7933409   0.800   0.169   3.291 -0.3671 -0.0853  0.7941
  166MOL    H8033410   1.014   0.244   3.236  1.0467 -0.9884 -0.6259
  166MOL    H8133411   1.141   0.222   3.355 -0.3531 -0.3956  0.1892
  166MOL    C8233412   0.748   0.079   3.478  0.1353 -0.0559 -0.6767
  166MOL    C8333413   0.729   0.201   3.565  0.0572  0.5274  0.1858
  166MOL    C8433414   0.638   0.171   3.685 -0.3188  0.6753 -0.5264
  166MOL    O8533415   0.580   0.061   3.706  0.6308  0.6947 -0.1466
  166MOL    N8633416   0.630   0.270   3.772 -0.0676 -0.1140  0.2425
  166MOL    H8733417   0.784   0.009   3.553  1.0583  2.1845  1.0070
  166MOL    H8833418   0.648   0.049   3.445 -0.0360 -1.6280  1.2298
  166MOL    H8933419   0.818   0.213   3.627 -1.0062 -0.2104  1.8740
  166MOL    H9033420   0.676   0.358   3.754  0.9724 -0.9525 -1.2439
  166MOL    H9133421   0.583   0.250   3.860 -1.3243  0.4062 -0.3028
  166MOL    C9233422   0.678   0.325   3.480  0.4064 -0.8031 -0.2218
  166MOL    C9333423   0.786   0.435   3.486  0.4383 -0.2190 -0.4539
  166MOL    C9433424   0.795   0.509   3.627 -0.1383  0.0685  0.1961
  166MOL    O9533425   0.693   0.554   3.680 -0.1395 -0.6921  0.3266
  166MOL    N9633426   0.915   0.519   3.689  0.5036  0.1336 -0.0150
  166MOL    H9733427   0.588   0.370   3.523 -0.5369 -1.1126 -1.8400
  166MOL    H9833428   0.647   0.287   3.383  1.7843 -0.7050 -0.7082
  166MOL    H9933429   0.881   0.386   3.463 -1.4778 -3.5839 -1.4251
  166MOL   H10033430   1.000   0.494   3.639  1.0348  2.0691 -0.0865
  166MOL   H10133431   0.920   0.569   3.776  1.0362  0.9965 -0.5315
  166MOL   C10233432   0.761   0.544   3.373  0.4769 -0.3713 -0.6057
  166MOL   C10333433   0.852   0.675   3.383  0.2499 -0.3735 -0.4837
  166MOL   C10433434   0.818   0.773   3.268 -0.0825 -0.2069  0.5161
  166MOL   O10533435   0.704   0.781   3.221  0.2991 -0.2837  0.1247
  166MOL   N10633436   0.912   0.858   3.225 -0.0574  0.4935 -0.1023
  166MOL   H10733437   0.658   0.575   3.357  1.6204  2.2630 -3.4888
  166MOL   H10833438   0.790   0.508   3.274 -0.7967  0.9008 -1.4664
  166MOL   H10933439   0.818   0.731   3.470 -0.3261 -1.1708 -0.1882
  166MOL   H11033440   1.009   0.854   3.253  0.0639  2.7785 -0.1224
  166MOL   H11133441   0.879   0.925   3.157 -0.6802  1.0836  0.7772
  166MOL   C11233442   1.003   0.644   3.393 -0.8031  0.3316  0.0882
  166MOL   C11333443   1.091   0.734   3.489 -0.9329 -0.2939  0.6637
  166MOL   C11433444   1.153   0.855   3.416  0.3450 -0.5094 -0.6538
  166MOL   O11533445   1.198   0.838   3.301 -0.0858  0.0797 -0.0263
  166MOL   N11633446   1.149   0.973   3.470  0.0822 -0.8535 -0.8552
  166MOL   H11733447   1.048   0.636   3.294  1.3026  0.1754  1.0398
  166MOL   H11833448   1.016   0.542   3.428  0.0985  0.5428  0.3872
  166MOL   H11933449   1.018   0.774   3.559 -1.0430  0.3978  0.1667
  166MOL   H12033450   1.187   1.054   3.423 -2.5904  0.8203 -0.2810
  166MOL   H12133451   1.113   0.982   3.564 -1.2342  1.8263 -1.5759
  166MOL   C12233452   1.199   0.652   3.562 -0.5392 -1.0557  0.9282
  166MOL   C12333453   1.324   0.595   3.489 -0.5513  0.1523  0.1318
  166MOL   C12433454   1.289   0.490   3.386 -0.5459  0.5873 -0.6891
  166MOL   O12533455   1.250   0.382   3.423  0.0503 -0.2312 -0.5159
  166MOL   N12633456   1.269   0.525   3.260 -0.1971  0.7554  0.0395
  166MOL   H12733457   1.151   0.572   3.619 -0.5971 -0.1325  2.2073
  166MOL   H12833458   1.235   0.712   3.646  1.2930 -0.4480 -0.2594
  166MOL   H12933459   1.371   0.675   3.432 -1.0274 -0.5114 -1.1962
  166MOL   H13033460   1.237   0.462   3.188  1.7868  0.0916 -0.2885
  166MOL   H13133461   1.280   0.622   3.234  2.2107  0.2674 -0.8667
  166MOL   C13233462   1.436   0.543   3.586 -0.2769 -0.6741 -0.5763
  166MOL   C13333463   1.495   0.649   3.681  0.4579 -0.1854  0.8788
  166MOL   C13433464   1.546   0.772   3.611  0.0026 -0.2863  0.1161
  166MOL   O13533465   1.647   0.770   3.541 -0.2769 -0.5716  0.1494
  166MOL   N13633466   1.477   0.883   3.619  0.3371 -0.0916  0.0522
  166MOL   H13733467   1.512   0.494   3.526  1.9041 -0.8659  2.2082
  166MOL   H13833468   1.410   0.464   3.657  0.1377  0.3118  0.7130
  166MOL   H13933469   1.417   0.680   3.750  0.5977 -0.9951  1.3993
  166MOL   H14033470   1.508   0.965   3.568 -1.4360  1.0557  0.7649
  166MOL   H14133471   1.383   0.885   3.654  0.3166 -1.7407  0.1058
  166MOL   C14233472   1.620   0.592   3.759 -0.8171  0.4670  0.1709
  166MOL   C14333473   1.591   0.524   3.895 -0.6084  0.2275  0.0053
  166MOL   C14433474   1.605   0.621   4.004 -0.5557 -0.8029  0.2806
  166MOL   O14533475   1.711   0.664   4.044 -0.1679 -0.4024  0.1793
  166MOL   N14633476   1.498   0.670   4.067 -0.2261  0.1607  0.0310
  166MOL   H14733477   1.709   0.655   3.770 -0.3687  0.3164 -2.4526
  166MOL   H14833478   1.659   0.515   3.693 -0.8030  1.0560 -0.5192
  166MOL   H14933479   1.485   0.500   3.901 -0.7016  0.3584 -1.1190
  166MOL   H15033480   1.511   0.723   4.151 -0.7678  0.5937 -0.1545
  166MOL   H15133481   1.406   0.642   4.036  0.4976 -1.9216 -0.3327
  166MOL   C15233482   1.687   0.398   3.918  0.0611 -0.6357 -0.0805
  166MOL   C15333483   1.645   0.270   3.848  0.8490  0.0649  0.3128
  166MOL   C15433484   1.544   0.184   3.929  0.9716  0.1540  0.9446
  166MOL   O15533485   1.548   0.181   4.048  0.1349  0.1332  0.2327
  166MOL   N15633486   1.455   0.121   3.855  0.2214  0.0634 -0.0284
  166MOL   H15733487   1.691   0.383   4.026 -0.3518 -1.7193 -0.2131
  166MOL   H15833488   1.789   0.427   3.893  0.1802  0.3049  1.4672
  166MOL   H15933489   1.606   0.304   3.752 -0.9285  0.0816  1.0164
  166MOL   H16033490   1.395   0.045   3.882 -1.3340  1.1942 -0.1671
  166MOL   H16133491   1.463   0.136   3.755  1.9729 -1.4589 -0.1245
  166MOL   C16233492   1.765   0.183   3.810 -0.7829 -0.3332 -0.2922
  166MOL   C16333493   1.739   0.052   3.721  0.6091  0.1463 -0.1095
  166MOL   C16433494   1.825   7.592   3.774  0.0354  0.1679 -0.1190
  166MOL   O16533495   1.933   7.602   3.825 -0.2291  0.1400  0.4188
  166MOL   N16633496   1.771   7.474   3.768 -0.0423 -0.1233 -0.3800
  166MOL   H16733497   1.819   0.153   3.900 -0.0740  2.4857  0.2671
  166MOL   H16833498   1.833   0.245   3.751 -1.3118 -3.0325 -3.8846
  166MOL   H16933499   1.639   0.011   3.738  0.6176  0.4324  0.6301
  166MOL   H17033500   1.674   7.466   3.741 -0.0115  3.2031 -1.6804
  166MOL   H17133501   1.821   7.398   3.814  1.4207  2.0427  1.7438
  166MOL   C17233502   1.757   0.079   3.567  0.9617 -0.1768  0.8830
  166MOL   C17333503   1.656   0.166   3.500 -0.0901 -0.6335 -0.0893
  166MOL   C17433504   1.507   0.130   3.536 -0.0635 -0.7062  0.1625
  166MOL   O17533505   1.439   0.208   3.601  0.1502 -0.5215  0.2015
  166MOL   N17633506   1.464   0.005   3.498  0.3804 -0.4883  0.2302
  166MOL   H17733507   1.747   7.641   3.513 -0.1896  0.4675 -0.0660
  166MOL   H17833508   1.856   0.120   3.552  1.5472 -0.1380  4.3801
  166MOL   H17933509   1.685   0.262   3.544  3.0963 -2.2203  1.4000
  166MOL   H18033510   1.525   7.602   3.445  2.6125 -1.3525  3.6474
  166MOL   H18133511   1.366   7.636   3.499  0.2838 -0.5603 -3.1002
  166MOL   C18233512   1.664   0.177   3.345 -0.1101 -0.4775 -0.4881
  166MOL   C18333513   1.576   0.291   3.284  0.4591  0.0019  0.6100
  166MOL   C18433514   1.490   0.217   3.175  0.0471 -0.4835 -0.6062
  166MOL   O18533515   1.556   0.155   3.090  0.2664 -0.2989  0.0162
  166MOL   N18633516   1.357   0.220   3.187  0.6921 -0.2930  0.1687
  166MOL   H18733517   1.655   0.082   3.293 -0.4309 -0.7290  0.0257
  166MOL   H18833518   1.768   0.199   3.318 -0.7955  0.5260 -2.4281
  166MOL   H18933519   1.508   0.346   3.348  2.1188  0.7101  1.7938
  166MOL   H19033520   1.303   0.176   3.114  2.0798 -1.5330 -0.1245
  166MOL   H19133521   1.309   0.289   3.244  0.8475 -1.8771  2.2777
  166MOL   C19233522   1.661   0.396   3.209 -0.3476 -0.0903 -1.0045
  166MOL   C19333523   1.741   0.494   3.304  0.2549  0.3142 -0.2618
  166MOL   C19433524   1.801   0.620   3.246 -0.5288  0.0835 -0.0928
  166MOL   O19533525   1.877   0.613   3.152  0.2439 -0.0341  0.0764
  166MOL   N19633526   1.763   0.737   3.290 -0.1049  0.1588 -0.2187
  166MOL   H19733527   1.591   0.453   3.149 -0.5618  0.9050  0.1675
  166MOL   H19833528   1.733   0.337   3.153  2.5537  0.8445  1.6297
  166MOL   H19933529   1.679   0.522   3.389 -1.2208 -0.5693 -1.0254
  166MOL   H20033530   1.804   0.820   3.249  0.3791 -0.6320 -1.3574
  166MOL   H20133531   1.704   0.738   3.372 -0.8699  1.0925 -0.7648
  166MOL   H20233532   1.825   0.437   3.343 -1.5179 -1.8434  0.5215
  167MOL     C133533   6.067   0.906   3.787 -0.1803  0.2643  0.3293
  167MOL     C233534   6.188   0.968   3.704  0.2214  0.8579 -0.1742
  167MOL     C333535   6.314   0.903   3.745 -1.0739 -0.4523  0.5859
  167MOL     O433536   6.345   0.892   3.863 -0.4234 -0.4493 -0.6317
  167MOL     N533537   6.397   0.860   3.647 -0.1598  0.7088  0.4172
  167MOL     H633538   6.072   0.798   3.775  2.0195  0.3904 -0.0287
  167MOL     H733539   6.079   0.933   3.892 -1.2005  1.9500  0.0427
  167MOL     H833540   6.172   0.934   3.601  1.0072 -0.5040  0.1512
  167MOL     H933541   6.371   0.880   3.551 -0.7436 -1.8765 -0.0121
  167MOL    H1033542   6.482   0.808   3.664  0.5150  1.8851  0.6209
  167MOL    H1133543   5.973   0.947   3.750  1.1628  2.0985 -1.1472
  167MOL    C1233544   6.182   1.118   3.704 -0.0567  0.7179 -0.3751
  167MOL    C1333545   6.043   1.193   3.677  0.0925  0.3751 -0.1586
  167MOL    C1433546   5.987   1.154   3.536  0.4818  0.1501  0.1950
  167MOL    O1533547   6.047   1.178   3.431  0.5572 -0.3452 -0.1589
  167MOL    N1633548   5.862   1.106   3.524  0.4076 -0.0048  0.4434
  167MOL    H1733549   6.259   1.149   3.633 -0.1847 -0.3999 -1.0097
  167MOL    H1833550   6.204   1.159   3.803 -0.8026  0.4300 -0.0839
  167MOL    H1933551   5.963   1.169   3.746 -0.7729  2.6594 -0.3491
  167MOL    H2033552   5.808   1.115   3.609 -0.1519  2.5854 -0.1430
  167MOL    H2133553   5.825   1.087   3.431  0.3667  2.1508  0.0036
  167MOL    C2233554   6.060   1.344   3.687 -1.2288  0.0342  0.1769
  167MOL    C2333555   6.139   1.413   3.800 -0.5364 -0.4825  0.2306
  167MOL    C2433556   6.110   1.368   3.946  0.7773  0.2620  0.6684
  167MOL    O2533557   6.005   1.305   3.973  0.5710 -0.3425  0.7337
  167MOL    N2633558   6.195   1.392   4.043 -0.8253 -0.4227 -0.1230
  167MOL    H2733559   5.957   1.378   3.698 -0.9330  1.5428 -1.4982
  167MOL    H2833560   6.090   1.383   3.590  2.2431 -0.3737  1.0297
  167MOL    H2933561   6.243   1.386   3.779 -0.2647  0.5295  0.2138
  167MOL    H3033562   6.285   1.433   4.022 -0.2211 -1.8533 -0.3713
  167MOL    H3133563   6.178   1.358   4.137  1.1261  0.2033  0.4676
  167MOL    C3233564   6.121   1.572   3.790 -0.3741  0.4876  0.2613
  167MOL    C3333565   6.256   1.653   3.820  0.8869 -0.2881  0.2525
  167MOL    C3433566   6.222   1.793   3.875  0.1853 -0.1457  0.2906
  167MOL    O3533567   6.266   1.896   3.826  0.2009  0.1720  0.2527
  167MOL    N3633568   6.131   1.799   3.970 -0.1237  0.9907 -0.5163
  167MOL    H3733569   6.040   1.608   3.853 -0.6707  1.8926 -0.9023
  167MOL    H3833570   6.098   1.604   3.688  1.3397 -0.8708 -0.5824
  167MOL    H3933571   6.301   1.600   3.904  0.2256  0.0901  0.8536
  167MOL    H4033572   6.095   1.718   4.018  1.5807  1.1506  1.1276
  167MOL    H4133573   6.093   1.890   3.993 -0.1366  0.5601  1.2232
  167MOL    C4233574   6.362   1.657   3.711 -0.3380  0.4509 -0.5760
  167MOL    C4333575   6.325   1.719   3.574  0.2499  0.2366 -0.3590
  167MOL    C4433576   6.310   1.606   3.478  0.8516 -0.8456  0.5164
  167MOL    O4533577   6.403   1.545   3.422 -0.0591  0.0521  0.4895
  167MOL    N4633578   6.186   1.571   3.448 -0.0755  0.3225  0.6556
  167MOL    H4733579   6.391   1.553   3.699 -1.0529  0.5187 -3.1239
  167MOL    H4833580   6.450   1.711   3.746 -0.2835  0.4201 -0.6656
  167MOL    H4933581   6.231   1.770   3.593  1.0520  0.6206  2.7214
  167MOL    H5033582   6.182   1.510   3.368 -0.0252  1.1870 -0.0176
  167MOL    H5133583   6.110   1.631   3.477  0.3230  1.6489 -0.9382
  167MOL    C5233584   6.429   1.824   3.525  0.1263 -0.1169  0.0004
  167MOL    C5333585   6.384   1.896   3.391  0.4657  0.3443  0.2334
  167MOL    C5433586   6.470   1.848   3.272  0.7028  0.3831 -0.1924
  167MOL    O5533587   6.424   1.766   3.197 -0.2406  0.0691  0.1928
  167MOL    N5633588   6.598   1.891   3.258  1.1558  0.3211 -0.0293
  167MOL    H5733589   6.526   1.775   3.521 -0.4561 -1.2352 -0.7006
  167MOL    H5833590   6.442   1.903   3.599  1.2703 -1.3928  1.1838
  167MOL    H5933591   6.289   1.858   3.354 -0.0449  0.6700  1.1731
  167MOL    H6033592   6.652   1.843   3.188  2.5099  1.6044  0.1200
  167MOL    H6133593   6.630   1.962   3.323  0.5350  3.7304 -3.2971
  167MOL    C6233594   6.376   2.050   3.410 -0.2638  0.3253 -0.1974
  167MOL    C6333595   6.296   2.118   3.298  0.1965  0.2544  0.5699
  167MOL    C6433596   6.382   2.227   3.226 -0.0624 -0.1964 -0.0381
  167MOL    O6533597   6.414   2.328   3.286 -0.6806  0.4080 -0.4494
  167MOL    N6633598   6.419   2.215   3.097 -0.1082  0.4552 -0.2807
  167MOL    H6733599   6.469   2.103   3.432 -0.7786  0.0972  2.8521
  167MOL    H6833600   6.321   2.060   3.504 -0.6307  0.8103 -0.4585
  167MOL    H6933601   6.270   2.050   3.217  1.6618 -0.5792  0.7750
  167MOL    H7033602   6.407   2.127   3.049 -1.6378 -0.3297  1.4911
  167MOL    H7133603   6.460   2.299   3.057 -0.8483  1.5632  1.2319
  167MOL    C7233604   6.161   2.190   3.342  0.2389  0.2896  0.1308
  167MOL    C7333605   6.047   2.089   3.365  0.6369 -0.0417 -0.5871
  167MOL    C7433606   5.979   2.050   3.233 -0.6415  0.3378 -0.4651
  167MOL    O7533607   5.939   2.144   3.169  0.3728  0.0778 -0.1770
  167MOL    N7633608   5.977   1.919   3.197  0.0952  0.2330  0.8395
  167MOL    H7733609   6.132   2.275   3.280 -0.3414  1.6288  2.2109
  167MOL    H7833610   6.190   2.232   3.438 -0.6540  3.0525 -0.7788
  167MOL    H7933611   6.099   2.005   3.409 -1.8412 -1.1456  0.3245
  167MOL    H8033612   5.939   1.897   3.106  0.4125  0.2183  0.7093
  167MOL    H8133613   5.984   1.851   3.272 -1.2873  0.1486  0.9101
  167MOL    C8233614   5.953   2.139   3.469 -0.0076 -1.3509 -0.8781
  167MOL    C8333615   5.846   2.043   3.527  0.2799  0.4600  0.6895
  167MOL    C8433616   5.715   2.126   3.555 -0.0453  0.6251 -0.4524
  167MOL    O8533617   5.717   2.213   3.637  0.4433  0.6419  0.4358
  167MOL    N8633618   5.611   2.117   3.468  0.9563  0.0802  0.0980
  167MOL    H8733619   5.908   2.230   3.428  0.5997 -0.8004 -0.3216
  167MOL    H8833620   6.021   2.170   3.548 -2.0562  0.2340  0.3355
  167MOL    H8933621   5.830   1.973   3.445 -3.8481  1.4674  0.5326
  167MOL    H9033622   5.535   2.184   3.460  1.9613  1.3435  0.9790
  167MOL    H9133623   5.610   2.055   3.389 -0.1617  0.4175 -0.1720
  167MOL    C9233624   5.903   1.967   3.645  0.2463  1.1257  0.8959
  167MOL    C9333625   5.857   1.814   3.653 -0.5109  0.1565 -0.5609
  167MOL    C9433626   5.905   1.737   3.524  0.0157 -0.7218 -0.1365
  167MOL    O9533627   6.000   1.772   3.457 -0.1247 -0.4825  1.0081
  167MOL    N9633628   5.836   1.636   3.476 -0.5527  0.1537  0.0969
  167MOL    H9733629   5.876   2.021   3.736 -0.8138  0.7358  0.8204
  167MOL    H9833630   6.011   1.968   3.635  0.3538 -0.0653  1.8049
  167MOL    H9933631   5.914   1.776   3.738 -0.1349  2.6893  0.3601
  167MOL   H10033632   5.875   1.585   3.399  0.6988 -0.8066  1.3446
  167MOL   H10133633   5.760   1.597   3.530 -0.0060 -0.9018  0.1210
  167MOL   C10233634   5.709   1.796   3.695 -0.2662 -0.8450 -0.2397
  167MOL   C10333635   5.678   1.691   3.807  0.5882  0.5800  0.5888
  167MOL   C10433636   5.741   1.549   3.781 -0.4000  0.8817 -0.6754
  167MOL   O10533637   5.717   1.489   3.672  0.2736 -0.7326 -0.5002
  167MOL   N10633638   5.805   1.486   3.878 -0.1450  0.2151 -0.3845
  167MOL   H10733639   5.644   1.780   3.609 -0.2521 -3.8960  0.2488
  167MOL   H10833640   5.674   1.891   3.735  0.4690 -0.6500 -0.0616
  167MOL   H10933641   5.721   1.734   3.898 -0.1610  1.5095  0.5144
  167MOL   H11033642   5.841   1.392   3.872 -2.5640 -0.6869 -1.4826
  167MOL   H11133643   5.811   1.532   3.968 -1.2894 -1.1029  0.3905
  167MOL   C11233644   5.533   1.677   3.837 -0.2749 -0.3908  0.9009
  167MOL   C11333645   5.473   1.783   3.935 -0.6226  0.4840  0.5022
  167MOL   C11433646   5.483   1.737   4.083  0.0240  0.1572 -0.3189
  167MOL   O11533647   5.422   1.639   4.118  0.5090 -0.0375  0.5991
  167MOL   N11633648   5.553   1.806   4.172 -0.8552 -0.5524 -0.1801
  167MOL   H11733649   5.526   1.580   3.887 -1.3537  0.7705  3.0723
  167MOL   H11833650   5.480   1.677   3.741  3.0945 -0.9720 -1.0265
  167MOL   H11933651   5.533   1.872   3.921  2.5082 -2.0518 -3.1557
  167MOL   H12033652   5.570   1.786   4.270  0.5382 -0.2072 -0.3377
  167MOL   H12133653   5.617   1.867   4.124  0.7372 -1.1393  1.1170
  167MOL   C12233654   5.326   1.819   3.902 -0.5194  0.2895  0.2264
  167MOL   C12333655   5.290   1.963   3.849  1.0256  0.0065 -0.4823
  167MOL   C12433656   5.397   2.031   3.758 -0.5526 -0.3883 -0.8450
  167MOL   O12533657   5.456   2.129   3.801 -0.0664  0.5256  0.2883
  167MOL   N12633658   5.402   1.997   3.631 -0.1213 -0.1626  0.4820
  167MOL   H12733659   5.260   1.797   3.985 -2.3463  0.6147 -1.0993
  167MOL   H12833660   5.290   1.743   3.833  0.8927  0.7321 -1.0370
  167MOL   H12933661   5.212   1.944   3.776  1.0641 -2.7669  0.1490
  167MOL   H13033662   5.349   1.930   3.576  2.9182 -1.7037 -0.7388
  167MOL   H13133663   5.482   2.031   3.580  0.4263  1.1291  2.1694
  167MOL   C13233664   5.233   2.051   3.970 -0.2508  0.6534  0.5205
  167MOL   C13333665   5.090   2.094   3.944  0.0245  0.4142  0.0359
  167MOL   C13433666   4.989   1.975   3.932 -0.0216  0.5722 -0.1937
  167MOL   O13533667   4.958   1.923   3.827  0.2891 -0.7298  0.3429
  167MOL   N13633668   4.928   1.940   4.045 -0.2114  0.2883 -0.7507
  167MOL   H13733669   5.285   2.143   3.997 -0.8169  0.2365  3.1166
  167MOL   H13833670   5.233   1.991   4.061  0.3691 -2.1040 -1.2363
  167MOL   H13933671   5.054   2.138   4.037  0.2135  1.4364 -0.3650
  167MOL   H14033672   4.967   1.972   4.133  0.0853 -1.6627 -0.1464
  167MOL   H14133673   4.846   1.881   4.050  0.5028 -0.7122 -0.5458
  167MOL   C14233674   5.070   2.197   3.824 -1.1364  0.3313 -0.6368
  167MOL   C14333675   5.123   2.339   3.859 -0.6000 -0.4669  0.2551
  167MOL   C14433676   5.019   2.414   3.957  0.0666  0.1909  0.6303
  167MOL   O14533677   4.904   2.424   3.920  0.3729  0.7226 -0.0086
  167MOL   N14633678   5.058   2.464   4.076 -0.7449  0.3078 -0.0209
  167MOL   H14733679   4.965   2.200   3.797 -1.1722 -0.8339 -0.6486
  167MOL   H14833680   5.117   2.151   3.737 -0.7452 -0.1007 -0.2043
  167MOL   H14933681   5.215   2.338   3.918 -1.4072 -0.5068  1.5440
  167MOL   H15033682   5.011   2.526   4.141 -0.0504  1.8160 -0.9271
  167MOL   H15133683   5.150   2.438   4.107 -0.9904 -0.0284  0.4173
  167MOL   C15233684   5.131   2.411   3.726 -0.2428  0.2274  0.0594
  167MOL   C15333685   5.267   2.388   3.653  0.1172 -0.7506  0.0795
  167MOL   C15433686   5.381   2.461   3.733  0.1833 -0.3571  0.3890
  167MOL   O15533687   5.369   2.576   3.776 -0.4037 -0.4234  0.1065
  167MOL   N15633688   5.492   2.394   3.750  0.2187 -0.2230 -0.0305
  167MOL   H15733689   5.124   2.518   3.744  0.4749 -0.0712  2.2154
  167MOL   H15833690   5.044   2.384   3.667  1.1676  1.9918 -2.9700
  167MOL   H15933691   5.291   2.283   3.642  1.7500 -0.3653 -0.1004
  167MOL   H16033692   5.490   2.294   3.739  1.6907 -0.2617  0.0569
  167MOL   H16133693   5.573   2.439   3.790  0.2687 -1.8355  1.7526
  167MOL   C16233694   5.264   2.457   3.510 -0.3246 -0.1128 -0.7396
  167MOL   C16333695   5.178   2.382   3.403  0.3076  0.5996  0.4132
  167MOL   C16433696   5.221   2.235   3.385  0.0630  0.0632  0.0782
  167MOL   O16533697   5.327   2.207   3.335  0.1856  0.1834  0.5392
  167MOL   N16633698   5.132   2.145   3.432  0.3890 -0.6398 -0.6700
  167MOL   H16733699   5.370   2.458   3.481  0.6864 -0.3178  2.7543
  167MOL   H16833700   5.239   2.563   3.521 -1.1012 -0.5182  1.4795
  167MOL   H16933701   5.076   2.374   3.439  0.0922  0.3463 -0.2537
  167MOL   H17033702   5.155   2.054   3.396  0.9218 -1.0383  0.6521
  167MOL   H17133703   5.044   2.169   3.475  0.2418 -1.6999 -0.3875
  167MOL   C17233704   5.171   2.466   3.272 -0.4483  0.1568 -1.0557
  167MOL   C17333705   5.036   2.550   3.246 -0.2699 -0.2349  1.2828
  167MOL   C17433706   4.932   2.486   3.155 -0.4836  0.3280 -0.0498
  167MOL   O17533707   4.967   2.407   3.065  0.4328 -0.0456 -0.2144
  167MOL   N17633708   4.807   2.516   3.180 -0.2466  0.2668 -0.4586
  167MOL   H17733709   5.195   2.411   3.181 -0.3716 -1.8188  0.1264
  167MOL   H17833710   5.261   2.527   3.277  1.1629 -2.3166  1.6730
  167MOL   H17933711   4.984   2.559   3.342 -0.2017 -1.5529  1.4413
  167MOL   H18033712   4.790   2.570   3.263 -0.2231 -1.4522  0.6737
  167MOL   H18133713   4.729   2.484   3.125  0.2573  2.2207 -2.3853
  167MOL   C18233714   5.047   2.695   3.198 -0.3572 -0.2799  0.5264
  167MOL   C18333715   5.148   2.731   3.086 -0.0139 -0.0879  0.4948
  167MOL   C18433716   5.286   2.765   3.138 -1.1047  0.0028  0.2703
  167MOL   O18533717   5.294   2.859   3.226  0.2090 -0.2773  0.4940
  167MOL   N18633718   5.397   2.713   3.081  0.2432  0.2917  0.8022
  167MOL   H18733719   5.068   2.759   3.284  1.3462 -0.7055  0.4319
  167MOL   H18833720   4.952   2.744   3.174 -0.4080 -0.8566 -0.4755
  167MOL   H18933721   5.157   2.646   3.018 -0.9758  1.3519 -1.4712
  167MOL   H19033722   5.485   2.751   3.113  0.0957 -0.5964  2.2914
  167MOL   H19133723   5.388   2.655   2.999  0.0033  1.5063 -0.0484
  167MOL   C19233724   5.087   2.840   2.995  0.7796  0.3046 -0.1853
  167MOL   C19333725   5.181   2.900   2.882 -0.9015  0.1675 -0.1039
  167MOL   C19433726   5.098   2.979   2.783 -0.1514 -0.1013 -0.0650
  167MOL   O19533727   5.076   2.941   2.672  0.1297 -0.4969  0.1911
  167MOL   N19633728   5.050   3.091   2.828 -0.0711  0.3278 -0.0626
  167MOL   H19733729   5.037   2.918   3.051  0.7784  1.3140 -1.5620
  167MOL   H19833730   5.001   2.805   2.936  1.0790  1.1186 -1.1204
  167MOL   H19933731   5.255   2.963   2.932  1.5844 -1.9321 -1.0669
  167MOL   H20033732   5.004   3.163   2.774  0.1299  0.3105 -0.2589
  167MOL   H20133733   5.063   3.119   2.924 -0.3150  1.6079 -0.3867
  167MOL   H20233734   5.239   2.819   2.839  1.3262  0.7619  1.6978
  168MOL     C133735   0.689   4.864   1.370  0.6054 -0.3496 -0.1934
  168MOL     C233736   0.637   4.732   1.431  0.1101 -0.2043  0.2289
  168MOL     C333737   0.602   4.637   1.321  0.3590  0.7882  0.8994
  168MOL     O433738   0.486   4.597   1.310  0.6403 -0.1143  0.0053
  168MOL     N533739   0.703   4.588   1.241 -0.0170 -0.3715  0.2899
  168MOL     H633740   0.700   4.938   1.449  0.2937 -0.4958 -0.0110
  168MOL     H733741   0.772   4.853   1.301  2.0186  1.5307  1.1263
  168MOL     H833742   0.727   4.692   1.478  1.4909 -0.4704 -2.4967
  168MOL     H933743   0.793   4.634   1.235  0.1283 -0.5336  1.1701
  168MOL    H1033744   0.702   4.517   1.169  0.4793  0.0238 -0.1081
  168MOL    H1133745   0.611   4.908   1.308 -0.1725  0.2030  1.1625
  168MOL    C1233746   0.527   4.733   1.541  0.0721  0.5605  0.2839
  168MOL    C1333747   0.401   4.814   1.513  0.7764  0.0290 -0.2672
  168MOL    C1433748   0.414   4.967   1.531 -0.0502  0.4476  0.0565
  168MOL    O1533749   0.414   5.039   1.432 -0.3580  0.1711 -0.2853
  168MOL    N1633750   0.414   5.026   1.652  0.9507  0.5777 -0.6985
  168MOL    H1733751   0.567   4.770   1.636  0.7471  1.7115 -0.4312
  168MOL    H1833752   0.503   4.628   1.554  1.8014 -0.1155 -1.6329
  168MOL    H1933753   0.384   4.803   1.406 -2.9608 -0.0055  0.2901
  168MOL    H2033754   0.428   4.974   1.737  1.5522 -0.7741 -1.5981
  168MOL    H2133755   0.411   5.126   1.662 -0.5830  0.2424  2.8415
  168MOL    C2233756   0.291   4.757   1.600  0.4086  0.4204  0.2311
  168MOL    C2333757   0.147   4.806   1.578 -0.0151 -0.3511 -0.3613
  168MOL    C2433758   0.047   4.755   1.686  0.4020  0.1684 -0.0473
  168MOL    O2533759   0.078   4.668   1.770 -0.3103 -0.4061 -0.0373
  168MOL    N2633760   7.581   4.803   1.688 -0.1006  0.3135 -0.5253
  168MOL    H2733761   0.321   4.760   1.705 -0.2206 -1.2561  0.4814
  168MOL    H2833762   0.285   4.651   1.574  0.8956 -0.2111  2.6013
  168MOL    H2933763   0.139   4.913   1.600  4.6014  0.2680 -1.2051
  168MOL    H3033764   7.550   4.870   1.619 -0.6870  2.2664  1.5826
  168MOL    H3133765   7.516   4.772   1.759  1.3333 -0.3416  0.5298
  168MOL    C3233766   0.106   4.771   1.433  0.6663  0.0168 -0.2831
  168MOL    C3333767   0.083   4.892   1.344  0.3879  0.2312 -0.0751
  168MOL    C3433768   7.627   4.985   1.381  0.1371  0.1964 -0.1078
  168MOL    O3533769   7.530   4.946   1.446 -0.7217  0.5897  0.2902
  168MOL    N3633770   7.619   5.110   1.336 -0.3300 -0.0174 -0.2165
  168MOL    H3733771   0.006   4.729   1.440  1.1748 -1.4195 -1.2728
  168MOL    H3833772   0.169   4.694   1.389 -1.2433 -1.9421  0.3305
  168MOL    H3933773   0.178   4.944   1.335  0.2094  1.0220  2.2516
  168MOL    H4033774   0.026   5.146   1.266  0.6999 -1.7225 -0.1875
  168MOL    H4133775   7.538   5.167   1.355  0.5720  0.8634  1.0067
  168MOL    C4233776   0.051   4.854   1.194  0.7587  0.0633 -0.2189
  168MOL    C4333777   7.563   4.808   1.154 -0.1634  0.7936  0.2984
  168MOL    C4433778   7.530   4.673   1.215  0.2822 -0.3340  0.4674
  168MOL    O4533779   7.565   4.570   1.158 -0.5365 -0.0986  0.5248
  168MOL    N4633780   7.466   4.679   1.332 -1.0746 -0.3841 -0.5376
  168MOL    H4733781   0.120   4.773   1.169  1.0126 -0.0793  0.9007
  168MOL    H4833782   0.082   4.934   1.127 -3.2554  0.6715 -1.4647
  168MOL    H4933783   7.488   4.880   1.187 -1.0930 -0.6636  1.4383
  168MOL    H5033784   7.430   4.588   1.358 -1.3332 -0.9409 -2.7151
  168MOL    H5133785   7.445   4.765   1.380 -0.5652  0.1486 -1.2607
  168MOL    C5233786   7.560   4.803   0.999 -0.1032  0.1705  1.2335
  168MOL    C5333787   7.555   4.944   0.935  0.2298  0.1649  0.4439
  168MOL    C5433788   7.428   5.029   0.966 -0.4931 -0.8921  1.1324
  168MOL    O5533789   7.323   4.981   1.015  0.3620  0.3715 -0.4444
  168MOL    N5633790   7.439   5.159   0.940 -0.2880  0.4765 -0.0154
  168MOL    H5733791   7.468   4.746   0.981  1.2710 -3.0784  3.9104
  168MOL    H5833792   7.643   4.736   0.978  0.6979  1.5503 -0.0564
  168MOL    H5933793   7.631   5.006   0.981  0.8380 -0.2166 -0.0418
  168MOL    H6033794   7.360   5.219   0.959 -0.9716 -0.3223 -0.2820
  168MOL    H6133795   7.525   5.197   0.903  0.8365 -1.0581  0.9846
  168MOL    C6233796   7.591   4.941   0.788  0.8236 -0.0790  0.1268
  168MOL    C6333797   7.484   4.878   0.693  1.2791  0.1650 -0.0980
  168MOL    C6433798   7.537   4.746   0.653  0.2298 -0.0256  0.9176
  168MOL    O6533799   7.621   4.744   0.560 -0.2162  0.0756 -0.5807
  168MOL    N6633800   7.492   4.643   0.720  0.2887 -0.2009  0.3635
  168MOL    H6733801   0.025   4.880   0.780  0.4379 -0.5457 -0.7954
  168MOL    H6833802   7.620   5.038   0.748  2.9660  0.1354  2.0907
  168MOL    H6933803   7.403   4.852   0.761  0.8081 -3.0086 -1.7807
  168MOL    H7033804   7.425   4.645   0.795  0.9433  0.7604  0.9305
  168MOL    H7133805   7.527   4.552   0.693  0.7885  0.3670 -0.9824
  168MOL    C7233806   7.439   4.977   0.588  0.2325  0.2605 -0.4180
  168MOL    C7333807   7.332   4.964   0.485 -0.0217 -0.3537 -0.6811
  168MOL    C7433808   7.193   4.972   0.541  0.2443  0.3335 -0.7524
  168MOL    O7533809   7.123   4.872   0.559  0.2729  0.3311  0.2305
  168MOL    N7633810   7.152   5.092   0.573  0.3560  0.2083 -0.1457
  168MOL    H7733811   7.526   5.007   0.530  1.6803 -1.8933  0.6003
  168MOL    H7833812   7.424   5.074   0.634  2.0793 -0.4178  1.6624
  168MOL    H7933813   7.336   5.054   0.424 -0.5534  0.0949 -0.0459
  168MOL    H8033814   7.207   5.170   0.539  0.7138  1.1964  2.6073
  168MOL    H8133815   7.061   5.109   0.613  0.2747 -1.5185  0.4374
  168MOL    C8233816   7.343   4.848   0.384  0.2484 -0.0373 -0.3142
  168MOL    C8333817   7.456   4.863   0.283 -0.0553  0.5207  0.0875
  168MOL    C8433818   7.483   5.002   0.230  0.3697 -0.5228  0.9090
  168MOL    O8533819   7.387   5.057   0.171 -0.1915 -0.0965 -1.0416
  168MOL    N8633820   7.596   5.066   0.266 -0.1692 -0.3941 -0.0137
  168MOL    H8733821   7.246   4.839   0.335 -0.3627 -1.0905  1.0463
  168MOL    H8833822   7.360   4.754   0.436 -0.5428 -1.2916 -2.2744
  168MOL    H8933823   7.544   4.827   0.335 -0.5179 -2.2387 -0.9987
  168MOL    H9033824   0.019   5.024   0.311  0.6781  2.2228  1.0370
  168MOL    H9133825   7.593   5.165   0.245  0.9566 -0.4574 -0.5340
  168MOL    C9233826   7.440   4.751   0.168 -0.5671 -0.4642 -0.9686
  168MOL    C9333827   7.551   4.735   0.058  0.0671 -0.3105 -0.0979
  168MOL    C9433828   7.501   4.651   7.598  0.2152  0.2602 -0.1010
  168MOL    O9533829   7.465   4.702   7.492  0.3478 -0.5073 -0.0406
  168MOL    N9633830   7.485   4.522   7.623 -0.1802 -0.3093  0.1284
  168MOL    H9733831   7.347   4.769   0.114 -0.9412  0.9459  0.1117
  168MOL    H9833832   7.425   4.652   0.210  0.2483 -1.0853 -2.1216
  168MOL    H9933833   7.561   4.838   0.023  1.0059 -0.7264 -1.0390
  168MOL   H10033834   7.436   4.468   7.554  0.0129  1.4349 -1.3858
  168MOL   H10133835   7.530   4.481   0.047  1.5482  1.6045  0.1966
  168MOL   C10233836   0.030   4.688   0.103 -0.8407  0.2342  0.5204
  168MOL   C10333837   0.143   4.782   0.065  0.4662 -0.8518  0.3012
  168MOL   C10433838   0.183   4.762   7.568  0.1910  0.2815  1.0624
  168MOL   O10533839   0.232   4.657   7.524  0.0134 -0.9548 -0.4173
  168MOL   N10633840   0.151   4.861   7.489 -0.2838  0.0923 -0.5890
  168MOL   H10733841   0.052   4.591   0.059  1.2922  1.1512 -0.4982
  168MOL   H10833842   0.025   4.675   0.211 -1.9110  2.3495  0.7738
  168MOL   H10933843   0.105   4.883   0.080  2.4513  0.2994 -1.9943
  168MOL   H11033844   0.185   4.856   7.394  0.7239 -0.9111 -0.1823
  168MOL   H11133845   0.097   4.943   7.515 -3.2720 -1.2177 -2.4145
  168MOL   C11233846   0.265   4.758   0.155  0.5577  0.2294 -0.1034
  168MOL   C11333847   0.258   4.767   0.312 -0.5711  0.1224 -0.2187
  168MOL   C11433848   0.247   4.915   0.345 -0.2029  0.0201  0.2858
  168MOL   O11533849   0.310   4.997   0.282  0.3158  0.1484  0.5031
  168MOL   N11633850   0.163   4.947   0.438 -0.4579 -0.3054 -0.2578
  168MOL   H11733851   0.335   4.830   0.112  0.6477  1.1714  1.5810
  168MOL   H11833852   0.303   4.657   0.143 -1.6229 -0.8553  1.9143
  168MOL   H11933853   0.170   4.710   0.342  0.5571 -2.1925 -1.1586
  168MOL   H12033854   0.168   5.041   0.475 -2.3831  0.4277 -1.7484
  168MOL   H12133855   0.125   4.869   0.489  0.3025 -0.6734 -0.2514
  168MOL   C12233856   0.381   4.696   0.381  0.0231 -0.6612  0.0662
  168MOL   C12333857   0.523   4.745   0.363  0.5405 -0.4083 -0.8977
  168MOL   C12433858   0.564   4.734   0.219 -0.1727 -0.4944  0.3210
  168MOL   O12533859   0.554   4.624   0.162 -0.0538 -0.4548 -0.2502
  168MOL   N12633860   0.601   4.835   0.149 -0.5446 -0.3465 -0.1715
  168MOL   H12733861   0.372   4.588   0.374  0.2660 -0.8395  2.0622
  168MOL   H12833862   0.360   4.711   0.487 -0.3799 -0.1419 -0.0838
  168MOL   H12933863   0.529   4.850   0.390  1.5945 -0.7773  0.3382
  168MOL   H13033864   0.598   4.926   0.192 -0.4262 -0.5545  0.2713
  168MOL   H13133865   0.642   4.827   0.057  0.1313 -1.5777  0.2356
  168MOL   C13233866   0.620   4.668   0.455  0.7346 -0.1539  0.0641
  168MOL   C13333867   0.758   4.738   0.473  0.0704  0.8064 -0.2175
  168MOL   C13433868   0.863   4.628   0.505  0.3245 -1.1132 -0.2669
  168MOL   O13533869   0.859   4.569   0.605  0.6057 -0.5785  0.2018
  168MOL   N13633870   0.963   4.607   0.422 -0.4304  0.3396 -0.3125
  168MOL   H13733871   0.632   4.570   0.407  1.1992  0.3078 -0.7858
  168MOL   H13833872   0.571   4.649   0.550 -1.3516  3.5737 -0.1849
  168MOL   H13933873   0.796   4.789   0.385  0.8619  0.0826 -0.2974
  168MOL   H14033874   0.969   4.669   0.342  2.5398  0.5957  0.0560
  168MOL   H14133875   1.040   4.544   0.443 -1.8056 -1.1667  0.3054
  168MOL   C14233876   0.744   4.847   0.582  0.0175 -0.1917 -0.0149
  168MOL   C14333877   0.818   4.980   0.568  0.0218  0.2377  0.0983
  168MOL   C14433878   0.818   5.037   0.706  0.3222  0.1214 -0.6003
  168MOL   O14533879   0.715   5.085   0.750 -0.1900 -0.2758  0.2866
  168MOL   N14633880   0.931   5.033   0.774  0.1392 -0.6353 -0.2680
  168MOL   H14733881   0.760   4.795   0.676 -1.1276 -1.2055 -0.3654
  168MOL   H14833882   0.638   4.869   0.576 -0.3232 -1.4814  1.0473
  168MOL   H14933883   0.921   4.951   0.545  0.0031  0.7519 -0.6405
  168MOL   H15033884   1.007   4.986   0.727 -0.2671 -1.1333 -0.4247
  168MOL   H15133885   0.944   5.097   0.851  0.7194  0.4847 -1.2735
  168MOL   C15233886   0.755   5.077   0.472 -0.4522 -0.5050 -0.5042
  168MOL   C15333887   0.841   5.198   0.434  0.2096  0.2161  0.2571
  168MOL   C15433888   0.826   5.314   0.529 -0.7217 -0.6628 -0.1392
  168MOL   O15533889   0.720   5.352   0.572  0.6035 -0.0763  0.9008
  168MOL   N15633890   0.931   5.371   0.588  0.1899  0.1686  0.4355
  168MOL   H15733891   0.656   5.105   0.507 -0.1988 -0.9920  0.6340
  168MOL   H15833892   0.748   5.023   0.377  0.7132 -2.1916  0.3415
  168MOL   H15933893   0.945   5.165   0.431  0.5527  1.4271 -2.2776
  168MOL   H16033894   0.913   5.450   0.648  1.5277 -0.2337  1.3875
  168MOL   H16133895   1.025   5.339   0.573  0.4504  0.8418  0.5988
  168MOL   C16233896   0.825   5.239   0.284 -0.3708 -0.2142 -0.1518
  168MOL   C16333897   0.698   5.318   0.251 -0.1143  0.5161 -0.6040
  168MOL   C16433898   0.584   5.215   0.231 -0.0088  0.2937  0.4866
  168MOL   O16533899   0.602   5.130   0.144  0.1630 -0.4404  0.1307
  168MOL   N16633900   0.475   5.205   0.308  0.2222 -0.4325  0.3207
  168MOL   H16733901   0.842   5.155   0.217 -3.6295 -0.3672 -0.8584
  168MOL   H16833902   0.914   5.301   0.273 -1.7221  1.5453 -1.4554
  168MOL   H16933903   0.668   5.390   0.328  0.4137 -0.4155  0.4848
  168MOL   H17033904   0.409   5.129   0.296 -0.4561 -0.1100  1.8195
  168MOL   H17133905   0.458   5.281   0.372  0.3745  0.1872 -0.3695
  168MOL   C17233906   0.715   5.403   0.137 -1.0269 -0.3278  0.8184
  168MOL   C17333907   0.832   5.519   0.143  0.4002 -0.5219 -0.2621
  168MOL   C17433908   0.802   5.610   0.262 -0.0369  0.7938  0.1327
  168MOL   O17533909   0.700   5.678   0.256  0.4103  0.0877 -0.6990
  168MOL   N17633910   0.888   5.626   0.354 -0.3215  0.3592 -0.5872
  168MOL   H17733911   0.622   5.453   0.111 -0.5724 -0.0633 -0.3373
  168MOL   H17833912   0.738   5.330   0.059 -2.1975 -1.5924  1.6493
  168MOL   H17933913   0.925   5.463   0.143  2.1507  2.2504 -2.2485
  168MOL   H18033914   0.881   5.691   0.431  1.9339 -0.2545  0.1741
  168MOL   H18133915   0.966   5.563   0.346 -1.6762 -1.5704  1.0664
  168MOL   C18233916   0.833   5.610   0.018  0.7189  0.8819  0.2078
  168MOL   C18333917   0.901   5.548   7.555 -0.4385  0.6445 -0.1049
  168MOL   C18433918   1.052   5.589   7.549 -0.0511  0.6389  0.1705
  168MOL   O18533919   1.078   5.708   7.545  0.1391 -0.3963 -0.2467
  168MOL   N18633920   1.150   5.502   7.564  0.2734 -0.0163  0.5465
  168MOL   H18733921   0.877   5.707   0.039 -1.1605  1.7420  0.2720
  168MOL   H18833922   0.729   5.619   7.643  1.6113  3.6624 -2.1521
  168MOL   H18933923   0.888   5.440   7.551  0.7637  0.5442 -2.0907
  168MOL   H19033924   1.123   5.406   7.581  0.0361 -0.0598 -0.0804
  168MOL   H19133925   1.242   5.519   7.526  0.4334 -0.2058  0.8457
  168MOL   C19233926   0.850   5.604   7.426  0.2177 -0.5876  1.1577
  168MOL   C19333927   0.748   5.517   7.341 -0.9770 -1.1311 -0.7002
  168MOL   C19433928   0.821   5.416   7.252 -0.1748 -0.2012 -0.1455
  168MOL   O19533929   0.893   5.443   7.156 -0.0718 -0.3784 -0.3175
  168MOL   N19633930   0.793   5.293   7.271  0.4117  0.6042 -0.3197
  168MOL   H19733931   0.929   5.627   7.355 -1.0933 -2.3792 -0.9443
  168MOL   H19833932   0.802   5.699   7.453  0.7729 -0.5097  1.8834
  168MOL   H19933933   0.695   5.456   7.414 -0.6623 -2.3365 -1.4614
  168MOL   H20033934   0.826   5.223   7.206 -2.0995 -1.5842  0.6991
  168MOL   H20133935   0.729   5.273   7.346  0.5161 -1.6087 -0.7805
  168MOL   H20233936   0.678   5.568   7.274 -1.0762 -0.6422 -0.2242
  169MOL     C133937   0.409   2.570   2.482  0.5962 -0.2586 -0.0757
  169MOL     C233938   0.295   2.478   2.547 -0.5596 -0.5232  0.4586
  169MOL     C333939   0.338   2.399   2.668  0.1149 -0.3681  0.4768
  169MOL     O433940   0.459   2.381   2.681 -0.4556  0.4885 -0.5115
  169MOL     N533941   0.254   2.359   2.756 -0.2924 -0.1477 -0.3976
  169MOL     H633942   0.466   2.522   2.402 -1.3973 -0.6455 -1.2906
  169MOL     H733943   0.378   2.665   2.438 -2.1779 -1.7188 -1.4053
  169MOL     H833944   0.223   2.554   2.578 -0.6142 -1.7715  3.5346
  169MOL     H933945   0.160   2.396   2.759 -0.0116  0.5235  1.5995
  169MOL    H1033946   0.286   2.312   2.840  0.8618  0.0806 -0.7018
  169MOL    H1133947   0.480   2.592   2.562  0.0491  2.1539 -0.2073
  169MOL    C1233948   0.222   2.389   2.427 -0.1905  0.0561 -0.0855
  169MOL    C1333949   0.176   2.471   2.295 -0.6005  0.4930 -0.1187
  169MOL    C1433950   0.079   2.585   2.324 -0.0322  0.3051 -0.1335
  169MOL    O1533951   7.622   2.550   2.352  0.2578 -0.7948  0.2747
  169MOL    N1633952   0.115   2.711   2.314 -0.1442  0.0403 -0.0971
  169MOL    H1733953   0.140   2.330   2.468  1.2650 -1.6634  0.4242
  169MOL    H1833954   0.295   2.321   2.382  0.4176  1.9228 -1.9873
  169MOL    H1933955   0.267   2.525   2.269 -0.7432  1.3488  1.0983
  169MOL    H2033956   0.049   2.785   2.332 -0.3361  0.4520 -2.3406
  169MOL    H2133957   0.208   2.737   2.283  1.1781 -1.5176  2.3392
  169MOL    C2233958   0.134   2.382   2.172  0.7653  0.0724  0.2602
  169MOL    C2333959   0.112   2.469   2.043  0.1261 -0.0596 -0.6464
  169MOL    C2433960   0.074   2.373   1.931 -1.3059  1.1526  0.4362
  169MOL    O2533961   0.121   2.260   1.922 -0.3587 -0.1148 -0.0963
  169MOL    N2633962   0.002   2.419   1.829  0.3584  0.5548 -0.3161
  169MOL    H2733963   0.037   2.338   2.195  1.2124 -0.1902  1.6773
  169MOL    H2833964   0.200   2.297   2.154  0.2848 -0.5444  1.3581
  169MOL    H2933965   0.026   2.529   2.074  0.0865 -0.7624  0.6422
  169MOL    H3033966   7.633   2.363   1.749  1.4144 -1.1278  0.5181
  169MOL    H3133967   7.631   2.516   1.824  2.5290  1.1199 -2.1242
  169MOL    C3233968   0.231   2.563   2.002 -0.3642 -0.5098 -0.3854
  169MOL    C3333969   0.364   2.502   1.955  0.3014  0.1364  0.0811
  169MOL    C3433970   0.468   2.511   2.064  0.5278 -0.6123  0.1733
  169MOL    O3533971   0.509   2.620   2.099  0.4993  0.4214 -0.2400
  169MOL    N3633972   0.519   2.403   2.123  0.1052 -0.1246 -0.5216
  169MOL    H3733973   0.241   2.633   2.085 -1.5639 -1.1018  0.2782
  169MOL    H3833974   0.198   2.619   1.915  1.0228 -0.5480 -0.9465
  169MOL    H3933975   0.361   2.393   1.952  0.9601  0.0305  2.6662
  169MOL    H4033976   0.590   2.420   2.192 -0.8022  0.5853  0.2578
  169MOL    H4133977   0.487   2.312   2.092 -0.3842  0.2621 -1.1848
  169MOL    C4233978   0.412   2.583   1.828  0.3033 -1.0660 -0.4490
  169MOL    C4333979   0.318   2.581   1.707  0.2701 -0.4448  0.6252
  169MOL    C4433980   0.389   2.525   1.578  0.7470  0.1228 -0.8594
  169MOL    O4533981   0.461   2.604   1.523 -0.0088  0.5707 -0.4721
  169MOL    N4633982   0.349   2.412   1.529  0.1234  0.4819 -0.1412
  169MOL    H4733983   0.500   2.525   1.797  3.0192  2.0528  1.1478
  169MOL    H4833984   0.441   2.688   1.833 -0.6958 -0.7405 -1.2975
  169MOL    H4933985   0.232   2.519   1.732 -0.7378  0.6166 -0.1480
  169MOL    H5033986   0.397   2.375   1.447  1.8498  0.2872  0.9307
  169MOL    H5133987   0.282   2.347   1.567 -0.1651 -0.0793 -1.5750
  169MOL    C5233988   0.272   2.723   1.671  0.2569 -0.2208  1.1088
  169MOL    C5333989   0.165   2.732   1.559 -0.2309  0.1611  0.1414
  169MOL    C5433990   0.165   2.879   1.510  0.3272  0.5510  0.4412
  169MOL    O5533991   0.161   2.970   1.591  0.1897 -0.1481 -0.2156
  169MOL    N5633992   0.169   2.903   1.378  1.0123  0.1890  0.1321
  169MOL    H5733993   0.357   2.789   1.653  0.0335 -0.0348  0.7383
  169MOL    H5833994   0.231   2.772   1.759  0.5012  1.9764  0.0337
  169MOL    H5933995   0.205   2.681   1.472  0.2349  0.4341  0.1958
  169MOL    H6033996   0.143   2.823   1.322 -1.5792  1.3871 -0.4341
  169MOL    H6133997   0.147   2.996   1.346 -0.7801  0.5573  2.2966
  169MOL    C6233998   0.017   2.672   1.586  0.7322 -0.2484  0.5233
  169MOL    C6333999   7.582   2.641   1.462 -0.0246  0.1554 -0.3504
  169MOL    C6434000   7.647   2.550   1.363  0.1164  0.4662 -0.8594
  169MOL    O6534001   0.085   2.580   1.292 -0.1936 -0.6205 -0.0411
  169MOL    N6634002   7.589   2.435   1.345  0.0637  0.2567  0.1948
  169MOL    H6734003   7.617   2.738   1.652  0.6822  1.0060 -0.7632
  169MOL    H6834004   0.030   2.586   1.652  0.1843 -0.3827  0.4548
  169MOL    H6934005   7.497   2.592   1.508 -0.1975  1.2952  0.5629
  169MOL    H7034006   7.500   2.417   1.389  0.3656  0.8763  1.0722
  169MOL    H7134007   7.625   2.372   1.274  2.1631  0.8786  0.6778
  169MOL    C7234008   7.527   2.772   1.404  0.0847 -0.5291 -0.1158
  169MOL    C7334009   7.376   2.791   1.394 -0.9218  0.5333 -0.4609
  169MOL    C7434010   7.310   2.676   1.319  0.5954 -0.5626 -0.2488
  169MOL    O7534011   7.293   2.678   1.195  0.1741 -0.0226 -0.2430
  169MOL    N7634012   7.236   2.590   1.388 -0.1940  0.0972  0.1197
  169MOL    H7734013   7.584   2.790   1.312 -0.2890  1.2955 -0.0131
  169MOL    H7834014   7.563   2.855   1.464  2.1232 -1.2480 -0.2945
  169MOL    H7934015   7.347   2.776   1.498 -3.3180  3.4756 -0.6383
  169MOL    H8034016   7.260   2.584   1.486  0.6039 -1.3826 -0.1392
  169MOL    H8134017   7.190   2.511   1.344 -0.4329 -0.4314  1.2988
  169MOL    C8234018   7.353   2.930   1.333 -0.3123  0.2134  0.3626
  169MOL    C8334019   7.207   2.969   1.296 -0.1861 -0.7698 -0.6091
  169MOL    C8434020   7.189   3.116   1.241 -0.2588 -0.1009 -0.4056
  169MOL    O8534021   7.215   3.205   1.316 -0.0109  0.1615  0.6506
  169MOL    N8634022   7.170   3.133   1.111  0.5870 -0.3980 -0.1727
  169MOL    H8734023   7.408   2.923   1.239 -0.3623 -0.5733  0.3872
  169MOL    H8834024   7.400   3.013   1.385 -2.8212  0.1889  2.8254
  169MOL    H8934025   7.184   2.900   1.214 -2.2975  2.5418 -2.9244
  169MOL    H9034026   7.160   3.228   1.079 -0.9017  0.2642  2.1383
  169MOL    H9134027   7.153   3.055   1.048  0.6746 -1.2046  0.7943
  169MOL    C9234028   7.122   2.946   1.426 -0.0750 -0.0917 -0.1219
  169MOL    C9334029   6.968   2.971   1.419 -0.7426  0.3939  0.1652
  169MOL    C9434030   6.897   2.865   1.332  0.1960  0.3344  0.0792
  169MOL    O9534031   6.868   2.757   1.382 -0.3766 -0.1352  0.2122
  169MOL    N9634032   6.894   2.899   1.203 -0.2988  0.4887 -0.1021
  169MOL    H9734033   7.173   3.008   1.501 -3.0923  1.6911  0.5574
  169MOL    H9834034   7.128   2.846   1.469 -0.9463  0.3543  1.0813
  169MOL    H9934035   6.942   2.932   1.518 -1.7743 -0.0486 -0.2704
  169MOL   H10034036   6.916   2.996   1.186  2.1302 -0.1304 -0.6601
  169MOL   H10134037   6.871   2.833   1.129  0.0676  2.0524 -1.6432
  169MOL   C10234038   6.915   3.117   1.402 -0.6768 -0.2914  0.3155
  169MOL   C10334039   6.768   3.148   1.437  0.0052 -0.2136  0.0555
  169MOL   C10434040   6.718   3.104   1.571  0.0584 -0.1347 -0.2685
  169MOL   O10534041   6.667   3.187   1.653 -0.0809  0.1271 -0.3275
  169MOL   N10634042   6.718   2.980   1.611  0.7725 -0.7071  0.2112
  169MOL   H10734043   6.927   3.148   1.298 -2.1207 -0.8726 -0.0254
  169MOL   H10834044   6.976   3.187   1.459 -1.6069  1.2025 -0.5010
  169MOL   H10934045   6.746   3.255   1.444 -0.4240 -0.0842 -2.7515
  169MOL   H11034046   6.682   2.960   1.703 -0.6205 -0.8289 -0.3553
  169MOL   H11134047   6.763   2.915   1.547  1.7194  1.5015 -1.4556
  169MOL   C11234048   6.671   3.097   1.333  0.2498  0.1612 -0.2980
  169MOL   C11334049   6.557   3.195   1.301 -0.1562  0.4244 -0.2818
  169MOL   C11434050   6.433   3.194   1.389  0.4763 -0.0118 -0.9984
  169MOL   O11534051   6.385   3.092   1.432 -0.0423 -0.0944  0.3059
  169MOL   N11634052   6.370   3.302   1.416  0.4590  0.2782 -0.6264
  169MOL   H11734053   6.632   3.002   1.368  3.8345 -0.5982  1.9163
  169MOL   H11834054   6.716   3.071   1.237  0.9648  2.1372 -0.5192
  169MOL   H11934055   6.601   3.294   1.302 -1.7525  1.1465  0.2154
  169MOL   H12034056   6.288   3.300   1.475  2.0269  2.1503  1.6928
  169MOL   H12134057   6.392   3.384   1.362  0.7758 -1.3667 -3.0760
  169MOL   C12234058   6.519   3.172   1.151 -0.1261 -0.2419 -0.8017
  169MOL   C12334059   6.599   3.258   1.054  0.0121  0.5712 -0.2931
  169MOL   C12434060   6.541   3.401   1.061  0.3784  0.3702 -0.0726
  169MOL   O12534061   6.424   3.421   1.040  0.0618  0.4411  0.0605
  169MOL   N12634062   6.617   3.507   1.078  0.6352  0.4501 -0.3077
  169MOL   H12734063   6.413   3.188   1.129 -0.0031 -0.1710 -1.3518
  169MOL   H12834064   6.541   3.068   1.126  2.3833  0.4522 -1.5915
  169MOL   H12934065   6.698   3.246   1.097 -0.7838 -1.1082  1.1118
  169MOL   H13034066   6.713   3.503   1.109  0.0828 -0.2839  1.3716
  169MOL   H13134067   6.566   3.594   1.071 -0.6492 -0.1558  1.1650
  169MOL   C13234068   6.611   3.199   0.912 -0.1349 -0.7219  0.0582
  169MOL   C13334069   6.709   3.278   0.818 -0.0355  0.6197 -0.1599
  169MOL   C13434070   6.620   3.337   0.710 -0.5109  0.7279  1.0029
  169MOL   O13534071   6.522   3.273   0.658  0.4561 -0.1124 -0.2224
  169MOL   N13634072   6.646   3.468   0.678 -0.0578 -0.1870  0.7199
  169MOL   H13734073   6.513   3.174   0.871 -0.6920 -1.3677  1.7361
  169MOL   H13834074   6.668   3.108   0.932  2.5484  0.7232 -0.7880
  169MOL   H13934075   6.757   3.357   0.875  0.9497  0.6469 -1.0056
  169MOL   H14034076   6.591   3.512   0.605 -1.4390 -0.4748  1.5739
  169MOL   H14134077   6.693   3.525   0.746 -1.2506 -0.0111  1.3990
  169MOL   C14234078   6.815   3.190   0.757 -0.0637 -0.5785 -0.4579
  169MOL   C14334079   6.934   3.271   0.688  1.0261 -0.6284  0.5707
  169MOL   C14434080   6.931   3.290   0.536 -0.1221  0.1426 -0.4639
  169MOL   O14534081   6.856   3.219   0.467 -0.5311  0.1222  0.1569
  169MOL   N14634082   7.021   3.372   0.485 -0.6270 -0.2342 -0.4637
  169MOL   H14734083   6.775   3.105   0.701  0.1313 -0.5956 -0.5728
  169MOL   H14834084   6.863   3.140   0.841 -0.6581  0.8195  0.7254
  169MOL   H14934085   6.938   3.373   0.727  0.1719  0.1803 -1.4176
  169MOL   H15034086   7.074   3.431   0.547 -1.4269 -0.0759  0.0693
  169MOL   H15134087   7.019   3.398   0.387 -2.9408  0.1054 -0.3413
  169MOL   C15234088   7.070   3.207   0.727 -0.3147 -0.5712 -0.2062
  169MOL   C15334089   7.102   3.057   0.712  0.5467 -0.3622  0.4381
  169MOL   C15434090   7.051   2.958   0.816  0.1949  0.0223  0.0160
  169MOL   O15534091   7.092   2.956   0.932 -0.4287 -0.5767 -0.5063
  169MOL   N15634092   6.954   2.873   0.797  0.0297 -0.0710 -0.1561
  169MOL   H15734093   7.076   3.239   0.831  0.4277  0.6139 -0.6076
  169MOL   H15834094   7.142   3.265   0.671 -0.3590 -0.6515 -0.3480
  169MOL   H15934095   7.050   3.023   0.623  0.0566  0.6272  0.3450
  169MOL   H16034096   6.918   2.857   0.704 -0.0445 -3.2827  0.3625
  169MOL   H16134097   6.921   2.815   0.873 -0.2078  0.2571 -0.0090
  169MOL   C16234098   7.258   3.034   0.693 -0.0655  0.4141  0.1827
  169MOL   C16334099   7.295   2.926   0.579 -0.5324 -0.2687 -0.3778
  169MOL   C16434100   7.316   2.786   0.633  0.1066 -0.4999 -0.3736
  169MOL   O16534101   7.372   2.758   0.738  0.0866  0.5047  0.2411
  169MOL   N16634102   7.281   2.693   0.550 -0.2367  0.2359 -0.2660
  169MOL   H16734103   7.317   3.007   0.780  1.8872  1.3025 -0.8279
  169MOL   H16834104   7.298   3.131   0.663  1.8164 -0.6702 -0.9174
  169MOL   H16934105   7.208   2.935   0.515 -0.6937  0.9003 -0.0037
  169MOL   H17034106   7.231   2.720   0.466 -0.0160  2.1021  0.1754
  169MOL   H17134107   7.284   2.600   0.588  2.6951  0.6836  0.7503
  169MOL   C17234108   7.426   2.966   0.508 -0.3099 -1.3112  0.6784
  169MOL   C17334109   7.402   3.067   0.397 -0.1626  0.0552 -1.5991
  169MOL   C17434110   7.333   3.002   0.278 -0.4335 -0.3510  0.1309
  169MOL   O17534111   7.349   2.887   0.245  0.0012  0.4481  0.2702
  169MOL   N17634112   7.247   3.076   0.211  0.2822 -0.0475 -0.4513
  169MOL   H17734113   7.479   2.877   0.476  1.4299  0.1239 -0.4750
  169MOL   H17834114   7.492   3.018   0.577 -2.5469  0.6230  1.4529
  169MOL   H17934115   7.326   3.131   0.441 -0.0140 -0.8350 -0.0183
  169MOL   H18034116   7.202   3.022   0.138  0.5359  0.6760 -1.1491
  169MOL   H18134117   7.222   3.172   0.231  0.0623 -0.1177 -0.3816
  169MOL   C18234118   7.537   3.148   0.360  0.2200  0.0694 -0.1596
  169MOL   C18334119   7.515   3.270   0.268  0.8009  0.2176 -0.1345
  169MOL   C18434120   7.648   3.312   0.217  0.3646 -0.1961 -0.5437
  169MOL   O18534121   0.053   3.408   0.267  0.6076  0.2165 -0.5009
  169MOL   N18634122   0.041   3.250   0.115  0.3181 -0.6806  0.1591
  169MOL   H18734123   7.600   3.075   0.310 -0.3788 -0.0597 -0.7304
  169MOL   H18834124   7.583   3.185   0.452  0.4659  1.2314 -0.7404
  169MOL   H18934125   7.449   3.230   0.192 -0.3133  0.6429  0.5997
  169MOL   H19034126   7.649   3.175   0.068 -0.1420 -0.2139 -0.1089
  169MOL   H19134127   0.122   3.292   0.071 -0.0759  1.3838  1.3576
  169MOL   C19234128   7.438   3.381   0.334  0.0698  0.6023  0.0975
  169MOL   C19334129   7.397   3.497   0.243 -0.3150  0.4353 -0.1287
  169MOL   C19434130   7.244   3.502   0.199 -0.0851 -0.1919 -0.1128
  169MOL   O19534131   7.199   3.396   0.151 -0.0294  0.4744 -0.1208
  169MOL   N19634132   7.178   3.619   0.187 -0.4859 -0.2030  0.2212
  169MOL   H19734133   7.501   3.417   0.415  1.7971 -1.6760 -0.1769
  169MOL   H19834134   7.346   3.351   0.384 -1.0153  0.6987 -1.7896
  169MOL   H19934135   7.441   3.586   0.287  0.9721 -0.5606  0.6302
  169MOL   H20034136   7.222   3.709   0.205  0.1618 -0.4097 -0.3130
  169MOL   H20134137   7.082   3.625   0.156 -0.3041  1.8651 -0.0296
  169MOL   H20234138   7.456   3.497   0.151 -1.9668  2.4136 -1.2557
  170MOL     C134139   2.482   6.122   7.074  0.3185 -0.2430  0.0522
  170MOL     C234140   2.425   5.981   7.045 -0.3319 -0.2999 -0.3446
  170MOL     C334141   2.358   5.955   6.908 -0.7658  0.0652 -0.3113
  170MOL     O434142   2.256   6.007   6.879  0.2432  0.1107 -0.2955
  170MOL     N534143   2.406   5.866   6.826  0.3653  0.3839 -0.2281
  170MOL     H634144   2.398   6.182   7.110  1.1872  0.6409  0.6404
  170MOL     H734145   2.575   6.124   7.131 -0.0912  0.9645  0.6861
  170MOL     H834146   2.516   5.922   7.034 -0.0319 -0.1012  1.0501
  170MOL     H934147   2.341   5.818   6.765  1.6454  0.0346 -1.3574
  170MOL    H1034148   2.495   5.824   6.849 -0.6157 -1.0765  1.0305
  170MOL    H1134149   2.505   6.162   6.975 -0.3451 -0.8402 -0.3459
  170MOL    C1234150   2.345   5.922   7.161 -0.6073 -0.3276  0.4074
  170MOL    C1334151   2.206   5.978   7.196 -0.0878  0.4911  0.6095
  170MOL    C1434152   2.209   6.070   7.329  0.2784 -0.3455  0.3926
  170MOL    O1534153   2.270   6.045   7.432 -0.4265 -0.4674 -0.5011
  170MOL    N1634154   2.141   6.183   7.311  0.1854 -0.1078 -0.0475
  170MOL    H1734155   2.411   5.927   7.248  1.6900  0.0302 -1.3104
  170MOL    H1834156   2.344   5.813   7.153 -0.6271 -0.2732 -0.3673
  170MOL    H1934157   2.185   6.050   7.117  2.5919 -0.9171 -1.4893
  170MOL    H2034158   2.143   6.243   7.392  3.1453 -2.9505  2.1333
  170MOL    H2134159   2.094   6.187   7.222  0.8910  3.3225 -0.3657
  170MOL    C2234160   2.101   5.864   7.215 -0.2915  0.0787  0.1820
  170MOL    C2334161   2.043   5.794   7.083  0.2517 -0.0024  0.3825
  170MOL    C2434162   1.947   5.888   7.011  0.6146  0.0939  0.1038
  170MOL    O2534163   1.833   5.899   7.050  0.6866  0.2558  0.8206
  170MOL    N2634164   1.998   5.966   6.920  0.1566 -0.5515  0.6984
  170MOL    H2734165   2.011   5.904   7.261 -1.1563 -0.3978 -1.0437
  170MOL    H2834166   2.151   5.793   7.281 -0.6036 -0.5061 -0.2049
  170MOL    H2934167   2.125   5.769   7.016  1.4929  0.8865  1.5513
  170MOL    H3034168   1.944   6.040   6.878  1.6986 -0.2268 -0.7771
  170MOL    H3134169   2.099   5.973   6.912  0.0572  0.8007  0.4329
  170MOL    C3234170   1.984   5.650   7.122 -0.0749 -0.2199 -0.0240
  170MOL    C3334171   1.960   5.562   6.993 -0.3333 -0.0575 -0.5230
  170MOL    C3434172   1.825   5.589   6.926 -0.1797 -0.2257  0.2229
  170MOL    O3534173   1.721   5.590   6.988 -0.2874 -0.0009  0.6973
  170MOL    N3634174   1.833   5.615   6.800 -0.8359 -0.2092  0.0374
  170MOL    H3734175   1.887   5.664   7.168  0.5528  3.0163  0.4723
  170MOL    H3834176   2.055   5.613   7.196 -1.2168 -0.3934  0.9975
  170MOL    H3934177   2.034   5.585   6.918 -0.4569  1.1366 -0.2890
  170MOL    H4034178   1.924   5.625   6.756  0.7063 -1.0498  2.8779
  170MOL    H4134179   1.746   5.642   6.758 -1.4646 -2.4035 -0.1459
  170MOL    C4234180   1.969   5.413   7.034 -0.3265  0.1415 -0.1063
  170MOL    C4334181   1.952   5.315   6.918  0.9288  0.0927  0.8149
  170MOL    C4434182   2.043   5.331   6.800  0.0498 -0.6809 -0.3248
  170MOL    O4534183   2.007   5.331   6.683 -0.1922  0.4138 -0.1508
  170MOL    N4634184   2.176   5.351   6.832  0.2340 -0.5316  0.3408
  170MOL    H4734185   1.897   5.390   7.113  0.8653  1.3773  1.3710
  170MOL    H4834186   2.059   5.394   7.091  0.7292  0.2955 -1.6964
  170MOL    H4934187   2.005   5.233   6.966 -0.8296 -0.9815  0.9585
  170MOL    H5034188   2.245   5.360   6.759 -1.2476  0.6785 -0.9575
  170MOL    H5134189   2.197   5.369   6.929  2.4007  0.1600 -0.2422
  170MOL    C5234190   1.814   5.261   6.888  0.0907  0.1684  0.0664
  170MOL    C5334191   1.748   5.163   6.985 -0.2517 -0.2100  0.0438
  170MOL    C5434192   1.822   5.021   6.987 -0.3044 -0.4383 -0.2936
  170MOL    O5534193   1.941   5.005   7.019  0.6524 -0.0190  0.7420
  170MOL    N5634194   1.747   4.910   6.975  0.2670  0.1215 -0.2247
  170MOL    H5734195   1.813   5.210   6.792 -1.6811 -0.7078  0.5328
  170MOL    H5834196   1.743   5.343   6.877 -0.3104  0.1226  2.1881
  170MOL    H5934197   1.763   5.211   7.082  0.9020  1.8610 -1.1375
  170MOL    H6034198   1.647   4.914   6.959  0.4159 -0.6843 -1.3953
  170MOL    H6134199   1.782   4.815   6.974 -1.7816 -0.6458 -1.6935
  170MOL    C6234200   1.593   5.152   6.945  0.2878 -0.5800 -0.0900
  170MOL    C6334201   1.494   5.166   7.062  0.0786 -0.2749  0.2881
  170MOL    C6434202   1.478   5.039   7.157 -0.4570  0.3285  0.4368
  170MOL    O6534203   1.490   4.928   7.110  0.1050 -0.0052 -0.0893
  170MOL    N6634204   1.473   5.059   7.291  0.3946 -0.2940  0.7976
  170MOL    H6734205   1.560   5.058   6.899 -3.2066  0.0407  0.9541
  170MOL    H6834206   1.556   5.217   6.866 -1.5725 -0.9494  0.4536
  170MOL    H6934207   1.532   5.250   7.120  2.3011 -1.7191  1.0097
  170MOL    H7034208   1.476   5.152   7.333  1.3956 -0.2701  0.6837
  170MOL    H7134209   1.461   4.978   7.350 -0.8034 -0.5260  0.2469
  170MOL    C7234210   1.357   5.223   7.025  0.1460  0.0145 -0.0106
  170MOL    C7334211   1.264   5.137   6.945 -0.8300  0.4963 -0.0343
  170MOL    C7434212   1.272   5.168   6.794 -0.3073 -0.0230 -0.3282
  170MOL    O7534213   1.205   5.263   6.745 -0.5633  0.1757  0.2418
  170MOL    N7634214   1.357   5.103   6.711 -0.2319  0.0206 -1.0759
  170MOL    H7734215   1.382   5.319   6.980  2.0365  0.7545  2.4548
  170MOL    H7834216   1.310   5.257   7.117  0.1143  0.5111 -0.2039
  170MOL    H7934217   1.297   5.035   6.968 -0.4794  0.2388 -1.6332
  170MOL    H8034218   1.373   5.144   6.620  2.7421 -0.8624 -1.0254
  170MOL    H8134219   1.417   5.031   6.750 -0.0399  1.3942  1.2863
  170MOL    C8234220   1.112   5.158   6.985 -0.2169 -0.4689 -0.1501
  170MOL    C8334221   1.014   5.039   6.970 -0.2707 -0.0136 -0.3016
  170MOL    C8434222   0.864   5.078   6.954  0.3762 -0.0656  0.8947
  170MOL    O8534223   0.808   5.127   7.046  0.1335  0.0586  0.1124
  170MOL    N8634224   0.808   5.058   6.833 -0.1544 -0.2134  0.2724
  170MOL    H8734225   1.076   5.252   6.944 -0.3753  0.3944  1.9015
  170MOL    H8834226   1.095   5.183   7.089  1.1167  0.2982 -0.1020
  170MOL    H8934227   1.046   4.994   6.876 -1.8353 -0.1221 -0.8049
  170MOL    H9034228   0.866   5.024   6.757  1.9910  1.7622  0.9651
  170MOL    H9134229   0.708   5.069   6.820 -0.2121 -0.1522  0.7641
  170MOL    C9234230   1.027   4.926   7.084 -0.7104 -0.1833 -0.0325
  170MOL    C9334231   1.141   4.823   7.071  0.3346  0.5163 -0.4096
  170MOL    C9434232   1.125   4.744   6.944  0.1471 -0.4834  0.1684
  170MOL    O9534233   1.022   4.672   6.918  0.5503  0.2637 -0.2594
  170MOL    N9634234   1.220   4.765   6.850  0.8901  0.1875  0.4825
  170MOL    H9734235   0.935   4.869   7.092 -0.9790  0.4382  1.5846
  170MOL    H9834236   1.031   4.971   7.183 -0.3703  1.1385 -0.6363
  170MOL    H9934237   1.238   4.872   7.079  1.8107 -1.8662 -2.8325
  170MOL   H10034238   1.311   4.801   6.872 -0.4624  3.6963  0.5966
  170MOL   H10134239   1.194   4.742   6.755  0.4234 -0.4175  0.7486
  170MOL   C10234240   1.129   4.729   7.190 -0.4795 -0.2246  0.2269
  170MOL   C10334241   1.218   4.602   7.181 -0.1163 -0.6416 -0.5928
  170MOL   C10434242   1.201   4.518   7.315  0.4852 -0.6486  0.6868
  170MOL   O10534243   1.270   4.551   7.408 -0.2052 -0.1657 -0.2399
  170MOL   N10634244   1.135   4.404   7.315  0.7898 -0.0613  0.3333
  170MOL   H10734245   1.026   4.697   7.205  0.2784 -2.2197  1.3574
  170MOL   H10834246   1.161   4.788   7.276  1.3912 -0.3818 -0.3322
  170MOL   H10934247   1.164   4.542   7.107 -0.4350  0.9856 -1.6990
  170MOL   H11034248   1.079   4.388   7.232 -1.1455  2.9719  0.9735
  170MOL   H11134249   1.130   4.351   7.401 -0.9429 -0.1706  0.1863
  170MOL   C11234250   1.369   4.618   7.139  0.1872 -0.3072 -0.7785
  170MOL   C11334251   1.439   4.479   7.118 -0.0813 -0.2876  0.0709
  170MOL   C11434252   1.593   4.488   7.119 -0.0986 -0.4019 -0.0678
  170MOL   O11534253   1.654   4.553   7.043  0.2165  0.1878  0.0190
  170MOL   N11634254   1.657   4.400   7.203  1.0962 -0.9753 -0.3763
  170MOL   H11734255   1.417   4.673   7.220  0.5096 -1.3281 -0.2646
  170MOL   H11834256   1.396   4.685   7.057  2.2664  2.0609  1.7618
  170MOL   H11934257   1.410   4.413   7.200  2.1715 -1.1938  0.1786
  170MOL   H12034258   1.611   4.346   7.275 -0.1077 -0.3551 -0.6686
  170MOL   H12134259   1.757   4.390   7.203  1.0647 -1.3147 -0.7400
  170MOL   C12234260   1.404   4.415   6.973  0.6564 -0.5260 -0.4889
  170MOL   C12334261   1.442   4.267   6.951  0.2865  0.6438 -0.3141
  170MOL   C12434262   1.546   4.237   6.837 -0.4300 -0.1805 -0.1524
  170MOL   O12534263   1.510   4.174   6.739 -0.4151 -0.1423 -1.0101
  170MOL   N12634264   1.668   4.286   6.843  0.2582 -0.1775 -0.0218
  170MOL   H12734265   1.450   4.478   6.897 -0.3787  2.3313  1.1917
  170MOL   H12834266   1.299   4.434   6.950 -0.0608 -2.9076  0.6491
  170MOL   H12934267   1.510   4.250   7.034  0.0558  0.1545 -0.2245
  170MOL   H13034268   1.723   4.298   6.759 -0.6317 -1.5211 -0.8200
  170MOL   H13134269   1.690   4.339   6.926 -2.4409  2.5828 -0.9669
  170MOL   C13234270   1.335   4.157   6.974 -0.4828 -0.0103 -0.3802
  170MOL   C13334271   1.212   4.150   6.874 -0.2631 -0.2577 -0.2093
  170MOL   C13434272   1.090   4.231   6.918 -0.0276 -0.4996  0.4758
  170MOL   O13534273   1.057   4.235   7.039  0.0029 -0.4147  0.4229
  170MOL   N13634274   1.030   4.297   6.819  0.5554  1.0266  0.2719
  170MOL   H13734275   1.294   4.159   7.075 -1.1033 -0.3377 -0.6179
  170MOL   H13834276   1.386   4.061   6.970  1.8538  0.9170  4.0972
  170MOL   H13934277   1.247   4.192   6.779  2.3777 -4.0771 -1.0527
  170MOL   H14034278   1.043   4.285   6.720  0.2378  0.7397  0.2639
  170MOL   H14134279   0.943   4.343   6.841 -0.8447 -1.0514 -0.7506
  170MOL   C14234280   1.177   4.004   6.841  0.0857 -0.0949  0.6541
  170MOL   C14334281   1.089   3.926   6.938 -0.0267  0.3345 -0.0471
  170MOL   C14434282   1.173   3.874   7.051 -0.3702  0.5973 -0.1271
  170MOL   O14534283   1.276   3.811   7.027  0.3141 -0.2921  0.3466
  170MOL   N14634284   1.143   3.910   7.170  0.2555 -0.2629  0.0700
  170MOL   H14734285   1.267   3.945   6.820  0.4810  0.7197  0.0472
  170MOL   H14834286   1.115   4.000   6.751  1.5802 -1.3370 -0.3509
  170MOL   H14934287   1.020   3.989   6.994 -0.3024 -1.4255  1.6662
  170MOL   H15034288   1.080   3.989   7.179  0.5508  0.0379 -0.4928
  170MOL   H15134289   1.190   3.869   7.249  0.3117  1.1228  0.7615
  170MOL   C15234290   1.013   3.815   6.866  0.2860  0.2553 -0.4482
  170MOL   C15334291   0.918   3.729   6.963 -0.0097  0.2614  0.0028
  170MOL   C15434292   0.968   3.582   6.977  0.2009  0.9143  0.1609
  170MOL   O15534293   0.974   3.511   6.879 -0.1078 -0.2763  0.0299
  170MOL   N15634294   1.007   3.533   7.096  0.1254 -0.1580  0.0932
  170MOL   H15734295   1.068   3.740   6.809  1.4084  0.8257 -0.1271
  170MOL   H15834296   0.942   3.864   6.799  0.7884  0.2297 -1.0127
  170MOL   H15934297   0.928   3.782   7.058 -0.7372 -0.3692  0.4405
  170MOL   H16034298   1.050   3.442   7.105 -0.6506 -0.4977  0.3948
  170MOL   H16134299   1.010   3.591   7.179  0.5083  1.0140 -0.7308
  170MOL   C16234300   0.762   3.747   6.949  0.0002 -0.5042 -0.2346
  170MOL   C16334301   0.677   3.745   7.081  0.4435  0.6016  0.2456
  170MOL   C16434302   0.691   3.614   7.165 -0.5289 -0.3901 -0.1941
  170MOL   O16534303   0.647   3.504   7.129  0.2953  0.5431 -0.0903
  170MOL   N16634304   0.764   3.611   7.276  0.4655  0.4321  0.6279
  170MOL   H16734305   0.711   3.681   6.879 -0.0146  2.3173 -3.0045
  170MOL   H16834306   0.738   3.840   6.897 -2.4053  0.2134  2.0412
  170MOL   H16934307   0.718   3.824   7.144  0.6907  1.4696 -0.9760
  170MOL   H17034308   0.809   3.697   7.306  0.7266  0.0461  1.3560
  170MOL   H17134309   0.762   3.525   7.329 -1.2878 -0.1797 -0.3864
  170MOL   C17234310   0.522   3.777   7.058  0.5110  0.5120  0.3425
  170MOL   C17334311   0.459   3.910   7.115  0.2358 -0.1037 -0.5606
  170MOL   C17434312   0.523   3.959   7.247 -0.2979 -0.1378  0.0800
  170MOL   O17534313   0.490   3.909   7.358 -0.4954  0.1577  0.3112
  170MOL   N17634314   0.609   4.052   7.243  0.1855 -0.0852 -0.3271
  170MOL   H17734315   0.472   3.689   7.098 -0.4388  0.4719 -0.9236
  170MOL   H17834316   0.497   3.778   6.952  0.0883 -0.0430  0.4369
  170MOL   H17934317   0.484   3.983   7.038 -0.2714  1.1719  0.4662
  170MOL   H18034318   0.659   4.087   7.323 -0.0810 -1.0515  0.2640
  170MOL   H18134319   0.622   4.079   7.146 -0.5894  3.8699  0.6164
  170MOL   C18234320   0.299   3.902   7.129  0.1034  0.0966  0.2990
  170MOL   C18334321   0.218   4.030   7.144  0.2110 -0.1781  0.3806
  170MOL   C18434322   0.227   4.123   7.027 -0.6305 -0.4969  0.8289
  170MOL   O18534323   0.320   4.203   7.025  0.1849  0.3862 -0.3971
  170MOL   N18634324   0.125   4.125   6.942  0.2859 -0.4743 -0.2698
  170MOL   H18734325   0.271   3.843   7.217 -0.4343  0.5916  0.4642
  170MOL   H18834326   0.268   3.850   7.038  2.2671 -0.0563 -0.3676
  170MOL   H18934327   0.119   3.984   7.133  0.0728 -0.0489  1.0513
  170MOL   H19034328   0.047   4.064   6.965 -0.7890  0.2961 -1.8111
  170MOL   H19134329   0.116   4.187   6.863 -0.1843 -1.4379 -0.9887
  170MOL   C19234330   0.228   4.094   7.280  0.4899 -0.3995 -0.2660
  170MOL   C19334331   0.133   4.220   7.300  0.4595 -0.5836 -0.4280
  170MOL   C19434332   0.212   4.353   7.337 -0.4257 -1.0552  0.0954
  170MOL   O19534333   0.336   4.363   7.348 -0.3075 -0.6563  0.0794
  170MOL   N19634334   0.129   4.455   7.352 -0.0363  0.2262  0.2498
  170MOL   H19734335   0.327   4.137   7.293 -0.5796  2.1010 -0.2316
  170MOL   H19834336   0.207   4.017   7.355 -3.7074  1.2751  0.4380
  170MOL   H19934337   0.077   4.256   7.213  0.9214  0.7653 -0.1821
  170MOL   H20034338   0.172   4.537   7.392  0.4849  0.1940 -0.2305
  170MOL   H20134339   0.033   4.444   7.322 -0.5551 -0.1937  2.0568
  170MOL   H20234340   0.066   4.185   7.379  1.5762  0.5943  1.0774
  171MOL     C134341   5.342   2.796   0.152  0.0590 -0.1045  0.3046
  171MOL     C234342   5.311   2.919   0.060  0.1761 -0.3762 -0.1973
  171MOL     C334343   5.436   2.942   7.629  0.4644 -0.3353 -0.7892
  171MOL     O434344   5.515   3.025   0.001 -0.6629  0.3482 -0.1179
  171MOL     N534345   5.433   2.891   7.514 -0.0857  0.0233  0.2948
  171MOL     H634346   5.263   2.772   0.223 -0.0235 -1.5451 -0.2567
  171MOL     H734347   5.366   2.708   0.092 -1.5505  0.9176 -1.8871
  171MOL     H834348   5.228   2.891   7.651  0.9067  0.0078 -1.3021
  171MOL     H934349   5.506   2.902   7.444  0.9859 -1.2911  1.1812
  171MOL    H1034350   5.360   2.828   7.486  1.1136 -0.7655 -1.1344
  171MOL    H1134351   5.430   2.813   0.214 -0.1275 -0.9638  0.8220
  171MOL    C1234352   5.265   3.044   0.135 -0.0653 -0.2190 -0.2067
  171MOL    C1334353   5.151   3.031   0.236  0.0759 -0.5961 -0.1747
  171MOL    C1434354   5.023   2.962   0.188  0.2780  0.0074  0.3281
  171MOL    O1534355   4.987   2.979   0.072  0.2483  0.0313 -0.4035
  171MOL    N1634356   4.947   2.905   0.270 -0.6930 -0.1893 -0.0702
  171MOL    H1734357   5.233   3.114   0.058 -1.2996  0.6794  1.0973
  171MOL    H1834358   5.346   3.087   0.195  0.7210 -1.2056 -0.5380
  171MOL    H1934359   5.189   2.965   0.314  2.2879 -0.2476 -0.9047
  171MOL    H2034360   4.863   2.868   0.226  0.7187 -1.1365 -2.0195
  171MOL    H2134361   4.984   2.883   0.361 -2.5800 -1.2210  0.4862
  171MOL    C2234362   5.124   3.163   0.308 -0.4072 -0.6053 -0.4323
  171MOL    C2334363   5.049   3.160   0.453  0.7281  0.0157  0.0471
  171MOL    C2434364   5.100   3.052   0.552 -0.4461 -0.2420 -0.2837
  171MOL    O2534365   5.220   3.033   0.557 -0.6376  0.0409  0.1339
  171MOL    N2634366   5.015   2.973   0.612  0.3691 -0.0319 -0.3277
  171MOL    H2734367   5.058   3.218   0.241 -0.4516  1.3623  1.1884
  171MOL    H2834368   5.211   3.225   0.327 -1.7647  1.4840 -0.8664
  171MOL    H2934369   5.088   3.254   0.492  0.2177 -0.0175  0.6447
  171MOL    H3034370   5.047   2.890   0.661 -3.8131 -0.6508  1.5752
  171MOL    H3134371   4.918   2.977   0.586  0.1824  2.0287  0.5969
  171MOL    C3234372   4.893   3.182   0.447  0.0121 -0.0153  0.0808
  171MOL    C3334373   4.838   3.273   0.563  0.5455  0.3903 -0.4057
  171MOL    C3434374   4.682   3.258   0.564  0.1405  0.0893 -0.5999
  171MOL    O3534375   4.608   3.273   0.467 -0.4062  0.0515 -0.2320
  171MOL    N3634376   4.628   3.247   0.687 -0.6245 -0.5256  0.1271
  171MOL    H3734377   4.832   3.094   0.426  0.7864 -0.4272 -0.4703
  171MOL    H3834378   4.866   3.245   0.362 -0.8833  2.6845  2.3100
  171MOL    H3934379   4.873   3.238   0.660 -1.1197  2.1832  0.9007
  171MOL    H4034380   4.528   3.266   0.691 -0.8065 -1.8988  2.7482
  171MOL    H4134381   4.692   3.250   0.764 -2.1739  1.7394  1.3851
  171MOL    C4234382   4.880   3.422   0.553  0.2495 -0.5345  0.2774
  171MOL    C4334383   4.854   3.504   0.675  0.3152 -0.7619 -0.7118
  171MOL    C4434384   4.837   3.649   0.638 -0.4807 -0.5127 -0.2816
  171MOL    O4534385   4.723   3.697   0.643  0.4150 -0.1654 -0.5412
  171MOL    N4634386   4.942   3.712   0.592 -0.3204  0.5348  0.0187
  171MOL    H4734387   4.822   3.461   0.469 -0.0896 -0.9959  0.2949
  171MOL    H4834388   4.977   3.434   0.504 -0.7918 -0.2232 -1.7730
  171MOL    H4934389   4.754   3.480   0.710  0.8531 -1.3472  0.4451
  171MOL    H5034390   4.916   3.804   0.560 -0.8946 -0.4320 -2.4903
  171MOL    H5134391   5.036   3.674   0.585 -0.2505  1.0114 -1.9488
  171MOL    C5234392   4.961   3.480   0.783  0.6626 -0.5663  0.3498
  171MOL    C5334393   4.906   3.491   0.931  0.0236  0.0191  0.3192
  171MOL    C5434394   4.917   3.644   0.970 -0.1771  0.5562  0.3223
  171MOL    O5534395   5.022   3.713   0.977 -0.0835 -0.1020 -0.3759
  171MOL    N5634396   4.796   3.688   1.000  0.2917  0.4112 -0.2251
  171MOL    H5734397   5.052   3.539   0.769  0.9017 -0.9098  0.4424
  171MOL    H5834398   4.997   3.377   0.783  0.7225 -0.5471 -0.3815
  171MOL    H5934399   4.806   3.450   0.938 -1.0540  2.8274  2.1074
  171MOL    H6034400   4.796   3.777   1.049  1.3777 -0.7411  1.9129
  171MOL    H6134401   4.706   3.646   0.980  0.4387 -0.4600  0.8818
  171MOL    C6234402   4.994   3.413   1.037 -0.1010 -0.3348 -1.2806
  171MOL    C6334403   4.932   3.290   1.108  0.2697  0.8086 -0.1139
  171MOL    C6434404   4.903   3.177   1.012 -0.1502  0.1432  1.1740
  171MOL    O6534405   4.795   3.181   0.947 -1.1011  0.3523  0.0670
  171MOL    N6634406   4.995   3.083   1.002  0.1257 -0.5253 -0.7385
  171MOL    H6734407   5.026   3.484   1.113  1.6506 -1.2921 -1.0919
  171MOL    H6834408   5.090   3.386   0.994  1.1392  0.1916  1.0774
  171MOL    H6934409   5.012   3.245   1.167 -0.0635  0.9884  0.4850
  171MOL    H7034410   4.963   2.997   0.960 -0.4515 -0.6316 -0.0859
  171MOL    H7134411   5.078   3.077   1.060  0.3263 -1.0200 -1.0706
  171MOL    C7234412   4.810   3.309   1.199  0.0495  0.6729  0.4951
  171MOL    C7334413   4.845   3.320   1.349  0.0467 -0.4824 -0.8186
  171MOL    C7434414   4.887   3.191   1.419 -0.3402  0.1235 -0.3437
  171MOL    O7534415   4.866   3.084   1.365  0.3834 -0.0526  0.7910
  171MOL    N7634416   4.978   3.202   1.519  0.3464  0.2064  0.5612
  171MOL    H7734417   4.742   3.224   1.187 -0.1121  0.9916 -0.8967
  171MOL    H7834418   4.751   3.397   1.174 -1.1714  0.0750  1.1756
  171MOL    H7934419   4.929   3.387   1.366 -0.6190 -0.0898  1.0654
  171MOL    H8034420   5.000   3.122   1.576 -3.7991 -0.7587  1.0002
  171MOL    H8134421   4.992   3.296   1.552 -0.8228  0.9296 -0.9270
  171MOL    C8234422   4.723   3.381   1.428  1.0825 -0.3649 -0.6597
  171MOL    C8334423   4.742   3.516   1.508 -0.7612 -0.0768  0.1244
  171MOL    C8434424   4.826   3.519   1.639  0.4673 -0.0205 -0.0507
  171MOL    O8534425   4.903   3.424   1.652 -0.1229  0.1689  0.2004
  171MOL    N8634426   4.845   3.624   1.716  0.5868 -0.0482  0.1754
  171MOL    H8734427   4.688   3.310   1.502  0.3106  1.5430  0.8666
  171MOL    H8834428   4.636   3.387   1.362  0.1611  1.7282  0.6868
  171MOL    H8934429   4.799   3.585   1.445  0.7596 -1.4047 -0.0085
  171MOL    H9034430   4.803   3.716   1.713  3.0279  1.0931  0.0948
  171MOL    H9134431   4.908   3.610   1.793  2.2819 -0.5957 -1.2881
  171MOL    C9234432   4.609   3.595   1.527  0.4607  0.0260 -0.2739
  171MOL    C9334433   4.501   3.534   1.620 -0.7828  0.5998 -0.1022
  171MOL    C9434434   4.367   3.543   1.544 -0.0554 -0.0191 -0.2698
  171MOL    O9534435   4.325   3.649   1.502  0.1221  0.2265  0.5638
  171MOL    N9634436   4.301   3.437   1.499 -0.6017  0.6288 -0.3618
  171MOL    H9734437   4.566   3.609   1.429 -2.2065 -1.6764  0.6169
  171MOL    H9834438   4.625   3.699   1.555 -0.1738  0.2763 -0.8416
  171MOL    H9934439   4.534   3.433   1.641 -1.7737  0.2130 -0.3733
  171MOL   H10034440   4.207   3.452   1.465 -0.5994  2.0106  0.1971
  171MOL   H10134441   4.325   3.343   1.526  1.8903  1.7865  1.6369
  171MOL   C10234442   4.495   3.599   1.760 -0.3283  0.0166  0.3179
  171MOL   C10334443   4.387   3.554   1.860  0.2055  1.0279  0.0091
  171MOL   C10434444   4.426   3.614   1.998 -0.3466  0.9192  0.8070
  171MOL   O10534445   4.368   3.715   2.029  0.0398 -0.0351 -0.6182
  171MOL   N10634446   4.525   3.559   2.064  0.1371 -0.0832 -0.2900
  171MOL   H10734447   4.484   3.702   1.726  0.4823 -0.2261 -0.7088
  171MOL   H10834448   4.590   3.594   1.811 -0.4242  0.5013  0.5400
  171MOL   H10934449   4.299   3.608   1.824  0.5262 -1.5102 -4.9458
  171MOL   H11034450   4.567   3.476   2.023 -0.9776 -1.6264  1.5783
  171MOL   H11134451   4.571   3.589   2.149  1.0388 -0.5781 -0.5923
  171MOL   C11234452   4.359   3.396   1.874  0.3046  0.5205 -0.9959
  171MOL   C11334453   4.247   3.355   1.966 -0.2705  0.5887  0.2355
  171MOL   C11434454   4.272   3.225   2.049 -0.4467 -0.2977  0.9584
  171MOL   O11534455   4.261   3.112   2.001  0.0857  0.0802  0.7406
  171MOL   N11634456   4.320   3.240   2.173 -0.4797 -0.7392 -0.0638
  171MOL   H11734457   4.454   3.358   1.913  0.5325 -0.3505 -2.3738
  171MOL   H11834458   4.357   3.348   1.776 -0.1419  0.5346 -0.9941
  171MOL   H11934459   4.233   3.434   2.039 -3.7674 -0.5247  0.8812
  171MOL   H12034460   4.354   3.154   2.214  0.4798 -0.2202  0.2436
  171MOL   H12134461   4.339   3.332   2.211  4.5936 -1.2756 -1.0530
  171MOL   C12234462   4.114   3.340   1.888  0.6065 -0.6255  0.0063
  171MOL   C12334463   3.986   3.320   1.979  0.2147 -0.0310  0.1752
  171MOL   C12434464   3.931   3.179   1.955  0.2172 -0.4813 -0.5977
  171MOL   O12534465   3.861   3.151   1.862  0.3191 -0.5405  0.3846
  171MOL   N12634466   3.959   3.088   2.047 -0.4378 -0.4780 -0.4602
  171MOL   H12734467   4.133   3.250   1.829 -0.9446  0.5207 -2.3112
  171MOL   H12834468   4.104   3.424   1.819  0.6155  0.0677  0.8418
  171MOL   H12934469   4.019   3.329   2.082 -0.8155  2.2884  0.3382
  171MOL   H13034470   3.951   2.990   2.025 -2.2843 -0.6208  0.7354
  171MOL   H13134471   4.009   3.105   2.133  1.6464  3.2861 -2.2724
  171MOL   C13234472   3.877   3.432   1.952  0.2130  0.2875  0.9425
  171MOL   C13334473   3.930   3.580   1.990  0.1717  0.2595  0.1946
  171MOL   C13434474   3.926   3.610   2.141  0.6082 -0.1019  0.0082
  171MOL   O13534475   3.812   3.614   2.195 -0.0493  0.1450 -0.5551
  171MOL   N13634476   4.038   3.641   2.201 -0.5490  0.6062  0.2312
  171MOL   H13734477   3.781   3.409   1.998 -0.6579 -0.1042 -1.0065
  171MOL   H13834478   3.862   3.425   1.844 -0.3097 -0.4640  1.0598
  171MOL   H13934479   4.035   3.591   1.961  0.0521  0.1959 -0.2696
  171MOL   H14034480   4.121   3.617   2.148 -2.0183  0.1334 -1.9329
  171MOL   H14134481   4.037   3.675   2.296 -0.1580 -0.6887  0.7090
  171MOL   C14234482   3.844   3.681   1.913 -0.0697  0.0797 -0.2136
  171MOL   C14334483   3.870   3.704   1.763 -0.4010  0.1297 -0.2234
  171MOL   C14434484   4.020   3.739   1.733 -0.0050  0.5349 -0.5055
  171MOL   O14534485   4.087   3.816   1.806  0.3646  0.0274 -0.0133
  171MOL   N14634486   4.058   3.704   1.614 -0.3691  0.7677 -0.3821
  171MOL   H14734487   3.857   3.779   1.958  0.4350 -0.5412  1.0293
  171MOL   H14834488   3.737   3.658   1.921 -0.2291  0.1708 -1.9146
  171MOL   H14934489   3.846   3.608   1.717  0.9574 -0.3288 -0.0099
  171MOL   H15034490   4.148   3.732   1.578 -0.3761 -1.1459 -1.9724
  171MOL   H15134491   3.995   3.667   1.545 -0.7515  1.1217 -0.2262
  171MOL   C15234492   3.782   3.818   1.703  0.1909  0.4741  0.2879
  171MOL   C15334493   3.628   3.791   1.700 -0.6177  0.1232  0.2880
  171MOL   C15434494   3.568   3.816   1.559  0.1211  0.8392  0.8438
  171MOL   O15534495   3.583   3.915   1.492 -0.0712 -0.3653 -0.2769
  171MOL   N15634496   3.497   3.710   1.521 -0.3761 -0.1525 -0.5377
  171MOL   H15734497   3.816   3.833   1.601  2.9277 -0.5441  1.0017
  171MOL   H15834498   3.802   3.916   1.747 -0.6231  1.3530 -1.2557
  171MOL   H15934499   3.613   3.689   1.734  0.5999  0.6442  2.4404
  171MOL   H16034500   3.439   3.709   1.438 -0.6407 -1.0323 -0.3518
  171MOL   H16134501   3.506   3.620   1.566  0.5131  0.7572  1.1610
  171MOL   C16234502   3.556   3.875   1.807 -0.2092  0.6902  0.1728
  171MOL   C16334503   3.415   3.827   1.859 -0.4551  0.6708  0.2022
  171MOL   C16434504   3.300   3.868   1.771  0.0065 -0.1498  0.3587
  171MOL   O16534505   3.239   3.975   1.798 -0.3645 -0.0999 -0.8731
  171MOL   N16634506   3.245   3.792   1.680  0.3541  0.1897 -0.4188
  171MOL   H16734507   3.544   3.974   1.764 -0.0834  0.2763 -0.8342
  171MOL   H16834508   3.634   3.877   1.883 -0.4155 -1.5959  0.4926
  171MOL   H16934509   3.418   3.718   1.871 -3.0198  0.5443 -0.0803
  171MOL   H17034510   3.181   3.841   1.618  0.1479 -0.6142 -0.8417
  171MOL   H17134511   3.289   3.710   1.643 -0.5605  0.2664 -1.7193
  171MOL   C17234512   3.402   3.864   2.001 -0.2534 -0.5660 -0.2060
  171MOL   C17334513   3.392   4.017   2.040 -0.8641 -0.9304 -0.2076
  171MOL   C17434514   3.522   4.067   2.112 -0.2261 -0.0326 -0.7733
  171MOL   O17534515   3.541   4.033   2.226  0.6532 -0.4443  0.2816
  171MOL   N17634516   3.604   4.151   2.050 -0.1477 -0.7600  0.4634
  171MOL   H17734517   3.481   3.816   2.059  0.2320  0.8194  0.3115
  171MOL   H17834518   3.312   3.811   2.031 -0.9385 -0.7465 -2.4570
  171MOL   H17934519   3.399   4.073   1.947  0.6250  0.8011  0.9143
  171MOL   H18034520   3.590   4.174   1.953  0.2545 -0.5319  0.4589
  171MOL   H18134521   3.681   4.195   2.098  0.4260  0.0673 -1.1793
  171MOL   C18234522   3.258   4.039   2.117  0.2615 -0.4752 -0.1465
  171MOL   C18334523   3.233   4.178   2.180  0.4504  0.0176 -1.0379
  171MOL   C18434524   3.100   4.187   2.263 -0.1903  0.6707 -0.5689
  171MOL   O18534525   2.988   4.179   2.215  0.4321 -0.3315  0.7647
  171MOL   N18634526   3.115   4.201   2.398 -0.8977  0.3667  0.3908
  171MOL   H18734527   3.244   3.962   2.192 -0.1258  0.1655  0.4405
  171MOL   H18834528   3.173   4.031   2.048 -0.1416 -0.1346  0.3122
  171MOL   H18934529   3.319   4.187   2.247 -0.1818  0.8806 -0.3266
  171MOL   H19034530   3.206   4.203   2.442 -0.8264 -1.5203  0.3759
  171MOL   H19134531   3.037   4.206   2.462 -2.0461 -1.9332 -0.7969
  171MOL   C19234532   3.250   4.288   2.077 -0.8817 -0.8189  0.4100
  171MOL   C19334533   3.266   4.423   2.139  0.5703  0.4846 -1.0179
  171MOL   C19434534   3.390   4.429   2.220  0.0329 -0.3435  0.1239
  171MOL   O19534535   3.499   4.418   2.161 -0.2826 -0.2973  0.0618
  171MOL   N19634536   3.374   4.435   2.352  0.7138  0.0364 -0.1510
  171MOL   H19734537   3.159   4.281   2.018  0.7601 -1.3012 -2.1464
  171MOL   H19834538   3.339   4.272   2.016 -0.0246  3.5107  0.3776
  171MOL   H19934539   3.266   4.504   2.067  0.9679  0.9227 -0.5330
  171MOL   H20034540   3.283   4.439   2.395 -0.5352 -3.1196 -2.2783
  171MOL   H20134541   3.452   4.424   2.415  0.5010  1.2944  0.3405
  171MOL   H20234542   3.189   4.451   2.212  1.9811 -1.1188  1.1360
  172MOL     C134543   2.841   5.886   7.108  0.0945 -0.0078  0.3026
  172MOL     C234544   2.796   5.735   7.104 -0.4263 -0.9214  0.3334
  172MOL     C334545   2.742   5.708   6.964  1.1778 -0.0253 -0.8078
  172MOL     O434546   2.674   5.784   6.901  0.3124  0.4810  0.2144
  172MOL     N534547   2.775   5.590   6.916 -0.7920 -0.2243 -0.1195
  172MOL     H634548   2.897   5.913   7.197 -2.8912 -1.1898  2.6287
  172MOL     H734549   2.910   5.898   7.024 -0.9780  0.7118 -0.4974
  172MOL     H834550   2.883   5.674   7.126  0.2821  0.2710  0.8709
  172MOL     H934551   2.757   5.564   6.820  1.4839 -1.1878 -0.3213
  172MOL    H1034552   2.850   5.549   6.969 -1.1260  2.3728  2.4804
  172MOL    H1134553   2.752   5.950   7.104 -1.1987 -1.7941 -0.3523
  172MOL    C1234554   2.687   5.691   7.204 -0.1303  0.3038 -0.2369
  172MOL    C1334555   2.736   5.708   7.345  0.1386  0.1126  0.9279
  172MOL    C1434556   2.838   5.611   7.389  0.2763  1.1357 -0.1626
  172MOL    O1534557   2.826   5.493   7.356  0.2859 -0.3805  0.1455
  172MOL    N1634558   2.953   5.643   7.447 -0.1694 -0.2902 -0.1541
  172MOL    H1734559   2.677   5.583   7.192  0.3620  0.4271 -1.9190
  172MOL    H1834560   2.596   5.750   7.194  0.4062  1.2392  0.3306
  172MOL    H1934561   2.788   5.804   7.349 -1.3448  1.0859 -1.6762
  172MOL    H2034562   3.007   5.569   7.488  0.0753  0.1040  0.2403
  172MOL    H2134563   2.966   5.737   7.483 -1.0208 -0.6468  1.0974
  172MOL    C2234564   2.611   5.712   7.438 -0.2459 -0.0435  0.8236
  172MOL    C2334565   2.619   5.823   7.542 -0.1074  0.2982  0.2004
  172MOL    C2434566   2.731   5.803   7.648  0.3469  0.3953  0.1836
  172MOL    O2534567   2.719   5.725   0.085 -0.7798 -0.5851  0.5163
  172MOL    N2634568   2.841   5.885   7.639 -0.9461  0.4376 -0.7120
  172MOL    H2734569   2.603   5.622   7.498 -0.0119 -0.4601  0.2279
  172MOL    H2834570   2.518   5.714   7.381 -0.2887 -2.8252  0.7444
  172MOL    H2934571   2.644   5.916   7.489 -1.1524  0.6026  0.2311
  172MOL    H3034572   2.849   5.961   7.573  1.0218 -0.8009 -1.9821
  172MOL    H3134573   2.912   5.856   0.048 -2.0141 -2.6162 -0.8363
  172MOL    C3234574   2.483   5.849   7.604  0.3722  0.3408  0.6542
  172MOL    C3334575   2.467   5.953   0.057 -0.0316  0.0670  0.5322
  172MOL    C3434576   2.316   5.969   0.111  0.0954 -0.0703 -0.3682
  172MOL    O3534577   2.285   5.952   0.230  0.0838  0.0285 -0.0548
  172MOL    N3634578   2.223   6.004   0.026  0.3845  0.6027  0.0429
  172MOL    H3734579   2.461   5.757   0.001  0.1630  0.8516  1.4435
  172MOL    H3834580   2.408   5.862   7.526  0.7620  2.9263  0.6588
  172MOL    H3934581   2.529   5.930   0.144 -1.2465 -2.0309  0.8783
  172MOL    H4034582   2.239   6.018   7.584 -2.5995  0.6510 -0.5065
  172MOL    H4134583   2.131   6.027   0.062  0.8134  2.9995 -0.2818
  172MOL    C4234584   2.532   6.091   0.018 -0.8403  0.0876 -0.4754
  172MOL    C4334585   2.516   6.200   0.127 -0.0446 -0.1956 -0.1844
  172MOL    C4434586   2.389   6.287   0.115  0.2906  0.2413  0.3786
  172MOL    O4534587   2.334   6.342   0.210  0.5233 -0.2305 -0.1022
  172MOL    N4634588   2.346   6.301   7.651 -0.2327 -0.7660  0.0708
  172MOL    H4734589   2.502   6.120   7.574  1.9174  0.9834 -1.0827
  172MOL    H4834590   2.639   6.072   0.015 -0.7236  0.4783  1.1290
  172MOL    H4934591   2.498   6.141   0.216  1.7580 -0.3861  0.0813
  172MOL    H5034592   2.391   6.249   7.577 -0.5620  0.0485 -0.7240
  172MOL    H5134593   2.263   6.354   7.629 -0.6657 -1.2284  0.6000
  172MOL    C5234594   2.639   6.294   0.152  0.2027  0.2747 -0.1757
  172MOL    C5334595   2.767   6.225   0.206 -0.5477  0.3547 -0.0943
  172MOL    C5434596   2.755   6.185   0.351  0.2642 -0.1613 -0.2640
  172MOL    O5534597   2.760   6.263   0.445  0.0762 -0.1228  0.3763
  172MOL    N5634598   2.736   6.058   0.376 -0.3370 -0.0798  0.1338
  172MOL    H5734599   2.608   6.373   0.220  0.2499  0.1095  0.0357
  172MOL    H5834600   2.658   6.340   0.054  0.8697  0.0720 -0.1460
  172MOL    H5934601   2.787   6.129   0.159 -0.7239  0.4344 -0.3334
  172MOL    H6034602   2.728   5.984   0.308 -0.6398 -1.1040  1.2554
  172MOL    H6134603   2.696   6.038   0.467 -0.6221  1.6813  0.4272
  172MOL    C6234604   2.895   6.311   0.184  0.9345 -0.1557  0.0355
  172MOL    C6334605   2.935   6.342   0.033 -0.6960  0.2773 -0.8084
  172MOL    C6434606   2.977   6.214   7.623 -0.7449 -0.1966  0.8717
  172MOL    O6534607   3.048   6.127   0.022  0.6137  0.2066 -0.6876
  172MOL    N6634608   2.935   6.202   7.498 -0.3173  1.0518  0.0286
  172MOL    H6734609   2.975   6.272   0.247  0.3209 -0.4468  0.6345
  172MOL    H6834610   2.870   6.404   0.235  1.7251  1.1765 -1.9601
  172MOL    H6934611   2.849   6.383   7.637 -0.7994 -0.6718 -1.3863
  172MOL    H7034612   2.966   6.142   7.423 -0.3946 -0.8132  1.4687
  172MOL    H7134613   2.887   6.284   7.464  0.3641  1.2460 -0.4815
  172MOL    C7234614   3.052   6.438   0.047  0.1259 -0.2043  0.8187
  172MOL    C7334615   3.064   6.522   7.573 -0.4752 -0.2442  0.3422
  172MOL    C7434616   3.181   6.492   7.486  0.1120  0.2412 -0.1576
  172MOL    O7534617   3.174   6.456   7.367  0.1032 -0.2537 -0.3487
  172MOL    N7634618   3.303   6.503   7.537 -0.0845 -0.2123  0.2065
  172MOL    H7734619   3.144   6.382   0.065 -0.4689 -2.2050 -2.0666
  172MOL    H7834620   3.055   6.500   0.137 -1.2767 -0.2004  0.8641
  172MOL    H7934621   2.979   6.506   7.507 -1.5086 -0.4912  1.7073
  172MOL    H8034622   3.327   6.554   7.620  1.2667 -0.9876  0.3092
  172MOL    H8134623   3.376   6.460   7.482  0.5450  0.8039  0.2426
  172MOL    C8234624   3.042   6.674   7.593  0.1393 -0.4158  0.0427
  172MOL    C8334625   2.931   6.729   0.024 -0.6623  0.2327  0.4230
  172MOL    C8434626   2.785   6.660   0.014 -0.7768  0.3842  0.7885
  172MOL    O8534627   2.731   6.614   0.119 -0.0074  0.1099 -0.3024
  172MOL    N8634628   2.729   6.660   7.550  0.3795  0.5466 -0.0441
  172MOL    H8734629   3.032   6.714   7.492  0.8551  1.6182  0.7724
  172MOL    H8834630   3.135   6.721   7.624 -0.9157  1.4143  0.5028
  172MOL    H8934631   2.966   6.709   0.125 -1.3041 -1.7689  0.2839
  172MOL    H9034632   2.781   6.698   7.472 -0.2254  0.1960 -0.6174
  172MOL    H9134633   2.632   6.637   7.537  1.2539 -3.4979  0.0821
  172MOL    C9234634   2.922   6.882   0.018  0.0272 -0.1536  0.1235
  172MOL    C9334635   2.850   6.967   0.127  0.3635 -0.3147 -0.0695
  172MOL    C9434636   2.724   7.037   0.077  0.0374 -0.3172  0.1486
  172MOL    O9534637   2.735   7.137   0.011 -0.5613  0.4011  0.0913
  172MOL    N9634638   2.601   7.003   0.118  0.1843  0.1600  0.2544
  172MOL    H9734639   2.887   6.906   7.575 -0.6836  0.1908  0.4510
  172MOL    H9834640   3.027   6.911   0.008  0.1848 -0.7431  0.0743
  172MOL    H9934641   2.812   6.904   0.207 -0.3172  0.0756 -0.0807
  172MOL   H10034642   2.520   7.060   0.101 -0.6433 -1.1769 -0.3756
  172MOL   H10134643   2.585   6.928   0.184  1.7226 -1.3990 -1.0947
  172MOL   C10234644   2.947   7.058   0.201  0.1286 -1.0846  0.6043
  172MOL   C10334645   2.892   7.129   0.332  0.1680  0.4241  0.5030
  172MOL   C10434646   2.980   7.248   0.390 -0.0655 -0.2061 -0.0887
  172MOL   O10534647   3.100   7.267   0.356  0.8730  0.1990  0.3121
  172MOL   N10634648   2.912   7.326   0.476 -0.0746  0.1693 -0.1159
  172MOL   H10734649   2.977   7.140   0.137  1.1000 -0.1465  2.2240
  172MOL   H10834650   3.043   7.009   0.218  0.8447 -0.6267 -1.9336
  172MOL   H10934651   2.794   7.173   0.316  0.0702  0.1335  0.3148
  172MOL   H11034652   2.946   7.409   0.522 -0.2501  0.1190  0.1019
  172MOL   H11134653   2.816   7.303   0.494  0.7013 -2.4200  0.9544
  172MOL   C11234654   2.874   7.024   0.445  0.8183 -0.0410  0.3656
  172MOL   C11334655   2.728   6.977   0.488  0.0947 -0.1329  0.0292
  172MOL   C11434656   2.625   7.089   0.498 -0.1798 -0.6545  0.4743
  172MOL   O11534657   2.664   7.201   0.539 -0.2620  0.3492  0.1374
  172MOL   N11634658   2.509   7.075   0.450 -0.0400  0.7442 -0.4800
  172MOL   H11734659   2.914   7.054   0.541 -0.0007 -2.8380  1.6318
  172MOL   H11834660   2.922   6.930   0.415  1.9763  0.2451  1.3031
  172MOL   H11934661   2.691   6.925   0.399 -1.4308  0.2802  0.4081
  172MOL   H12034662   2.479   6.983   0.421  0.4614  0.6508 -0.7064
  172MOL   H12134663   2.444   7.152   0.450  0.5759  1.3136  1.9006
  172MOL   C12234664   2.721   6.881   0.610  0.2112 -0.7049  0.1031
  172MOL   C12334665   2.787   6.746   0.600  0.1544  0.7318  0.1941
  172MOL   C12434666   2.736   6.670   0.470 -0.6805 -0.1503  0.0831
  172MOL   O12534667   2.619   6.633   0.446 -0.3096  0.0188  0.6983
  172MOL   N12634668   2.830   6.641   0.381  0.3989  0.7925 -0.3405
  172MOL   H12734669   2.615   6.865   0.631 -0.3123  1.4915 -0.7167
  172MOL   H12834670   2.754   6.929   0.702  2.3306 -1.2070 -0.3845
  172MOL   H12934671   2.895   6.739   0.609  0.0181 -0.5452  0.9923
  172MOL   H13034672   2.922   6.658   0.419  0.1986 -0.1701  0.6289
  172MOL   H13134673   2.806   6.595   0.295  0.6657  0.8986 -0.4714
  172MOL   C13234674   2.751   6.657   0.725  0.2233  0.3443 -0.5474
  172MOL   C13334675   2.805   6.510   0.741 -0.3166 -0.4135 -0.3124
  172MOL   C13434676   2.730   6.423   0.843  0.4952 -0.7621  0.1647
  172MOL   O13534677   2.779   6.400   0.959 -0.0772  0.0527  0.7030
  172MOL   N13634678   2.620   6.370   0.804  0.1872 -0.2263 -0.7973
  172MOL   H13734679   2.642   6.652   0.730  0.2964  0.0972  0.8780
  172MOL   H13834680   2.787   6.709   0.813 -2.4803 -0.0380  0.8561
  172MOL   H13934681   2.786   6.464   0.644 -2.0695 -1.0586  0.3055
  172MOL   H14034682   2.587   6.399   0.713  2.1224  2.6989 -0.5939
  172MOL   H14134683   2.568   6.304   0.861 -1.8117  1.2283 -0.8618
  172MOL   C14234684   2.960   6.496   0.756 -0.0124  0.1085  0.0367
  172MOL   C14334685   3.027   6.388   0.667  0.2296  0.4359  0.1114
  172MOL   C14434686   2.995   6.248   0.715  0.0415  0.4186  0.1625
  172MOL   O14534687   3.048   6.186   0.804  0.3836  1.0267 -0.5590
  172MOL   N14634688   2.905   6.177   0.652  0.6159 -0.7261  1.0695
  172MOL   H14734689   2.997   6.481   0.857  1.9679  0.5573 -0.5938
  172MOL   H14834690   3.009   6.590   0.729  0.6354  0.0712  1.0646
  172MOL   H14934691   2.998   6.397   0.563  0.0999  0.5009  0.1532
  172MOL   H15034692   2.868   6.205   0.562 -1.3183 -2.4848  1.2802
  172MOL   H15134693   2.884   6.084   0.685 -2.3905 -1.4290 -2.5117
  172MOL   C15234694   3.179   6.402   0.654 -0.2822 -0.6812  0.5471
  172MOL   C15334695   3.250   6.530   0.587  0.2572  0.7221  0.1378
  172MOL   C15434696   3.188   6.552   0.449  0.8429  0.6328 -0.3525
  172MOL   O15534697   3.118   6.648   0.429 -0.1075  0.0022 -0.3187
  172MOL   N15634698   3.213   6.464   0.355 -0.1218 -0.1220  0.4010
  172MOL   H15734699   3.221   6.317   0.601 -0.4068 -1.2908  1.4216
  172MOL   H15834700   3.225   6.396   0.752  1.0140  0.0025 -0.0084
  172MOL   H15934701   3.232   6.626   0.635 -0.4937  1.6715 -1.9889
  172MOL   H16034702   3.258   6.377   0.380 -4.5866 -2.2361  1.4294
  172MOL   H16134703   3.167   6.472   0.266 -0.9060 -2.0334  0.6120
  172MOL   C16234704   3.404   6.508   0.590 -0.2961  0.1829  0.7627
  172MOL   C16334705   3.491   6.522   0.723 -0.3998 -0.1019 -0.1125
  172MOL   C16434706   3.503   6.656   0.788  0.2289 -0.3677  0.1156
  172MOL   O16534707   3.557   6.754   0.730 -0.5841 -0.0928 -0.2212
  172MOL   N16634708   3.468   6.664   0.914 -0.3025 -0.4840 -0.3192
  172MOL   H16734709   3.447   6.575   0.515 -0.5493  0.0398  0.4851
  172MOL   H16834710   3.412   6.408   0.547 -0.3675 -0.3868  2.0528
  172MOL   H16934711   3.463   6.447   0.797 -0.2532 -1.6645 -1.6143
  172MOL   H17034712   3.410   6.586   0.944  2.9783 -2.1378  2.0077
  172MOL   H17134713   3.487   6.743   0.974  0.0914  0.0336 -1.1142
  172MOL   C17234714   3.639   6.480   0.692 -0.2443  0.2549  0.0266
  172MOL   C17334715   3.669   6.325   0.683 -0.0189  0.2947 -0.6287
  172MOL   C17434716   3.796   6.287   0.757 -0.1852 -0.7786 -0.8247
  172MOL   O17534717   3.909   6.335   0.737  0.5579  0.1689  0.0111
  172MOL   N17634718   3.790   6.201   0.859 -0.2369 -0.2219  0.6144
  172MOL   H17734719   3.706   6.525   0.765 -0.3331 -0.3272  0.4762
  172MOL   H17834720   3.677   6.532   0.604 -0.8196 -0.7790 -0.8476
  172MOL   H17934721   3.589   6.273   0.735  0.3189  1.6182  1.2415
  172MOL   H18034722   3.872   6.178   0.914  0.7511  2.5284  0.3889
  172MOL   H18134723   3.700   6.171   0.892 -0.7430 -0.1433 -0.6705
  172MOL   C18234724   3.680   6.279   0.533  0.1932 -0.3293 -0.4311
  172MOL   C18334725   3.627   6.139   0.496  0.0905 -0.1954 -0.4168
  172MOL   C18434726   3.706   6.028   0.570  0.6704  0.1945 -0.2170
  172MOL   O18534727   3.820   6.002   0.537  0.2595  0.6656  0.2173
  172MOL   N18634728   3.641   5.961   0.664 -0.3127 -0.2430  0.5687
  172MOL   H18734729   3.782   6.298   0.500  0.6392 -1.0538  0.5040
  172MOL   H18834730   3.626   6.356   0.477 -2.1920 -0.5599  1.4588
  172MOL   H18934731   3.520   6.131   0.514  0.1593 -1.0533 -0.3454
  172MOL   H19034732   3.708   5.897   0.703  0.0008  0.3507  1.0108
  172MOL   H19134733   3.541   5.966   0.679 -0.3339  1.1972 -0.0350
  172MOL   C19234734   3.642   6.118   0.340  0.1759  0.3444  0.5608
  172MOL   C19334735   3.563   6.227   0.255 -0.7394 -0.7796  0.0308
  172MOL   C19434736   3.406   6.231   0.274 -0.4461  0.2144 -0.0533
  172MOL   O19534737   3.361   6.243   0.389  0.5200 -0.0669  0.3736
  172MOL   N19634738   3.331   6.205   0.170  0.0831 -0.3586  0.5545
  172MOL   H19734739   3.590   6.022   0.332 -1.4415  1.3030 -0.8527
  172MOL   H19834740   3.745   6.112   0.305 -0.0350 -1.3916  0.1878
  172MOL   H19934741   3.594   6.329   0.277  2.2206 -1.3832 -1.0803
  172MOL   H20034742   3.231   6.190   0.169  0.1838 -1.0093 -0.1330
  172MOL   H20134743   3.376   6.188   0.081  0.8475 -0.4280  0.9581
  172MOL   H20234744   3.592   6.202   0.153  0.5223  1.8029 -0.2883
  173MOL     C134745   7.157   1.004   6.454  0.4227 -0.1603  0.3731
  173MOL     C234746   7.132   1.126   6.362  0.2521 -0.0549  0.5132
  173MOL     C334747   7.176   1.095   6.220 -0.1816  0.3433  0.2927
  173MOL     O434748   7.094   1.099   6.133 -0.4464 -0.1838  0.9546
  173MOL     N534749   7.297   1.060   6.190  0.3293  0.3239 -0.8778
  173MOL     H634750   7.135   1.022   6.559 -0.4430 -1.0524  0.3558
  173MOL     H734751   7.092   0.919   6.433  1.9478 -0.4702 -3.5455
  173MOL     H834752   7.024   1.134   6.363  0.3218  1.1135 -0.4439
  173MOL     H934753   7.372   1.086   6.253  0.4546 -0.6962 -0.5928
  173MOL    H1034754   7.320   1.040   6.094  1.8051 -2.0932 -0.0699
  173MOL    H1134755   7.262   0.977   6.459  0.5198  0.6201  3.5768
  173MOL    C1234756   7.187   1.257   6.419  0.1660  0.2028  0.2430
  173MOL    C1334757   7.110   1.322   6.534  0.4389  0.1234 -0.2033
  173MOL    C1434758   6.964   1.359   6.497  1.0420  0.2070  0.3816
  173MOL    O1534759   6.941   1.443   6.412 -0.5501  0.2042  0.0154
  173MOL    N1634760   6.868   1.305   6.570 -0.1496  0.0098  0.2154
  173MOL    H1734761   7.184   1.329   6.337  1.5343  0.7706  0.6701
  173MOL    H1834762   7.294   1.253   6.443 -0.2350  0.4678  2.0919
  173MOL    H1934763   7.108   1.249   6.616 -1.0159 -1.8709 -1.9518
  173MOL    H2034764   6.901   1.247   6.646 -0.3970  0.9406  1.0417
  173MOL    H2134765   6.770   1.331   6.566 -0.2376 -0.3814 -0.3066
  173MOL    C2234766   7.190   1.432   6.590  0.7009 -0.0861 -0.0747
  173MOL    C2334767   7.136   1.500   6.717  0.8084  0.1732 -0.1838
  173MOL    C2434768   7.217   1.627   6.746  0.3812 -0.0494 -0.0917
  173MOL    O2534769   7.340   1.627   6.765  0.0703  0.0732  0.1524
  173MOL    N2634770   7.147   1.739   6.751  0.1317 -0.0128  0.5760
  173MOL    H2734771   7.197   1.510   6.514  0.8453 -1.7947 -1.8551
  173MOL    H2834772   7.288   1.390   6.611  0.8571  0.0438 -0.5523
  173MOL    H2934773   7.035   1.533   6.690  1.0044  0.3468 -0.6990
  173MOL    H3034774   7.172   1.823   6.801  1.5666 -0.3498  0.4564
  173MOL    H3134775   7.055   1.741   6.711  1.7852  1.0657 -3.4137
  173MOL    C3234776   7.122   1.405   6.845 -0.4564  0.2048  0.2238
  173MOL    C3334777   7.024   1.450   6.954  0.4843 -0.1556 -1.0797
  173MOL    C3434778   6.886   1.515   6.909 -0.7589  0.3456 -0.1382
  173MOL    O3534779   6.882   1.630   6.872  0.6043  0.7196  0.5136
  173MOL    N3634780   6.787   1.430   6.891 -0.3158 -0.6287  0.2369
  173MOL    H3734781   7.219   1.379   6.888 -0.3228  0.2790 -0.0276
  173MOL    H3834782   7.074   1.311   6.819 -0.1057  0.2897 -0.7793
  173MOL    H3934783   6.997   1.360   7.010 -1.6276  1.4104  0.5068
  173MOL    H4034784   6.699   1.452   6.848  0.0126  1.3635  0.5347
  173MOL    H4134785   6.820   1.335   6.903  1.1848  0.1650  2.6959
  173MOL    C4234786   7.100   1.553   7.046 -0.2891  0.3941  0.3430
  173MOL    C4334787   7.066   1.562   7.200 -0.0084  0.0767 -0.3327
  173MOL    C4434788   7.124   1.435   7.276 -0.2444 -0.2560  0.2166
  173MOL    O4534789   7.211   1.445   7.356  0.0107  0.0004 -0.1560
  173MOL    N4634790   7.082   1.316   7.240 -0.6471  0.5302 -0.6670
  173MOL    H4734791   7.087   1.654   7.006  1.6567  0.3598 -0.4500
  173MOL    H4834792   7.205   1.529   7.027 -0.3655  0.7591 -0.5842
  173MOL    H4934793   7.126   1.640   7.246  0.4027 -0.6618  0.3893
  173MOL    H5034794   7.137   1.244   7.285 -0.0826  0.7644 -0.9777
  173MOL    H5134795   6.994   1.302   7.192 -0.8427  1.4001 -0.5713
  173MOL    C5234796   6.916   1.599   7.233  1.0652 -0.0470 -0.3630
  173MOL    C5334797   6.863   1.624   7.382 -0.4571 -0.3505  0.3955
  173MOL    C5434798   6.947   1.724   7.452  0.1568 -0.3338 -0.1723
  173MOL    O5534799   7.006   1.688   7.549  0.7692  0.0404 -0.7327
  173MOL    N5634800   6.962   1.847   7.404 -0.2613  0.4213  0.3567
  173MOL    H5734801   6.845   1.529   7.189  1.0989  1.2066 -2.5318
  173MOL    H5834802   6.892   1.688   7.174 -1.4810 -0.1065  0.5376
  173MOL    H5934803   6.765   1.671   7.378 -0.9903 -1.5379 -0.8184
  173MOL    H6034804   6.898   1.884   7.335 -1.2402  0.1328  1.0903
  173MOL    H6134805   7.028   1.902   7.456 -0.7991  0.1725  1.3136
  173MOL    C6234806   6.842   1.492   7.456 -0.7938 -0.0245  0.9574
  173MOL    C6334807   6.764   1.500   7.592  0.4007 -0.0013  1.0529
  173MOL    C6434808   6.778   1.371   0.017 -0.0174 -0.2937 -0.0755
  173MOL    O6534809   6.692   1.292   0.012  0.3032  0.6898  0.3512
  173MOL    N6634810   6.880   1.362   0.098  0.6971 -0.5402 -0.0730
  173MOL    H6734811   6.935   1.443   7.484  0.2769  0.0919 -2.2655
  173MOL    H6834812   6.779   1.429   7.394 -0.9582 -0.3623  1.4646
  173MOL    H6934813   6.818   1.576   7.649  0.8380  1.9108 -1.7821
  173MOL    H7034814   6.955   1.430   0.106 -0.2370  0.5922 -0.7798
  173MOL    H7134815   6.892   1.274   0.146 -2.8060 -1.2907 -0.5077
  173MOL    C7234816   6.621   1.561   7.587 -0.2764  0.3564 -0.8275
  173MOL    C7334817   6.563   1.598   0.072 -0.5354 -0.3930 -0.5344
  173MOL    C7434818   6.416   1.563   0.074  0.0138 -0.0430  0.6155
  173MOL    O7534819   6.335   1.641   0.029 -0.3272 -0.3651 -0.4170
  173MOL    N7634820   6.396   1.440   0.117  0.0992  0.0607 -0.5904
  173MOL    H7734821   6.557   1.488   7.537 -1.0817 -0.0408  0.7517
  173MOL    H7834822   6.621   1.657   7.536 -0.4443  1.4964  1.2660
  173MOL    H7934823   6.624   1.552   0.150  0.6802 -2.0512 -2.4076
  173MOL    H8034824   6.479   1.383   0.125  0.2534  0.2344 -0.9418
  173MOL    H8134825   6.305   1.396   0.118  0.2248 -0.1956 -0.1782
  173MOL    C8234826   6.579   1.753   0.097  0.2622 -0.2842  0.9977
  173MOL    C8334827   6.719   1.823   0.101 -0.1308  0.4758  0.7932
  173MOL    C8434828   6.811   1.762   0.200  0.3684 -0.2004  0.2436
  173MOL    O8534829   6.771   1.753   0.324 -0.3250  0.2273  0.0710
  173MOL    N8634830   6.931   1.720   0.163  0.2709  0.0099  0.0358
  173MOL    H8734831   6.543   1.785   0.195  1.9032  2.7585  0.6923
  173MOL    H8834832   6.525   1.809   0.021  0.8210  2.3151  2.4505
  173MOL    H8934833   6.757   1.811   7.657  0.4696 -0.1913  1.0932
  173MOL    H9034834   6.968   1.721   0.069  0.6451  3.9466  0.1571
  173MOL    H9134835   6.990   1.697   0.241 -0.8762 -0.8801  0.6564
  173MOL    C9234836   6.711   1.978   0.121 -0.1155 -0.0703 -0.4129
  173MOL    C9334837   6.822   2.059   0.050 -0.0833 -0.1266  0.6117
  173MOL    C9434838   6.907   2.123   0.160 -0.2195 -0.1863 -1.1982
  173MOL    O9534839   6.861   2.196   0.247  0.3284  0.2305  0.0500
  173MOL    N9634840   7.028   2.075   0.170 -0.2500  0.3727  0.0368
  173MOL    H9734841   6.694   2.012   0.223  0.2595 -1.5538  0.1560
  173MOL    H9834842   6.613   2.005   0.084  0.2587  0.4407 -1.0548
  173MOL    H9934843   6.870   1.984   7.644 -0.3848  0.8698 -0.8222
  173MOL   H10034844   7.094   2.100   0.243  0.1850 -0.8166  0.0668
  173MOL   H10134845   7.067   2.033   0.086  0.7431 -0.4284  0.8760
  173MOL   C10234846   6.760   2.168   7.617  0.5002 -0.2325 -0.2361
  173MOL   C10334847   6.861   2.241   7.522  0.2515  0.0847 -1.0352
  173MOL   C10434848   6.884   2.387   7.571 -0.5421  0.3676 -0.3488
  173MOL   O10534849   6.800   2.471   7.554  0.6279 -0.0845 -0.0632
  173MOL   N10634850   7.001   2.416   7.625 -0.2896  0.1013 -0.2543
  173MOL   H10734851   6.699   2.247   0.006 -0.5065 -0.4735 -1.1129
  173MOL   H10834852   6.688   2.120   7.550 -1.5104  1.2921  0.7657
  173MOL   H10934853   6.956   2.188   7.524  0.1963  0.0211  0.3748
  173MOL   H11034854   7.080   2.353   7.621 -1.3924 -1.4239  1.1606
  173MOL   H11134855   7.007   2.511   0.002 -2.9914  0.3826 -0.4084
  173MOL   C11234856   6.817   2.246   7.376  0.2263 -0.0616  0.4209
  173MOL   C11334857   6.928   2.220   7.261  0.0713 -0.1505 -0.7740
  173MOL   C11434858   7.060   2.296   7.287  0.4187 -0.2074  0.0291
  173MOL   O11534859   7.068   2.418   7.278 -0.0612  0.0920 -0.2363
  173MOL   N11634860   7.164   2.229   7.338 -0.2390  0.2332  0.0664
  173MOL   H11734861   6.767   2.341   7.355  1.3102 -0.0398 -2.2492
  173MOL   H11834862   6.739   2.172   7.358  0.8828 -0.5671 -0.3478
  173MOL   H11934863   6.954   2.116   7.279 -3.1732 -1.3036 -2.2608
  173MOL   H12034864   7.238   2.279   7.385 -0.8092  0.4531  0.7300
  173MOL   H12134865   7.152   2.129   7.348 -2.4828  0.5329  0.5850
  173MOL   C12234866   6.875   2.234   7.115 -0.2395  0.2251 -0.3060
  173MOL   C12334867   6.855   2.099   7.031 -0.2229  0.5849  0.2194
  173MOL   C12434868   6.752   2.008   7.091  0.4973 -0.2221 -0.5749
  173MOL   O12534869   6.772   1.934   7.186 -0.1338 -0.8678  0.0065
  173MOL   N12634870   6.639   1.995   7.031 -0.1633 -0.0247  0.0707
  173MOL   H12734871   6.938   2.310   7.069 -1.1192 -0.1668 -2.2271
  173MOL   H12834872   6.781   2.290   7.120 -0.4147 -0.2447  2.6761
  173MOL   H12934873   6.819   2.113   6.929  0.5520 -1.7588 -0.4121
  173MOL   H13034874   6.623   2.045   6.945  0.0163 -0.3180 -0.1344
  173MOL   H13134875   6.571   1.926   7.061  0.9260  0.2055  3.2833
  173MOL   C13234876   6.990   2.011   7.011  0.0214 -0.3998 -0.1600
  173MOL   C13334877   7.111   2.094   6.965  0.5188  0.3727 -0.1883
  173MOL   C13434878   7.100   2.143   6.819  0.4413  0.0869  0.1665
  173MOL   O13534879   7.083   2.063   6.727  0.3714  0.3306  0.0434
  173MOL   N13634880   7.126   2.274   6.803  0.9112  0.0499  0.1017
  173MOL   H13734881   6.963   1.923   6.953  1.2837 -0.6898 -0.3117
  173MOL   H13834882   7.006   1.964   7.108 -1.1387  0.6657  0.5688
  173MOL   H13934883   7.107   2.187   7.022 -0.5613  0.3152 -0.1448
  173MOL   H14034884   7.151   2.339   6.876 -1.3392  0.9767  0.0728
  173MOL   H14134885   7.153   2.293   6.708  0.6614 -0.8689 -0.1618
  173MOL   C14234886   7.236   2.022   7.002  0.1063 -0.1786 -0.3761
  173MOL   C14334887   7.369   2.087   6.967  0.0579 -0.3827 -0.1481
  173MOL   C14434888   7.478   1.981   6.987 -0.2719  0.4447  0.4796
  173MOL   O14534889   7.477   1.913   7.088  0.1199  0.3590 -0.2833
  173MOL   N14634890   7.570   1.959   6.892  1.0597 -0.4223 -0.0051
  173MOL   H14734891   7.215   1.922   6.963 -0.6722  0.1096 -0.6962
  173MOL   H14834892   7.227   2.016   7.110 -3.4191 -2.7190 -0.7430
  173MOL   H14934893   7.380   2.111   6.861  0.8139  0.5763  0.1415
  173MOL   H15034894   7.635   1.883   6.910  0.9726  0.0712  2.5375
  173MOL   H15134895   7.574   2.006   6.803  1.2699  0.5080  0.4851
  173MOL   C15234896   7.399   2.212   7.064 -0.0010  0.4035 -0.4557
  173MOL   C15334897   7.487   2.332   7.027  0.5655  0.4463 -0.0304
  173MOL   C15434898   7.414   2.426   6.931 -0.6582  0.2045 -0.7993
  173MOL   O15534899   7.330   2.508   6.975 -0.2971 -0.0533  0.2539
  173MOL   N15634900   7.426   2.407   6.802  0.3746 -0.1384 -0.1363
  173MOL   H15734901   7.437   2.172   7.158 -1.8719  2.0002  1.0260
  173MOL   H15834902   7.302   2.254   7.091  0.3506  0.5503  0.6049
  173MOL   H15934903   7.512   2.390   7.116  0.8925  2.1996 -1.2246
  173MOL   H16034904   7.369   2.469   6.747  0.5582 -0.5285 -0.7735
  173MOL   H16134905   7.503   2.347   6.775  1.1770 -0.6705  3.0992
  173MOL   C16234906   7.628   2.290   6.987 -0.0473  0.5370  0.2550
  173MOL   C16334907   0.088   2.384   6.996 -0.0525 -0.0366 -0.3723
  173MOL   C16434908   0.200   2.333   6.902  0.3345 -0.8183 -0.3412
  173MOL   O16534909   0.231   2.217   6.916 -0.3619  0.2646 -0.1575
  173MOL   N16634910   0.247   2.406   6.803  0.1122  0.1099 -0.6461
  173MOL   H16734911   7.616   2.244   6.889 -0.8627  0.3575  0.4309
  173MOL   H16834912   0.000   2.198   7.037  0.6343  0.4329 -0.3224
  173MOL   H16934913   0.049   2.483   6.968  0.8064  0.8141  1.3933
  173MOL   H17034914   0.219   2.497   6.768  1.7229  0.5623 -0.8101
  173MOL   H17134915   0.315   2.352   6.751  0.9110 -1.4687  1.9610
  173MOL   C17234916   0.140   2.392   7.147  0.4582 -0.1342 -1.0083
  173MOL   C17334917   0.275   2.458   7.176 -0.2565  0.0792 -0.3238
  173MOL   C17434918   0.317   2.392   7.306  0.2663 -0.0201  0.1161
  173MOL   O17534919   0.255   2.419   7.414  0.3911  0.4591  0.0759
  173MOL   N17634920   0.424   2.318   7.298 -0.1290 -0.0682 -0.3604
  173MOL   H17734921   0.146   2.289   7.182 -0.2669 -0.4561 -1.8170
  173MOL   H17834922   0.063   2.437   7.210  1.3302 -0.5769  0.3947
  173MOL   H17934923   0.347   2.441   7.096  0.8876  0.3067  0.6517
  173MOL   H18034924   0.461   2.285   7.386  0.0032 -1.4656 -0.9255
  173MOL   H18134925   0.473   2.308   7.210  0.8112  0.5839  0.0814
  173MOL   C18234926   0.278   2.611   7.189 -0.3049  0.0197  0.0079
  173MOL   C18334927   0.423   2.679   7.186 -0.1129  0.1114  0.2592
  173MOL   C18434928   0.419   2.832   7.215  0.0912 -0.1084  0.9622
  173MOL   O18534929   0.322   2.890   7.264  0.0489 -0.5851  0.2590
  173MOL   N18634930   0.536   2.896   7.204 -0.0148  0.2926 -0.0070
  173MOL   H18734931   0.237   2.638   7.286  0.6546  1.0491  0.1376
  173MOL   H18834932   0.224   2.661   7.109 -1.2387  0.4564  0.8990
  173MOL   H18934933   0.474   2.638   7.273 -2.0898  1.4142  2.0644
  173MOL   H19034934   0.516   2.994   7.218 -1.1509  0.5515 -3.0182
  173MOL   H19134935   0.617   2.858   7.158 -0.3801  0.1652 -0.5524
  173MOL   C19234936   0.510   2.642   7.062 -0.6444 -0.0847 -0.6062
  173MOL   C19334937   0.439   2.690   6.929  0.5805 -0.3405  0.5248
  173MOL   C19434938   0.512   2.647   6.798  0.0969  0.1397  0.4649
  173MOL   O19534939   0.557   2.534   6.789  0.3583  0.6403  0.8838
  173MOL   N19634940   0.523   2.744   6.708  0.4326 -0.0814 -0.6749
  173MOL   H19734941   0.525   2.534   7.063 -0.5716 -0.0762  0.5856
  173MOL   H19834942   0.602   2.701   7.061 -2.3444  2.6506 -1.4524
  173MOL   H19934943   0.339   2.648   6.919  0.4473  0.4931 -2.0199
  173MOL   H20034944   0.569   2.730   6.619 -1.3656  0.6359 -1.7632
  173MOL   H20134945   0.499   2.837   6.740  2.0969 -0.0065  0.4273
  173MOL   H20234946   0.423   2.798   6.930 -2.9809 -0.7872 -1.0366
  174MOL     C134947   6.777   4.960   4.541 -0.5356 -0.5982  0.2279
  174MOL     C234948   6.747   5.100   4.496 -0.0798 -0.1287 -0.7113
  174MOL     C334949   6.871   5.190   4.510  0.2531 -0.3718 -0.2419
  174MOL     O434950   6.908   5.223   4.624 -0.4737  0.5492  0.1160
  174MOL     N534951   6.928   5.226   4.399 -0.0185 -0.1367  0.4690
  174MOL     H634952   6.828   4.945   4.635 -0.4618 -0.3188  0.2339
  174MOL     H734953   6.677   4.917   4.550 -1.5473  1.3890 -0.9201
  174MOL     H834954   6.709   5.092   4.394  2.8674 -1.0654 -1.7874
  174MOL     H934955   7.014   5.278   4.405 -0.9594  1.4454  0.8582
  174MOL    H1034956   6.895   5.191   4.310  0.7723 -1.0276  0.5277
  174MOL    H1134957   6.829   4.922   4.453 -0.9686  0.4451 -0.4870
  174MOL    C1234958   6.626   5.155   4.583  0.4987 -0.5746  0.2692
  174MOL    C1334959   6.570   5.296   4.554  0.3998 -0.7836 -1.0368
  174MOL    C1434960   6.569   5.380   4.684 -0.2270 -0.3644 -0.2729
  174MOL    O1534961   6.469   5.398   4.755  0.2482  0.3115 -0.1283
  174MOL    N1634962   6.684   5.424   4.727 -1.0477  0.2438 -0.1241
  174MOL    H1734963   6.658   5.139   4.686  0.3911 -2.2018  0.0580
  174MOL    H1834964   6.546   5.081   4.577 -0.1811 -0.3350  4.6664
  174MOL    H1934965   6.636   5.346   4.482  0.4607  1.7727  0.7004
  174MOL    H2034966   6.688   5.462   4.821  2.1516 -1.3066  0.4325
  174MOL    H2134967   6.766   5.407   4.672 -0.1265 -1.7142  1.7543
  174MOL    C2234968   6.430   5.293   4.491 -0.1683  0.2758  0.2635
  174MOL    C2334969   6.381   5.430   4.422 -0.0666  0.1588 -0.1748
  174MOL    C2434970   6.231   5.431   4.407 -0.3983  0.3889  0.5639
  174MOL    O2534971   6.166   5.333   4.384  0.2134  0.4353 -0.0465
  174MOL    N2634972   6.164   5.547   4.410  0.0832  0.4383 -0.4955
  174MOL    H2734973   6.362   5.260   4.569 -0.0509  0.7931  0.5902
  174MOL    H2834974   6.431   5.224   4.406 -2.5522 -0.2674  0.6460
  174MOL    H2934975   6.410   5.508   4.492 -1.8015  0.7886 -0.1456
  174MOL    H3034976   6.190   5.637   4.448  1.1732 -0.8413  1.9231
  174MOL    H3134977   6.067   5.540   4.385  0.3819 -0.7638 -1.3841
  174MOL    C3234978   6.456   5.456   4.292 -0.4738  0.1869 -0.3451
  174MOL    C3334979   6.477   5.606   4.261 -0.3677  0.4757 -0.3512
  174MOL    C3434980   6.397   5.653   4.138  0.2446 -0.2591  0.3773
  174MOL    O3534981   6.418   5.602   4.031 -0.2926  0.5659 -0.1730
  174MOL    N3634982   6.311   5.756   4.151  0.1788 -0.1388 -0.7164
  174MOL    H3734983   6.391   5.416   4.214 -0.5515  0.0600 -0.2136
  174MOL    H3834984   6.551   5.402   4.281  0.9712  2.5422  0.1993
  174MOL    H3934985   6.423   5.663   4.336  0.4094  2.8954 -1.5571
  174MOL    H4034986   6.264   5.790   4.068 -0.2283 -0.0188 -0.4357
  174MOL    H4134987   6.290   5.807   4.236  1.1573  0.5581 -0.8825
  174MOL    C4234988   6.625   5.649   4.267  0.1336 -0.4527 -0.2313
  174MOL    C4334989   6.681   5.688   4.412 -0.1565 -0.1214  0.5995
  174MOL    C4434990   6.587   5.790   4.486 -0.1120  0.5361  0.8013
  174MOL    O4534991   6.543   5.883   4.424 -0.4705 -0.6027  0.0746
  174MOL    N4634992   6.551   5.765   4.609 -0.1277 -0.2786 -0.2359
  174MOL    H4734993   6.621   5.735   4.200 -1.8904 -2.7010 -3.1394
  174MOL    H4834994   6.693   5.574   4.228  1.8775  1.5249 -1.0891
  174MOL    H4934995   6.673   5.598   4.473 -1.1014 -0.8778 -0.6146
  174MOL    H5034996   6.597   5.690   4.658 -1.2483  0.2295  1.6835
  174MOL    H5134997   6.469   5.815   4.641  0.0516  1.2827 -2.1117
  174MOL    C5234998   6.830   5.735   4.417 -0.5585  0.6924 -0.0408
  174MOL    C5334999   6.939   5.632   4.454 -0.5917 -0.2460  0.9619
  174MOL    C5435000   6.940   5.594   4.602  0.2793 -0.6316 -0.1588
  174MOL    O5535001   6.873   5.663   4.682  0.5068 -0.5967 -0.0098
  174MOL    N5635002   7.017   5.491   4.642  0.5065  0.1372 -0.0590
  174MOL    H5735003   6.842   5.816   4.489 -0.6813  0.4839  0.2161
  174MOL    H5835004   6.850   5.789   4.325  0.4741 -0.7863 -0.7063
  174MOL    H5935005   6.915   5.538   4.403  2.9602 -0.2577 -0.7999
  174MOL    H6035006   7.081   5.448   4.577 -1.6066 -0.3969 -1.8304
  174MOL    H6135007   7.008   5.455   4.736  2.2359  2.1767  0.9333
  174MOL    C6235008   7.077   5.681   4.400 -1.0833  0.5675  0.0048
  174MOL    C6335009   7.103   5.629   4.256  0.5378 -0.6035 -0.1297
  174MOL    C6435010   7.152   5.482   4.247 -0.3258 -0.3562  0.4189
  174MOL    O6535011   7.141   5.409   4.342 -0.2940  0.2325 -0.9875
  174MOL    N6635012   7.193   5.435   4.128  0.5413 -0.0631  0.3313
  174MOL    H6735013   7.160   5.661   4.468 -2.0289  1.8395  1.5657
  174MOL    H6835014   7.090   5.788   4.385 -2.0576  0.6727 -0.1247
  174MOL    H6935015   7.004   5.622   4.211  0.3471  0.3418  0.1268
  174MOL    H7035016   7.196   5.335   4.112 -1.1829 -0.4265  2.0855
  174MOL    H7135017   7.198   5.485   4.040 -1.1586  1.1706  0.9210
  174MOL    C7235018   7.184   5.730   4.172  0.4678 -0.4760 -0.0193
  174MOL    C7335019   7.120   5.866   4.128  0.0623  0.4236 -0.3884
  174MOL    C7435020   6.973   5.857   4.084 -0.3337  0.2158 -0.0888
  174MOL    O7535021   6.937   5.765   4.020  0.6204 -0.4725 -0.0706
  174MOL    N7635022   6.908   5.980   4.094 -0.4366  0.3547  0.3975
  174MOL    H7735023   7.242   5.690   4.089  0.0889 -0.3405 -0.3479
  174MOL    H7835024   7.262   5.759   4.242 -1.1641  1.5728  0.9943
  174MOL    H7935025   7.121   5.932   4.214  1.0045  1.4750 -1.1904
  174MOL    H8035026   6.972   6.053   4.123 -1.0781  0.1342  2.4648
  174MOL    H8135027   6.823   5.997   4.043  0.3156 -0.5487 -1.1928
  174MOL    C8235028   7.203   5.932   4.018  0.1772  0.5911 -0.4858
  174MOL    C8335029   7.327   6.006   4.059 -0.7295 -0.2132  0.0176
  174MOL    C8435030   7.320   6.091   4.183 -0.1498 -1.0423 -0.5838
  174MOL    O8535031   7.241   6.186   4.188  0.1289 -0.2079 -0.4126
  174MOL    N8635032   7.403   6.062   4.283 -0.3512 -0.1959  0.1306
  174MOL    H8735033   7.146   6.014   3.973  1.0373  1.2635 -0.3686
  174MOL    H8835034   7.223   5.867   3.933 -0.1729 -2.3728  1.6563
  174MOL    H8935035   7.403   5.929   4.067  3.2274  3.2363 -2.0446
  174MOL    H9035036   7.413   6.120   4.366 -1.5809 -1.0218  0.8652
  174MOL    H9135037   7.460   5.978   4.278  0.6855  0.1810  3.8005
  174MOL    C9235038   7.381   6.085   3.939 -0.4796 -0.5299 -0.2903
  174MOL    C9335039   7.522   6.137   3.958 -0.0436  0.1694  0.4530
  174MOL    C9435040   7.554   6.239   3.842  0.2399  0.6742  0.2977
  174MOL    O9535041   7.504   6.234   3.730 -0.5541 -0.1393 -0.0513
  174MOL    N9635042   7.633   6.344   3.870 -0.0219  0.1111  0.1942
  174MOL    H9735043   7.318   6.171   3.915  1.4347  0.5927 -1.3893
  174MOL    H9835044   7.384   6.016   3.855 -0.0341  0.4023 -1.0521
  174MOL    H9935045   7.520   6.202   4.046 -0.9030  1.0629 -0.2120
  174MOL   H10035046   0.010   6.352   3.965  3.0286  0.1500 -0.8493
  174MOL   H10135047   7.655   6.418   3.805  1.5554 -0.5739 -0.0663
  174MOL   C10235048   7.634   6.031   3.969  0.3300 -0.3066  0.1312
  174MOL   C10335049   0.109   6.080   4.043 -0.5600  0.0123 -0.5178
  174MOL   C10435050   0.221   5.974   4.016 -0.5798  0.1568 -0.4832
  174MOL   O10535051   0.222   5.867   4.074 -0.1476  0.2643 -0.0461
  174MOL   N10635052   0.320   6.001   3.938  0.0222 -0.5925 -0.8944
  174MOL   H10735053   0.008   6.001   3.869  2.6867  0.8548  0.4622
  174MOL   H10835054   7.589   5.941   4.011  1.9147 -1.1957 -0.0366
  174MOL   H10935055   0.143   6.182   4.024  3.4908 -0.7796  1.8033
  174MOL   H11035056   0.367   5.919   3.900  0.3580  0.2139 -2.2711
  174MOL   H11135057   0.312   6.083   3.879  1.9456  0.2911  0.0379
  174MOL   C11235058   0.081   6.089   4.194  0.3336 -0.1888 -0.0397
  174MOL   C11335059   0.168   6.190   4.266 -0.1760 -0.0299 -0.2586
  174MOL   C11435060   0.115   6.334   4.239  0.1130  0.0167 -0.3825
  174MOL   O11535061   0.009   6.372   4.282  0.7096 -0.0036  0.3274
  174MOL   N11635062   0.196   6.414   4.169 -0.3485 -0.6492  0.2452
  174MOL   H11735063   0.102   5.992   4.239 -0.3920 -1.6507 -2.7611
  174MOL   H11835064   7.632   6.109   4.213  0.4686 -0.3355  0.9237
  174MOL   H11935065   0.161   6.164   4.372 -0.2656  0.0103 -0.2550
  174MOL   H12035066   0.166   6.510   4.158  0.2744 -0.4384  0.3970
  174MOL   H12135067   0.283   6.372   4.138 -1.5527 -3.1498  0.1001
  174MOL   C12235068   0.321   6.184   4.249 -0.2342 -0.3450  0.1527
  174MOL   C12335069   0.395   6.064   4.335 -0.4632  0.0441 -0.1932
  174MOL   C12435070   0.413   6.103   4.482  0.3058 -0.4341 -0.1835
  174MOL   O12535071   0.415   6.219   4.520  0.4174  0.0020 -0.0390
  174MOL   N12635072   0.413   6.002   4.565 -0.4516 -0.6738  0.1202
  174MOL   H12735073   0.371   6.275   4.283 -0.0576 -0.3713 -0.0388
  174MOL   H12835074   0.346   6.176   4.143 -0.1972  0.5845  0.0880
  174MOL   H12935075   0.330   5.977   4.329  0.0139 -0.3955  0.8644
  174MOL   H13035076   0.440   6.021   4.661 -0.9934  0.5528  0.0416
  174MOL   H13135077   0.414   5.906   4.536  0.9035 -0.4113 -0.7498
  174MOL   C13235078   0.527   6.017   4.273 -0.3878  0.5887  0.1488
  174MOL   C13335079   0.666   6.096   4.288  0.7177  0.0137 -0.1536
  174MOL   C13435080   0.682   6.227   4.202 -0.4350  0.7046  0.3793
  174MOL   O13535081   0.753   6.319   4.237 -0.3044 -0.0081  0.3792
  174MOL   N13635082   0.606   6.236   4.091  0.5046  0.2199 -0.1962
  174MOL   H13735083   0.506   6.003   4.167  1.2309  2.3060 -0.4395
  174MOL   H13835084   0.533   5.913   4.303 -2.9082 -0.4156 -2.6578
  174MOL   H13935085   0.658   6.138   4.388  1.3534 -2.5947  1.0318
  174MOL   H14035086   0.571   6.145   4.063  1.3038 -0.1097 -0.1425
  174MOL   H14135087   0.592   6.315   4.030  0.4906  1.4815  1.4074
  174MOL   C14235088   0.794   6.009   4.265  0.1263  0.2023  0.2516
  174MOL   C14335089   0.808   5.931   4.136  0.5287  0.7798 -0.3497
  174MOL   C14435090   0.766   5.784   4.156  0.3754  0.6924 -0.0496
  174MOL   O14535091   0.682   5.738   4.086 -0.1621 -0.0556 -0.1256
  174MOL   N14635092   0.834   5.702   4.233  0.0726 -0.0296 -0.4271
  174MOL   H14735093   0.803   5.940   4.349 -1.0906 -0.3742 -0.0814
  174MOL   H14835094   0.882   6.069   4.286 -1.0841  2.2272 -0.2790
  174MOL   H14935095   0.740   5.979   4.066  1.5186  0.6625 -1.3954
  174MOL   H15035096   0.810   5.604   4.227 -2.2758  0.4344  0.9285
  174MOL   H15135097   0.910   5.747   4.282  0.0856  0.6044 -1.0189
  174MOL   C15235098   0.944   5.951   4.067 -1.0198 -0.3186  0.4437
  174MOL   C15335099   0.954   5.907   3.927 -1.3289 -0.2107 -0.1054
  174MOL   C15435100   1.100   5.932   3.886  0.4650  0.6223  0.3668
  174MOL   O15535101   1.135   6.043   3.855  0.0662  0.1295 -0.2830
  174MOL   N15635102   1.177   5.828   3.899 -0.0830 -0.0132  0.1808
  174MOL   H15735103   1.020   5.903   4.128 -0.7269 -1.7924 -1.0556
  174MOL   H15835104   0.957   6.060   4.064  0.7626 -0.5183  0.7567
  174MOL   H15935105   0.937   5.800   3.938 -0.3147 -0.2188  1.6953
  174MOL   H16035106   1.140   5.742   3.939 -1.2523 -0.4203 -1.7057
  174MOL   H16135107   1.275   5.828   3.875  0.0885  0.7273  0.8536
  174MOL   C16235108   0.863   5.969   3.821 -0.9764 -0.6714  0.0407
  174MOL   C16335109   0.753   5.868   3.759 -0.4922 -0.3857 -0.9094
  174MOL   C16435110   0.818   5.748   3.691 -0.5657  0.1965 -0.1397
  174MOL   O16535111   0.905   5.771   3.607  0.0180  0.2057  0.4698
  174MOL   N16635112   0.786   5.624   3.722 -0.2655  0.2251 -0.2149
  174MOL   H16735113   0.914   6.017   3.738  1.2084 -0.1972  1.5930
  174MOL   H16835114   0.811   6.060   3.851 -0.3534 -0.2691 -0.0904
  174MOL   H16935115   0.705   5.820   3.845  0.0142  1.8272  0.6530
  174MOL   H17035116   0.818   5.546   3.666  1.0046 -1.4473  2.7114
  174MOL   H17135117   0.726   5.614   3.803 -0.2713  0.8642 -0.1377
  174MOL   C17235118   0.648   5.952   3.676 -0.2519  0.2102  0.1920
  174MOL   C17335119   0.540   5.887   3.598 -0.1817  0.8246  0.3522
  174MOL   C17435120   0.423   5.824   3.670  0.3782  0.1990 -0.5076
  174MOL   O17535121   0.435   5.788   3.785  0.2011  0.3466  0.0776
  174MOL   N17635122   0.311   5.813   3.603 -0.3284  0.2601 -0.3596
  174MOL   H17735123   0.693   6.012   3.597  0.8861 -0.7234  0.1186
  174MOL   H17835124   0.606   6.018   3.752  0.0035 -1.1597  1.5455
  174MOL   H17935125   0.486   5.974   3.561 -0.7925  0.1660 -0.3299
  174MOL   H18035126   0.314   5.849   3.509 -0.8159  0.0218 -0.4719
  174MOL   H18135127   0.227   5.769   3.638 -0.2375  0.9163  0.6735
  174MOL   C18235128   0.580   5.825   3.455  0.4454  0.1298 -0.5227
  174MOL   C18335129   0.569   5.922   3.331  0.0398  0.2812  0.0191
  174MOL   C18435130   0.419   5.951   3.296 -0.1931 -0.7784 -0.2807
  174MOL   O18535131   0.323   5.902   3.351 -0.3734 -0.2315 -0.1562
  174MOL   N18635132   0.402   6.046   3.199  0.1147  0.6965 -0.2211
  174MOL   H18735133   0.520   5.738   3.431 -0.9071  1.2341 -1.2451
  174MOL   H18835134   0.680   5.783   3.451  0.7198  0.6939  0.2642
  174MOL   H18935135   0.607   6.018   3.364 -0.4516  1.3500 -2.4153
  174MOL   H19035136   0.479   6.085   3.148  0.2711  0.3584 -0.2419
  174MOL   H19135137   0.305   6.064   3.174 -0.0857  0.6662  0.5076
  174MOL   C19235138   0.647   5.886   3.198 -0.4889 -0.0292  0.0376
  174MOL   C19335139   0.583   5.767   3.124 -0.3699 -0.1933  0.3841
  174MOL   C19435140   0.669   5.710   3.013  0.2432 -0.1992 -0.2358
  174MOL   O19535141   0.766   5.771   2.970 -0.1203 -0.8624  0.9241
  174MOL   N19635142   0.620   5.597   2.964  0.3044 -0.0712  0.0814
  174MOL   H19735143   0.745   5.849   3.229 -0.7669 -0.3424  0.5571
  174MOL   H19835144   0.661   5.978   3.142 -0.4751 -0.5448 -0.8078
  174MOL   H19935145   0.560   5.688   3.197 -0.4828 -0.6712 -0.1680
  174MOL   H20035146   0.529   5.563   2.993 -0.2104 -0.6087 -2.1035
  174MOL   H20135147   0.656   5.554   2.880 -1.3986  1.2442 -1.3631
  174MOL   H20235148   0.488   5.795   3.078 -1.0742 -0.3352  1.7211
  175MOL     C135149   1.345   6.505   6.291 -0.5238 -0.0147  0.3633
  175MOL     C235150   1.480   6.446   6.355  0.2289 -0.8932 -0.1803
  175MOL     C335151   1.450   6.329   6.457 -0.2176 -0.2558 -0.1467
  175MOL     O435152   1.511   6.317   6.563 -0.4296  0.3466  0.0757
  175MOL     N535153   1.366   6.239   6.421 -0.4327  0.1093  0.2650
  175MOL     H635154   1.274   6.434   6.247 -0.2120 -1.5235  2.2413
  175MOL     H735155   1.290   6.563   6.365 -1.4579  0.2848 -0.5531
  175MOL     H835156   1.527   6.390   6.274  2.9930  0.7697  0.1751
  175MOL     H935157   1.340   6.242   6.323 -1.0710 -1.6373  0.3616
  175MOL    H1035158   1.346   6.156   6.474 -0.9198 -0.1212 -0.2605
  175MOL    H1135159   1.354   6.569   6.204 -2.2613  0.3722  0.4482
  175MOL    C1235160   1.581   6.561   6.396  0.4002  0.2240  0.0371
  175MOL    C1335161   1.528   6.677   6.487 -0.0038  0.2699  0.5034
  175MOL    C1435162   1.627   6.793   6.489 -0.2055  0.3512 -0.1775
  175MOL    O1535163   1.611   6.888   6.407  0.5481  0.5878 -0.3024
  175MOL    N1635164   1.727   6.795   6.574 -0.0898 -0.5043  0.1894
  175MOL    H1735165   1.589   6.606   6.297  1.3109  2.4537  1.1167
  175MOL    H1835166   1.677   6.528   6.435  0.7540  0.9965 -0.1678
  175MOL    H1935167   1.443   6.723   6.437 -0.1831  0.0285  0.5861
  175MOL    H2035168   1.765   6.722   6.632 -1.2189 -0.3760  1.0868
  175MOL    H2135169   1.776   6.883   6.573 -0.7380 -0.1194  1.5801
  175MOL    C2235170   1.484   6.636   6.627 -0.5343 -0.2642  0.2159
  175MOL    C2335171   1.442   6.743   6.731 -0.4946  0.1314 -0.1335
  175MOL    C2435172   1.398   6.660   6.852  0.7186 -0.0819  0.0882
  175MOL    O2535173   1.286   6.611   6.860  0.2177  0.3234  0.2303
  175MOL    N2635174   1.483   6.661   6.951  0.1232 -0.7100 -0.2027
  175MOL    H2735175   1.566   6.588   6.679  0.3420  0.2532 -0.6689
  175MOL    H2835176   1.402   6.568   6.602 -1.8203  1.2169  0.3375
  175MOL    H2935177   1.533   6.793   6.763  1.3452 -3.0111 -0.3156
  175MOL    H3035178   1.466   6.618   7.040  1.5632  0.4852  0.6568
  175MOL    H3135179   1.568   6.704   6.918 -0.5296  0.2615 -0.6283
  175MOL    C3235180   1.334   6.839   6.673 -0.4248  0.0569  0.9520
  175MOL    C3335181   1.265   6.933   6.779  0.2554 -0.0939  0.0017
  175MOL    C3435182   1.152   7.000   6.701  0.2559 -0.2440 -0.1768
  175MOL    O3535183   1.179   7.105   6.636  0.3530  0.7335 -0.1806
  175MOL    N3635184   1.022   6.955   6.716 -0.5434  0.6590  0.5748
  175MOL    H3735185   1.265   6.784   6.610  0.2754 -0.8176  0.9399
  175MOL    H3835186   1.389   6.911   6.612  0.8977 -0.9161  0.9747
  175MOL    H3935187   1.214   6.874   6.855 -2.3318  0.0850 -1.5242
  175MOL    H4035188   0.996   6.868   6.760  1.1754  0.5384  1.4262
  175MOL    H4135189   0.950   6.991   6.655  0.4168 -0.6413 -1.3714
  175MOL    C4235190   1.365   7.024   6.857  0.1816 -0.2363  0.3948
  175MOL    C4335191   1.319   7.088   6.992 -0.4946  0.3225  0.9783
  175MOL    C4435192   1.306   6.971   7.098 -0.2291  1.2162 -0.5314
  175MOL    O4535193   1.199   6.929   7.132  0.5280 -0.0964 -0.0614
  175MOL    N4635194   1.412   6.930   7.161 -0.1485 -0.0663 -0.0685
  175MOL    H4735195   1.386   7.114   6.799 -0.9379  1.8132  3.0641
  175MOL    H4835196   1.460   6.973   6.875 -0.0165 -0.6933  0.1663
  175MOL    H4935197   1.412   7.137   7.019 -0.5789  0.8426  0.3321
  175MOL    H5035198   1.505   6.965   7.145  0.5636 -0.8134  2.2907
  175MOL    H5135199   1.402   6.857   7.230 -0.8198 -0.1665 -0.2637
  175MOL    C5235200   1.204   7.195   6.997  0.4136 -0.5326 -0.2847
  175MOL    C5335201   1.245   7.342   6.939  0.0597 -0.0081 -0.1782
  175MOL    C5435202   1.359   7.417   7.022  0.2296 -0.1198  0.0743
  175MOL    O5535203   1.425   7.512   6.979 -0.3089  0.5215 -0.2204
  175MOL    N5635204   1.393   7.361   7.137  0.6436 -0.1935 -0.6256
  175MOL    H5735205   1.180   7.208   7.103  0.8092 -0.1116 -0.2468
  175MOL    H5835206   1.116   7.159   6.944  0.4448  0.3871 -0.9628
  175MOL    H5935207   1.294   7.330   6.842  0.1202  0.6414 -0.2262
  175MOL    H6035208   1.464   7.394   7.201 -1.3752  2.5915  0.2332
  175MOL    H6135209   1.343   7.281   7.172 -1.2811  0.9395 -0.7433
  175MOL    C6235210   1.118   7.429   6.910 -0.0354 -0.5075  0.6724
  175MOL    C6335211   0.996   7.412   7.001  0.8597 -0.1755 -0.1104
  175MOL    C6435212   0.866   7.476   6.941 -0.5171  0.2792  0.6495
  175MOL    O6535213   0.871   7.579   6.878  0.0676  0.2195  0.0636
  175MOL    N6635214   0.756   7.400   6.935 -0.0146 -0.3420 -0.3537
  175MOL    H6735215   1.077   7.402   6.813 -1.2266  0.5605  0.8621
  175MOL    H6835216   1.149   7.533   6.898  2.1262 -1.2162 -0.1228
  175MOL    H6935217   0.971   7.306   6.996  0.3669 -0.1855  1.9851
  175MOL    H7035218   0.747   7.312   6.984 -1.9630  0.9124  1.6530
  175MOL    H7135219   0.677   7.444   6.890  0.6305 -0.1654 -1.3182
  175MOL    C7235220   1.025   7.443   7.145 -0.4047 -0.6531  0.4154
  175MOL    C7335221   1.023   7.602   7.178  0.4105 -0.4093  0.1425
  175MOL    C7435222   1.153   7.648   7.247  0.6092  0.1792 -0.2694
  175MOL    O7535223   1.189   7.613   7.360  0.1755 -0.2256 -0.2447
  175MOL    N7635224   1.231   0.065   7.162 -0.0323 -0.6211 -0.6821
  175MOL    H7735225   1.121   7.399   7.175  0.1334  1.1128  1.3724
  175MOL    H7835226   0.954   7.389   7.208 -0.8153  0.4117  0.8843
  175MOL    H7935227   1.018   7.656   7.084 -1.4092  1.1244  1.0770
  175MOL    H8035228   1.192   0.083   7.071 -0.6811 -3.4380 -1.0196
  175MOL    H8135229   1.308   0.120   7.198  1.2747 -1.7528 -1.7007
  175MOL    C8235230   0.892   7.640   7.261  0.1696  0.9448  0.1791
  175MOL    C8335231   0.878   0.128   7.316 -0.2635  0.0056  0.3557
  175MOL    C8435232   0.777   0.148   7.431 -0.1321 -0.3584 -0.0673
  175MOL    O8535233   0.676   0.215   7.414  0.1275  0.8901  0.1435
  175MOL    N8635234   0.800   0.087   7.550  0.7097  0.0122  0.1186
  175MOL    H8735235   0.880   7.571   7.345  2.2799  0.9453  0.4929
  175MOL    H8835236   0.809   7.628   7.191  0.3303 -0.2240  0.1792
  175MOL    H8935237   0.969   0.151   7.372  1.0769  0.8958 -2.0778
  175MOL    H9035238   0.886   0.034   7.557  3.4352  3.9316 -1.6573
  175MOL    H9135239   0.726   0.084   7.619 -1.6008  2.7812 -2.0980
  175MOL    C9235240   0.861   0.228   7.199  0.1488 -0.3987  0.6248
  175MOL    C9335241   0.896   0.375   7.236 -0.1974 -0.7246  0.3191
  175MOL    C9435242   0.890   0.473   7.111  0.7199 -0.2404  0.2157
  175MOL    O9535243   0.974   0.460   7.018 -0.0054 -0.3393 -0.5616
  175MOL    N9635244   0.780   0.547   7.093 -0.2772  0.6948 -0.6920
  175MOL    H9735245   0.756   0.226   7.167  0.2483  1.4980  0.1474
  175MOL    H9835246   0.918   0.192   7.113 -0.8119 -1.4555  0.4133
  175MOL    H9935247   0.824   0.403   7.313 -0.2908  3.0127 -1.0070
  175MOL   H10035248   0.710   0.540   7.166  0.7453  2.9788  0.5924
  175MOL   H10135249   0.757   0.601   7.011 -0.4092  1.2975 -0.2636
  175MOL   C10235250   1.037   0.377   7.303  0.3453  0.3373  0.4437
  175MOL   C10335251   1.054   0.440   7.435  0.0287  0.0473 -0.1474
  175MOL   C10435252   1.120   0.579   7.426 -0.0505  0.3612  0.4913
  175MOL   O10535253   1.241   0.597   7.414 -0.6544  0.1623  0.3622
  175MOL   N10635254   1.040   0.683   7.424  0.2235 -0.1163  0.7878
  175MOL   H10735255   1.107   0.431   7.239  0.6586  0.4909  0.9105
  175MOL   H10835256   1.084   0.279   7.302 -0.9516 -0.2881 -0.7817
  175MOL   H10935257   0.959   0.461   7.484 -0.3169 -0.1664 -0.7218
  175MOL   H11035258   0.942   0.675   7.402  0.2523  2.4719 -0.4695
  175MOL   H11135259   1.081   0.775   7.436 -0.9540  0.7865 -1.7662
  175MOL   C11235260   1.122   0.338   7.538  0.5377 -0.2044 -0.1593
  175MOL   C11335261   1.171   0.381   0.020  0.1733  0.6411 -0.2836
  175MOL   C11435262   1.074   0.481   0.091 -0.2972  0.0170 -0.1468
  175MOL   O11535263   1.113   0.587   0.134 -0.7589 -0.6892  0.2846
  175MOL   N11635264   0.955   0.445   0.119 -0.0419 -0.3162  0.0678
  175MOL   H11735265   1.209   0.296   7.487 -0.1881 -1.3735 -0.4630
  175MOL   H11835266   1.056   0.252   7.554 -0.9415  1.1391  1.0157
  175MOL   H11935267   1.163   0.297   0.089 -0.1756  1.5312  0.7636
  175MOL   H12035268   0.901   0.504   0.180  0.9412 -1.1943  1.8438
  175MOL   H12135269   0.915   0.355   0.096 -2.7070  0.9969 -0.6343
  175MOL   C12235270   1.313   0.429   0.014 -0.2246 -0.1657 -1.0107
  175MOL   C12335271   1.403   0.383   0.131  0.4209 -0.0605  0.0517
  175MOL   C12435272   1.443   0.500   0.221 -0.3385 -0.0904 -0.1455
  175MOL   O12535273   1.472   0.610   0.162  0.3203  0.3534  0.5091
  175MOL   N12635274   1.467   0.483   0.348 -0.0651  0.0251 -0.0196
  175MOL   H12735275   1.323   0.534   7.644 -2.9583  0.4133  0.0202
  175MOL   H12835276   1.356   0.390   7.579  2.2394 -1.3702  0.6147
  175MOL   H12935277   1.342   0.319   0.194  2.2633 -1.6569  0.2611
  175MOL   H13035278   1.514   0.555   0.401  1.0526 -2.0805  1.9256
  175MOL   H13135279   1.454   0.391   0.385 -1.6387 -0.5992 -2.0551
  175MOL   C13235280   1.529   0.316   0.074  1.2397  0.4046  0.3869
  175MOL   C13335281   1.503   0.174   0.018  0.5266 -0.2205 -0.3703
  175MOL   C13435282   1.521   0.077   0.132 -0.4483  0.0068 -0.9098
  175MOL   O13535283   1.633   0.052   0.181  0.7565 -0.1694  0.3272
  175MOL   N13635284   1.411   0.020   0.183 -0.2753 -0.3496  0.1614
  175MOL   H13735285   1.599   0.320   0.158 -0.0280  0.8036  1.4398
  175MOL   H13835286   1.574   0.384   0.002  0.0091  2.6356  1.6390
  175MOL   H13935287   1.397   0.162   0.000  0.6461  0.5891 -1.7281
  175MOL   H14035288   1.319   0.041   0.147  0.2086 -0.0477 -0.9342
  175MOL   H14135289   1.417   7.615   0.262 -0.0612 -0.9729 -0.3364
  175MOL   C14235290   1.589   0.141   7.550  0.4991 -0.5918  0.1444
  175MOL   C14335291   1.527   0.050   7.445 -0.9727  0.1142  0.2703
  175MOL   C14435292   1.534   7.561   7.488 -0.0117 -0.6577  0.4743
  175MOL   O14535293   1.632   7.512   7.548 -0.2317 -0.0305  0.2266
  175MOL   N14635294   1.430   7.480   7.474 -0.1877 -0.5595  0.0328
  175MOL   H14735295   1.689   0.104   7.573  0.7503  0.5404  0.9115
  175MOL   H14835296   1.604   0.231   7.491 -0.6565 -0.6985 -0.3178
  175MOL   H14935297   1.420   0.070   7.440 -1.1809 -1.3529 -2.3147
  175MOL   H15035298   1.439   7.380   7.486 -1.1863 -0.6556  0.0530
  175MOL   H15135299   1.342   7.511   7.434  1.1837  0.3190 -2.4516
  175MOL   C15235300   1.580   0.075   7.301 -0.0995  0.1100  0.9763
  175MOL   C15335301   1.591   0.217   7.252  0.2059  0.1610  0.0867
  175MOL   C15435302   1.471   0.311   7.285 -0.2976 -0.0752 -0.1059
  175MOL   O15535303   1.359   0.271   7.264 -1.3370 -0.5268 -0.1146
  175MOL   N15635304   1.497   0.424   7.347 -0.7256  0.5763 -0.5225
  175MOL   H15735305   1.505   0.024   7.241  0.2169  0.3412  0.3803
  175MOL   H15835306   1.674   0.027   7.274  0.2152  0.1522  2.0037
  175MOL   H15935307   1.676   0.264   7.302  1.3064 -0.4991 -1.1122
  175MOL   H16035308   1.414   0.476   7.371 -1.2508 -0.4802 -0.0321
  175MOL   H16135309   1.589   0.462   7.365 -0.1493 -1.0842  0.1267
  175MOL   C16235310   1.608   0.221   7.099  0.3123 -0.2640 -0.0717
  175MOL   C16335311   1.744   0.167   7.044 -0.4575 -0.5355  0.1716
  175MOL   C16435312   1.857   0.248   7.103  0.1419  0.2436  0.2575
  175MOL   O16535313   1.861   0.372   7.099 -0.4754 -0.2807  0.2143
  175MOL   N16635314   1.951   0.175   7.161 -0.1461 -0.2732 -0.1354
  175MOL   H16735315   1.591   0.325   7.072  0.0141 -0.3786 -0.3303
  175MOL   H16835316   1.528   0.169   7.046 -0.5745  0.5375  0.4476
  175MOL   H16935317   1.751   0.062   7.073  2.7645  0.1138  1.9435
  175MOL   H17035318   1.948   0.074   7.164  0.3438 -0.3149 -0.8306
  175MOL   H17135319   2.017   0.225   7.217 -0.2836 -1.2203  0.8825
  175MOL   C17235320   1.749   0.183   6.886  0.0895 -0.2921  0.5738
  175MOL   C17335321   1.658   0.084   6.801 -0.5127  0.0505 -0.3175
  175MOL   C17435322   1.720   7.600   6.792 -0.2456 -0.6424 -0.0766
  175MOL   O17535323   1.812   7.576   6.720  0.4388 -0.1791  0.2988
  175MOL   N17635324   1.674   7.502   6.871  0.3593  0.6356  0.0920
  175MOL   H17735325   1.852   0.173   6.852  0.3123  0.4032  1.0483
  175MOL   H17835326   1.727   0.286   6.857 -2.1535 -1.0649 -0.6382
  175MOL   H17935327   1.565   0.072   6.857 -0.7380 -2.5358 -1.2262
  175MOL   H18035328   1.728   7.417   6.867 -0.3825  0.2340 -2.2209
  175MOL   H18135329   1.580   7.505   6.906  0.3506 -2.1429  0.4315
  175MOL   C18235330   1.607   0.137   6.661 -0.2757 -0.5893 -0.4531
  175MOL   C18335331   1.508   0.047   6.586  0.4271  0.1919 -0.8418
  175MOL   C18435332   1.496   0.110   6.449  0.5538  0.3128 -0.0988
  175MOL   O18535333   1.464   0.227   6.428  0.2850  0.0757  0.2665
  175MOL   N18635334   1.528   0.019   6.353 -0.5955  0.6130  0.5900
  175MOL   H18735335   1.697   0.151   6.600  0.3758 -0.7217  0.4631
  175MOL   H18835336   1.576   0.241   6.668 -1.2659 -0.8385 -1.0063
  175MOL   H18935337   1.540   7.601   6.571  0.1999 -0.1807  1.0629
  175MOL   H19035338   1.526   0.049   6.257 -1.9129  1.5982  0.9066
  175MOL   H19135339   1.540   7.578   6.372  0.1822  0.9741  2.0459
  175MOL   C19235340   1.374   0.037   6.659  0.4647 -0.0876  0.2014
  175MOL   C19335341   1.283   0.162   6.678  0.5546 -0.2421  0.2378
  175MOL   C19435342   1.166   0.146   6.771 -0.6687  0.4591  0.4208
  175MOL   O19535343   1.172   0.191   6.886  0.3829 -0.2179 -0.1600
  175MOL   N19635344   1.061   0.082   6.719  0.1439  0.4799 -0.3731
  175MOL   H19735345   1.391   0.001   6.761 -0.4726  0.5867  0.6025
  175MOL   H19835346   1.310   7.620   6.611 -0.9094  0.6502  0.8504
  175MOL   H19935347   1.343   0.253   6.681 -0.2942  0.3650 -0.9237
  175MOL   H20035348   0.985   0.060   6.782  1.1740 -0.5380  0.5307
  175MOL   H20135349   1.068   0.026   6.635  0.3601 -0.1853  0.0889
  175MOL   H20235350   1.234   0.177   6.582 -0.7965  0.1274  0.9815
  176MOL     C135351   0.711   2.069   5.641 -0.1802  0.4677  0.1783
  176MOL     C235352   0.760   1.925   5.676  0.1154 -0.9485  0.1477
  176MOL     C335353   0.900   1.898   5.612 -0.1000 -0.0744 -0.4050
  176MOL     O435354   1.000   1.940   5.677 -0.0106  0.2472 -0.0849
  176MOL     N535355   0.904   1.836   5.494  0.4567 -0.2968 -0.4706
  176MOL     H635356   0.786   2.144   5.662 -3.6294  3.4602  2.3830
  176MOL     H735357   0.682   2.070   5.536 -1.0164  0.4077  0.4025
  176MOL     H835358   0.773   1.922   5.784 -1.5871  0.9814  0.4413
  176MOL     H935359   0.818   1.802   5.454 -0.0916  0.1693  0.2949
  176MOL    H1035360   0.993   1.798   5.467  0.1645 -2.1576  1.0325
  176MOL    H1135361   0.621   2.084   5.702 -4.1902 -1.8255 -4.7612
  176MOL    C1235362   0.652   1.821   5.646  1.0137 -0.3891  0.1413
  176MOL    C1335363   0.512   1.831   5.724  0.4153  0.2909 -0.8010
  176MOL    C1435364   0.538   1.842   5.879 -0.1687  0.1145  0.7920
  176MOL    O1535365   0.586   1.746   5.939 -0.3116  0.2269 -0.3766
  176MOL    N1635366   0.524   1.958   5.941 -0.8532  0.1796 -0.1430
  176MOL    H1735367   0.695   1.724   5.670 -0.7198 -0.7368  2.0210
  176MOL    H1835368   0.641   1.834   5.538 -0.7087  0.6798  0.4142
  176MOL    H1935369   0.468   1.925   5.690 -0.8276  0.7997  2.0228
  176MOL    H2035370   0.560   1.966   6.035 -1.0259 -0.4380 -0.0196
  176MOL    H2135371   0.487   2.042   5.900  0.6111 -0.0070 -1.8754
  176MOL    C2235372   0.415   1.715   5.680 -0.3613  0.2306 -0.5835
  176MOL    C2335373   0.394   1.714   5.525  0.0848  0.4462 -0.3473
  176MOL    C2435374   0.266   1.783   5.485  0.0416 -0.2301 -1.1801
  176MOL    O2535375   0.260   1.904   5.515  0.0295  0.4556 -0.4993
  176MOL    N2635376   0.161   1.716   5.435 -0.5654  0.0868  0.6821
  176MOL    H2735377   0.324   1.733   5.737 -0.4759  0.1867 -0.7506
  176MOL    H2835378   0.465   1.628   5.723  1.3578  0.0933 -2.7643
  176MOL    H2935379   0.460   1.771   5.459 -0.3457  1.7262  0.3175
  176MOL    H3035380   0.180   1.621   5.405  2.0011  1.1941 -1.4336
  176MOL    H3135381   0.067   1.752   5.428 -1.8429 -2.4869  3.6043
  176MOL    C3235382   0.408   1.570   5.472 -0.6187  0.3632  1.0918
  176MOL    C3335383   0.563   1.528   5.461 -0.4998  0.5436 -0.0321
  176MOL    C3435384   0.633   1.587   5.335  0.5982 -0.1241  0.2141
  176MOL    O3535385   0.645   1.705   5.328 -1.0862  0.1457 -0.3247
  176MOL    N3635386   0.681   1.519   5.234  0.4536 -0.6753  0.1717
  176MOL    H3735387   0.362   1.554   5.375 -1.1155 -2.2039  1.7174
  176MOL    H3835388   0.353   1.505   5.540 -1.8976 -0.9508 -1.1493
  176MOL    H3935389   0.621   1.580   5.537 -0.8311 -1.2051  1.4561
  176MOL    H4035390   0.683   1.418   5.237 -0.2991 -0.7693 -1.8840
  176MOL    H4135391   0.728   1.571   5.161 -0.7649 -1.4932 -1.2195
  176MOL    C4235392   0.591   1.368   5.482 -0.3722 -0.4943 -0.6554
  176MOL    C4335393   0.595   1.329   5.640 -0.4078 -0.7237 -0.8336
  176MOL    C4435394   0.723   1.393   5.703  0.5097  0.0484  0.7931
  176MOL    O4535395   0.836   1.371   5.655 -0.6451  0.0729 -0.1139
  176MOL    N4635396   0.714   1.471   5.808  0.5288  0.3642 -0.5267
  176MOL    H4735397   0.684   1.320   5.451 -0.1678 -1.0957  0.8552
  176MOL    H4835398   0.516   1.305   5.433 -0.0393 -1.5053  0.1053
  176MOL    H4935399   0.516   1.372   5.701  1.6498 -1.1998  2.2757
  176MOL    H5035400   0.620   1.485   5.842  0.4348 -0.3522 -0.4752
  176MOL    H5135401   0.794   1.514   5.851  0.4570  1.6471 -1.6361
  176MOL    C5235402   0.589   1.177   5.654 -0.2512 -0.2362 -0.8641
  176MOL    C5335403   0.607   1.124   5.803  0.1639  0.1106 -0.0953
  176MOL    C5435404   0.609   0.971   5.782 -0.0901  0.3061 -0.1020
  176MOL    O5535405   0.505   0.913   5.763  0.5261  0.1511  0.1449
  176MOL    N5635406   0.720   0.908   5.804  0.5879  0.3578 -0.3032
  176MOL    H5735407   0.666   1.135   5.590  0.0452  0.9703 -1.3135
  176MOL    H5835408   0.488   1.155   5.620 -1.4927  1.8226  1.3318
  176MOL    H5935409   0.700   1.166   5.842 -1.4019  1.4956  2.2443
  176MOL    H6035410   0.729   0.807   5.797  1.5633  0.5235 -1.6893
  176MOL    H6135411   0.810   0.942   5.834  0.4665  0.4427 -0.0379
  176MOL    C6235412   0.497   1.165   5.909  0.5419 -0.6389 -0.0804
  176MOL    C6335413   0.562   1.210   6.048  0.7356 -0.1442  0.1608
  176MOL    C6435414   0.650   1.100   6.102 -0.2723 -0.1142 -0.5775
  176MOL    O6535415   0.606   0.988   6.134  0.3340 -0.2698 -0.3154
  176MOL    N6635416   0.781   1.127   6.105  0.2870  0.3285  0.0716
  176MOL    H6735417   0.425   1.087   5.933 -0.2246  0.4937  1.3784
  176MOL    H6835418   0.439   1.244   5.862  1.3221 -1.2191 -2.0603
  176MOL    H6935419   0.629   1.292   6.024 -0.0223  0.7885  1.1360
  176MOL    H7035420   0.845   1.053   6.133 -1.1187 -0.2976  1.7728
  176MOL    H7135421   0.825   1.216   6.089  1.4497 -0.5096 -1.4985
  176MOL    C7235422   0.452   1.245   6.152 -0.3749 -0.4039 -0.1683
  176MOL    C7335423   0.328   1.335   6.111 -0.6710 -0.2486 -0.1803
  176MOL    C7435424   0.369   1.468   6.040  0.2624 -0.7733  0.5872
  176MOL    O7535425   0.293   1.522   5.959  0.6554 -0.0383  0.7191
  176MOL    N7635426   0.480   1.534   6.069 -0.0984  0.3102 -0.0714
  176MOL    H7735427   0.512   1.289   6.231  0.8652  1.1613 -1.9329
  176MOL    H7835428   0.412   1.157   6.202 -0.2693 -1.2089 -1.4565
  176MOL    H7935429   0.282   1.273   6.034  0.1180 -0.7988 -0.2137
  176MOL    H8035430   0.500   1.620   6.021  3.9883 -0.7839 -0.5142
  176MOL    H8135431   0.525   1.503   6.154 -0.3136  1.0464  0.3149
  176MOL    C8235432   0.239   1.362   6.229  0.5062  0.1800 -0.2404
  176MOL    C8335433   0.118   1.261   6.251  0.0922  0.3569 -0.4816
  176MOL    C8435434   0.026   1.274   6.131  0.5404  0.5604  0.2451
  176MOL    O8535435   7.620   1.376   6.103  0.0111 -0.0762 -0.1420
  176MOL    N8635436   0.019   1.161   6.066 -0.1481 -0.3852 -0.1714
  176MOL    H8735437   0.196   1.461   6.209 -0.2631  0.0194  0.5786
  176MOL    H8835438   0.300   1.381   6.317  2.5142 -2.3935 -1.0276
  176MOL    H8935439   0.139   1.154   6.251 -2.1589 -0.1338  1.1892
  176MOL    H9035440   7.620   1.164   5.982  0.3926  0.0531 -0.5139
  176MOL    H9135441   0.046   1.075   6.112 -2.5314 -0.9228  0.2669
  176MOL    C9235442   0.039   1.298   6.379 -0.3629  0.3275  0.1482
  176MOL    C9335443   0.003   1.193   6.488 -0.1061  0.4157 -0.1456
  176MOL    C9435444   7.570   1.070   6.440  0.0273  0.2225  0.2486
  176MOL    O9535445   7.523   1.069   6.322 -0.4418 -0.2217 -0.0941
  176MOL    N9635446   7.561   0.978   6.528  0.6097 -0.5291  0.0253
  176MOL    H9735447   7.602   1.343   6.347 -0.2219  0.7709  0.3509
  176MOL    H9835448   0.079   1.386   6.429  0.0179  0.8997 -1.1588
  176MOL    H9935449   0.088   1.131   6.518 -0.3240 -0.6716 -1.7257
  176MOL   H10035450   7.608   0.981   6.617  1.3196 -0.2296 -0.3568
  176MOL   H10135451   7.513   0.889   6.516  1.5796 -1.0008 -0.3656
  176MOL   C10235452   7.602   1.267   6.603  0.3848 -0.4071  0.9494
  176MOL   C10335453   0.038   1.340   6.700 -0.3988  0.2254 -0.3765
  176MOL   C10435454   0.105   1.226   6.789  0.3526  0.5721  0.2677
  176MOL   O10535455   0.026   1.175   6.871  0.2190 -0.2136  0.3044
  176MOL   N10635456   0.237   1.200   6.780  1.0641  0.5090  0.4534
  176MOL   H10735457   7.534   1.199   6.655 -2.4937  1.2488 -0.5382
  176MOL   H10835458   7.537   1.342   6.557  0.3830  0.1696  1.8775
  176MOL   H10935459   0.124   1.378   6.645 -2.4108  0.6066 -3.3332
  176MOL   H11035460   0.294   1.270   6.735  0.2021  0.4561 -0.7360
  176MOL   H11135461   0.271   1.126   6.839  0.7754 -0.6023 -0.7700
  176MOL   C11235462   7.632   1.447   6.790  0.0705 -0.0986 -0.6421
  176MOL   C11335463   0.055   1.575   6.836 -0.1308  0.4611  0.0267
  176MOL   C11435464   0.001   1.630   6.967 -0.0747  0.0196 -0.1682
  176MOL   O11535465   0.082   1.657   7.062  0.3192  0.0532  0.8210
  176MOL   N11635466   7.528   1.643   6.986  0.2419  0.2000 -0.4999
  176MOL   H11735467   7.585   1.398   6.875  0.9618 -0.3072 -0.2630
  176MOL   H11835468   7.535   1.466   6.744 -1.4084 -2.1753  1.5300
  176MOL   H11935469   0.160   1.548   6.842  0.4488  2.8732  1.6707
  176MOL   H12035470   7.491   1.700   7.060 -2.2919 -2.4884  0.4181
  176MOL   H12135471   7.467   1.617   6.910 -0.9190 -0.4449  0.6394
  176MOL   C12235472   0.047   1.688   6.736 -0.2795  0.0125 -0.2421
  176MOL   C12335473   0.125   1.680   6.603  0.2796 -0.0075  0.0493
  176MOL   C12435474   0.276   1.640   6.614  0.4220 -0.0237  0.2513
  176MOL   O12535475   0.345   1.702   6.691  0.6130 -0.3390  0.0961
  176MOL   N12635476   0.328   1.551   6.528  0.3229 -0.1424 -0.5562
  176MOL   H12735477   0.081   1.777   6.790  1.2113 -0.1153 -0.9580
  176MOL   H12835478   7.600   1.714   6.713 -0.6253 -1.3550 -0.2255
  176MOL   H12935479   0.078   1.599   6.548  0.1533  2.1413 -3.1866
  176MOL   H13035480   0.428   1.552   6.514  0.7345 -2.2540  1.8602
  176MOL   H13135481   0.266   1.514   6.456 -0.9338  1.9246 -0.5876
  176MOL   C13235482   0.107   1.793   6.498 -0.0827 -0.0226 -0.6700
  176MOL   C13335483   0.178   1.930   6.518  0.1015 -0.1966 -0.5835
  176MOL   C13435484   0.135   2.001   6.646 -0.4297 -0.4762  0.1733
  176MOL   O13535485   0.020   2.047   6.657 -0.6326 -0.0448 -0.2337
  176MOL   N13635486   0.221   2.006   6.748  0.0411 -0.5135 -0.3547
  176MOL   H13735487   7.656   1.802   6.487 -0.0895  1.5072  0.5501
  176MOL   H13835488   0.142   1.753   6.403 -1.4735  0.4839 -1.4090
  176MOL   H13935489   0.283   1.906   6.534  0.4993  0.9698 -1.4231
  176MOL   H14035490   0.305   1.950   6.752 -0.8330 -1.7291  2.0409
  176MOL   H14135491   0.205   2.067   6.827 -0.5419 -1.1444  0.0164
  176MOL   C14235492   0.175   2.023   6.397 -0.1193  0.4641  0.0647
  176MOL   C14335493   0.302   2.036   6.309  0.8597 -0.2977 -0.2190
  176MOL   C14435494   0.354   1.898   6.266 -0.0114 -0.3088  0.8138
  176MOL   O14535495   0.449   1.852   6.338 -0.0394  0.1152 -0.3044
  176MOL   N14635496   0.296   1.831   6.164 -0.1453  0.4656 -0.3223
  176MOL   H14735497   0.133   2.122   6.414 -0.1154  1.1384 -3.4742
  176MOL   H14835498   0.098   1.990   6.328 -0.2644  1.3120 -0.1784
  176MOL   H14935499   0.277   2.083   6.214  0.5804 -0.3127 -0.1536
  176MOL   H15035500   0.333   1.750   6.117  1.4699  0.9693  0.0584
  176MOL   H15135501   0.218   1.881   6.122 -1.0671 -1.3929 -0.8474
  176MOL   C15235502   0.396   2.135   6.374 -0.2562 -0.0138  0.1176
  176MOL   C15335503   0.519   2.183   6.300 -0.1412  0.0352  0.1343
  176MOL   C15435504   0.629   2.084   6.274 -0.5407 -0.1998  0.0391
  176MOL   O15535505   0.635   2.032   6.161  1.0560  0.9724 -0.6310
  176MOL   N15635506   0.728   2.055   6.365 -0.4610 -0.4129  0.2909
  176MOL   H15735507   0.438   2.089   6.464 -0.2204  0.0675  0.1425
  176MOL   H15835508   0.331   2.218   6.401 -0.2432  0.0144  0.0608
  176MOL   H15935509   0.495   2.218   6.200  1.4617  1.1095  0.1122
  176MOL   H16035510   0.722   2.087   6.461  0.6091  0.4691  0.0767
  176MOL   H16135511   0.804   1.993   6.342 -0.0439 -0.6330  2.1529
  176MOL   C16235512   0.574   2.308   6.378 -0.0022  0.0035  0.4546
  176MOL   C16335513   0.520   2.446   6.343  0.2892 -0.8459 -0.4452
  176MOL   C16435514   0.626   2.555   6.373 -0.2864  0.6175 -0.0560
  176MOL   O16535515   0.645   2.644   6.295 -0.7198  0.5786  0.8760
  176MOL   N16635516   0.683   2.549   6.498  0.6490 -0.1446 -0.2674
  176MOL   H16735517   0.682   2.306   6.363 -0.3002 -0.5397 -1.7856
  176MOL   H16835518   0.577   2.286   6.485  0.9578 -1.5738  0.1372
  176MOL   H16935519   0.498   2.443   6.237 -1.1290 -2.2527 -0.1271
  176MOL   H17035520   0.761   2.611   6.513 -1.1283  1.8961  0.7504
  176MOL   H17135521   0.673   2.467   6.557 -1.1542  0.8740  0.8985
  176MOL   C17235522   0.391   2.485   6.416 -0.0835 -0.0290  0.5773
  176MOL   C17335523   0.258   2.479   6.333  0.7232 -0.0719  0.1756
  176MOL   C17435524   0.241   2.599   6.243 -0.6512  0.2465  0.1875
  176MOL   O17535525   0.254   2.714   6.287  0.6060  0.3627  0.3375
  176MOL   N17635526   0.214   2.574   6.114 -0.3198 -0.1867  0.2114
  176MOL   H17735527   0.390   2.583   6.464 -1.0680  1.0935 -1.6674
  176MOL   H17835528   0.375   2.414   6.497 -2.8136  1.8186  1.7496
  176MOL   H17935529   0.258   2.390   6.270 -0.0681 -2.4304  3.4071
  176MOL   H18035530   0.219   2.657   6.056  1.1033  0.9086  1.8615
  176MOL   H18135531   0.214   2.488   6.060 -2.8795  0.7248 -1.3584
  176MOL   C18235532   0.140   2.463   6.425 -0.7864  0.4388  0.2129
  176MOL   C18335533   7.646   2.447   6.366  0.6690 -0.5839  0.5809
  176MOL   C18435534   7.581   2.586   6.337  0.0927  0.1543  0.6778
  176MOL   O18535535   7.533   2.655   6.421  0.1253 -0.2981 -0.0228
  176MOL   N18635536   7.573   2.622   6.207 -0.4017 -0.0314 -0.7134
  176MOL   H18735537   0.150   2.539   6.503 -0.3532 -1.0276  1.6117
  176MOL   H18835538   0.156   2.373   6.485 -0.8432  0.2219 -0.0929
  176MOL   H18935539   7.635   2.383   6.279 -0.7582  1.7794 -1.0366
  176MOL   H19035540   7.532   2.712   6.184 -0.0366  0.2046 -0.4447
  176MOL   H19135541   7.624   2.572   6.136  0.3711 -2.0086  1.1763
  176MOL   C19235542   7.560   2.370   6.468  0.0903  0.6151  0.0066
  176MOL   C19335543   7.417   2.343   6.418  0.3834 -0.0038 -0.5601
  176MOL   C19435544   7.338   2.258   6.515  0.8059  0.4107  0.2695
  176MOL   O19535545   7.213   2.279   6.536 -1.0699 -0.0316 -0.1481
  176MOL   N19635546   7.393   2.162   6.589  0.6509  0.0598 -0.0023
  176MOL   H19735547   7.562   2.419   6.566  2.1441 -0.3480  0.4707
  176MOL   H19835548   7.605   2.274   6.491 -2.8610 -0.4960  1.3577
  176MOL   H19935549   7.366   2.439   6.414 -0.6227 -0.5790 -1.9248
  176MOL   H20035550   7.489   2.134   6.575  1.2216  1.5989  0.6032
  176MOL   H20135551   7.330   2.127   6.660 -0.5974  1.9172 -0.1572
  176MOL   H20235552   7.423   2.284   6.326  0.5169 -1.3634  0.2974
  177MOL     C135553   6.871   0.126   3.933 -0.2287 -0.2185 -0.0374
  177MOL     C235554   6.815   0.174   3.799 -0.3824  0.2637 -0.6348
  177MOL     C335555   6.710   0.084   3.738 -0.9019 -0.1699  0.1536
  177MOL     O435556   6.663   7.643   3.801 -0.1875 -0.0064  0.5690
  177MOL     N535557   6.655   0.102   3.620 -0.5821  0.1171 -0.4557
  177MOL     H635558   6.907   0.023   3.931  0.6970  0.1074 -0.3144
  177MOL     H735559   6.948   0.192   3.972 -1.0555  1.0793 -0.5820
  177MOL     H835560   6.766   0.271   3.791 -1.3774 -0.2347 -0.7417
  177MOL     H935561   6.693   0.181   3.568 -0.8939 -1.4165 -3.1136
  177MOL    H1035562   6.582   0.049   3.574 -1.6577  0.2648  1.0516
  177MOL    H1135563   6.793   0.129   4.009  0.2006  0.0124  0.3935
  177MOL    C1235564   6.926   0.178   3.695  0.5755 -0.0762  0.1517
  177MOL    C1335565   7.070   0.232   3.740  0.1276 -0.2031  0.0929
  177MOL    C1435566   7.067   0.379   3.776  0.0313 -0.3943 -0.1039
  177MOL    O1535567   7.057   0.480   3.697 -0.4227 -0.2303  0.1809
  177MOL    N1635568   7.065   0.412   3.906 -0.0191  0.1644 -0.1498
  177MOL    H1735569   6.883   0.243   3.619 -0.3232  1.5496  2.0183
  177MOL    H1835570   6.950   0.076   3.663  0.0678 -1.0815  2.8387
  177MOL    H1935571   7.109   0.173   3.823 -0.6395  0.1051  0.6767
  177MOL    H2035572   7.031   0.505   3.928  2.5401  0.9055  0.7863
  177MOL    H2135573   7.079   0.338   3.973 -2.4287  0.7835  1.0973
  177MOL    C2235574   7.162   0.219   3.612 -0.4954  0.0350 -0.7112
  177MOL    C2335575   7.309   0.179   3.633 -0.3878 -0.1422 -0.0851
  177MOL    C2435576   7.327   0.031   3.667 -0.1291  0.3107 -0.4725
  177MOL    O2535577   7.248   7.626   3.738  0.3895 -0.3411 -0.0284
  177MOL    N2635578   7.422   7.626   3.600 -0.0977 -0.1750  0.1486
  177MOL    H2735579   7.152   0.308   3.549  0.5794  0.4758 -0.2746
  177MOL    H2835580   7.120   0.149   3.539 -0.3164  0.6103 -1.3757
  177MOL    H2935581   7.344   0.179   3.530 -0.1512  1.5967 -0.0191
  177MOL    H3035582   7.476   0.028   3.537  1.6386 -1.0621  0.7817
  177MOL    H3135583   7.432   7.526   3.599  1.7953  0.0074 -0.7550
  177MOL    C3235584   7.395   0.267   3.727 -0.2835 -0.2153  0.1778
  177MOL    C3335585   7.404   0.419   3.696  0.2048  0.3226  0.2829
  177MOL    C3435586   7.531   0.444   3.618 -0.0206  0.3854 -0.5544
  177MOL    O3535587   7.636   0.415   3.667 -0.2187  0.0486 -0.1873
  177MOL    N3635588   7.521   0.480   3.486  0.0920 -0.1292 -0.9291
  177MOL    H3735589   7.492   0.217   3.719 -0.7849 -1.1250 -0.3002
  177MOL    H3835590   7.366   0.253   3.831 -1.2977 -0.5815 -0.1533
  177MOL    H3935591   7.322   0.456   3.635 -0.8416  0.0535  1.4973
  177MOL    H4035592   7.607   0.482   3.434  0.6574  1.2934  0.0456
  177MOL    H4135593   7.428   0.484   3.448 -1.0113 -2.4695  1.3514
  177MOL    C4235594   7.402   0.498   3.822 -0.3312  0.6689 -0.1557
  177MOL    C4335595   7.375   0.656   3.819 -0.9869  0.1910 -1.0572
  177MOL    C4435596   7.476   0.735   3.743 -0.6297 -0.2284 -0.5850
  177MOL    O4535597   7.592   0.741   3.786 -0.4888  0.1647  0.0952
  177MOL    N4635598   7.430   0.810   3.640 -0.7258  0.0326  0.6927
  177MOL    H4735599   7.498   0.488   3.873 -0.8885 -1.7569  0.4908
  177MOL    H4835600   7.328   0.458   3.892 -0.3831  0.3000 -0.4210
  177MOL    H4935601   7.283   0.675   3.764 -0.7012  1.0148 -1.2603
  177MOL    H5035602   7.492   0.875   3.592  0.4386 -0.5214  1.4143
  177MOL    H5135603   7.332   0.816   3.619 -0.2949  0.5906 -1.3529
  177MOL    C5235604   7.367   0.721   3.958  0.0454  0.5056 -0.5108
  177MOL    C5335605   7.256   0.832   3.983  0.3709 -0.3490  0.0936
  177MOL    C5435606   7.299   0.962   3.928  0.9123 -0.3542 -0.1645
  177MOL    O5535607   7.413   1.010   3.953 -0.2293  0.4993  0.3766
  177MOL    N5635608   7.216   1.045   3.860 -0.3342  0.0302 -0.0877
  177MOL    H5735609   7.460   0.747   4.008 -0.8130  1.4065  0.6423
  177MOL    H5835610   7.331   0.642   4.023 -1.2417  0.7247 -0.9561
  177MOL    H5935611   7.165   0.801   3.930  0.8733  0.6750 -1.4111
  177MOL    H6035612   7.119   1.030   3.836 -0.1482 -0.6452 -0.4331
  177MOL    H6135613   7.249   1.136   3.832 -0.0662  0.0711  0.3545
  177MOL    C6235614   7.231   0.835   4.144  0.7090  0.4847  0.2158
  177MOL    C6335615   7.097   0.881   4.203 -0.5829  0.3472 -0.1445
  177MOL    C6435616   6.987   0.798   4.148  0.4760 -0.4427  0.1066
  177MOL    O6535617   7.000   0.696   4.079  0.8115 -0.0550  0.3113
  177MOL    N6635618   6.868   0.829   4.204  0.0731  0.2911  0.0139
  177MOL    H6735619   7.297   0.906   4.194 -0.6307  1.8896  0.0427
  177MOL    H6835620   7.248   0.739   4.194 -1.4323  0.6089  1.2342
  177MOL    H6935621   7.095   0.855   4.309  3.0709  2.5560  0.5607
  177MOL    H7035622   6.860   0.918   4.251  1.1274  0.2981  0.1899
  177MOL    H7135623   6.790   0.768   4.182  1.3290 -0.1887 -3.4983
  177MOL    C7235624   7.082   1.037   4.192  0.3352 -0.3474 -0.8905
  177MOL    C7335625   7.166   1.114   4.300 -0.2688  0.2156  0.5395
  177MOL    C7435626   7.088   1.143   4.432 -0.3030 -0.9170 -0.9665
  177MOL    O7535627   6.973   1.105   4.451 -0.1020 -0.0217 -0.3893
  177MOL    N7635628   7.154   1.206   4.524  0.2136  0.1837 -0.2048
  177MOL    H7735629   6.978   1.067   4.203  0.9120  1.6743 -0.7340
  177MOL    H7835630   7.106   1.068   4.090  2.0552 -1.6840 -0.9227
  177MOL    H7935631   7.250   1.049   4.323  1.3075  1.8175 -0.6034
  177MOL    H8035632   7.110   1.219   4.614 -0.2927 -2.3686 -0.0415
  177MOL    H8135633   7.242   1.253   4.506 -0.1688 -0.0963 -2.9766
  177MOL    C8235634   7.238   1.236   4.238  0.2745  0.5198  0.1794
  177MOL    C8335635   7.396   1.240   4.255 -0.3316  0.3791 -0.5329
  177MOL    C8435636   7.450   1.237   4.401 -0.0725 -0.1951  0.0241
  177MOL    O8535637   7.407   1.317   4.485 -0.0576 -0.4270  0.4470
  177MOL    N8635638   7.551   1.148   4.430  0.8514  0.6787  0.2356
  177MOL    H8735639   7.198   1.327   4.282 -1.8940 -1.4396  2.3751
  177MOL    H8835640   7.201   1.244   4.136 -1.6112 -4.7383  0.2893
  177MOL    H8935641   7.434   1.143   4.222  0.6198  0.9852 -1.2691
  177MOL    H9035642   7.595   1.149   4.521  2.5858 -2.6508 -0.4787
  177MOL    H9135643   7.575   1.080   4.360 -1.5888  0.1081 -0.0827
  177MOL    C9235644   7.450   1.353   4.166 -0.1626  0.5094 -0.4958
  177MOL    C9335645   7.603   1.356   4.137  0.6027 -0.4495 -0.2080
  177MOL    C9435646   7.652   1.497   4.096 -0.9630  0.1969 -0.1543
  177MOL    O9535647   0.114   1.516   4.081 -0.3673 -0.3849 -0.3244
  177MOL    N9635648   7.562   1.589   4.066 -0.0043  0.0043 -0.1851
  177MOL    H9735649   7.413   1.446   4.208  0.5694  0.3357  0.5659
  177MOL    H9835650   7.404   1.336   4.069 -3.4286 -1.9408  1.3685
  177MOL    H9935651   7.651   1.328   4.230 -0.4570 -0.2346  0.4036
  177MOL   H10035652   7.464   1.563   4.073  0.1778 -1.1759 -1.8224
  177MOL   H10135653   7.575   1.680   4.024  1.5605 -1.2035 -2.3917
  177MOL   C10235654   7.635   1.245   4.030 -0.3249  0.3474 -1.1393
  177MOL   C10335655   0.114   1.182   4.010 -0.7324  0.8658  0.4472
  177MOL   C10435656   0.130   1.101   3.882 -0.2839 -0.3315 -0.4731
  177MOL   O10535657   0.238   1.087   3.826  0.3142 -0.1232  0.1083
  177MOL   N10635658   0.025   1.041   3.825 -0.2372 -0.5250 -0.5868
  177MOL   H10735659   7.590   1.276   3.937  1.4463  1.1038 -1.7543
  177MOL   H10835660   7.573   1.164   4.069 -0.2610  0.3933 -0.9417
  177MOL   H10935661   0.184   1.264   4.000  0.8380 -0.2258  2.0893
  177MOL   H11035662   7.596   1.040   3.878 -0.3246  2.5321 -0.5966
  177MOL   H11135663   0.039   1.009   3.730  0.0539  0.1475 -0.7742
  177MOL   C11235664   0.154   1.097   4.145 -0.5660 -0.3783 -0.1862
  177MOL   C11335665   0.304   1.068   4.162  0.0866  0.5702  0.1220
  177MOL   C11435666   0.312   0.938   4.247 -1.1772 -0.0987  0.4958
  177MOL   O11535667   0.250   0.936   4.358 -0.0863 -0.0304 -0.0875
  177MOL   N11635668   0.374   0.832   4.201 -0.2490 -1.1742 -0.4495
  177MOL   H11735669   0.101   1.002   4.135  0.6817 -1.3105  1.8553
  177MOL   H11835670   0.122   1.147   4.236  0.9868 -2.1235  1.3734
  177MOL   H11935671   0.352   1.046   4.067 -0.1872 -3.5541  0.8586
  177MOL   H12035672   0.390   0.760   4.269 -1.8664  1.8182  3.2925
  177MOL   H12135673   0.407   0.825   4.105  1.0782  3.0977 -0.4167
  177MOL   C12235674   0.381   1.180   4.239 -0.3701 -0.5380 -0.1314
  177MOL   C12335675   0.536   1.159   4.241 -0.3244  0.4101 -0.1419
  177MOL   C12435676   0.602   1.213   4.363  0.2332 -0.1594  0.0006
  177MOL   O12535677   0.579   1.331   4.402  0.0345  0.6418 -0.1603
  177MOL   N12635678   0.692   1.132   4.417 -0.2167  0.1955  0.2993
  177MOL   H12735679   0.335   1.168   4.336  0.4811 -0.8548  0.2391
  177MOL   H12835680   0.349   1.276   4.197 -0.8948  0.1229  1.7673
  177MOL   H12935681   0.547   1.053   4.223 -1.6072 -0.1141  2.0326
  177MOL   H13035682   0.754   1.166   4.490 -1.6483  0.8382  1.2252
  177MOL   H13135683   0.715   1.051   4.361  2.4556 -0.1425  1.7720
  177MOL   C13235684   0.596   1.230   4.114 -0.2703 -0.6106  0.1496
  177MOL   C13335685   0.695   1.145   4.033 -0.2175 -0.0257 -0.9893
  177MOL   C13435686   0.827   1.133   4.107 -0.2390  0.1664 -0.1518
  177MOL   O13535687   0.853   1.031   4.176  0.5923  0.3318 -0.3486
  177MOL   N13635688   0.915   1.230   4.093 -0.0684  0.0702 -0.1087
  177MOL   H13735689   0.648   1.320   4.147  0.9670 -0.9804 -0.7651
  177MOL   H13835690   0.519   1.268   4.047  1.6288 -0.1913 -1.8466
  177MOL   H13935691   0.661   1.041   4.029  0.6947 -0.3835  0.1910
  177MOL   H14035692   0.907   1.296   4.018  2.3726 -1.9864 -2.2979
  177MOL   H14135693   1.001   1.227   4.146 -1.4903  0.7404  2.2842
  177MOL   C14235694   0.695   1.191   3.882 -0.2303 -0.1877 -0.1606
  177MOL   C14335695   0.617   1.106   3.788 -0.8284  0.0879 -0.7468
  177MOL   C14435696   0.692   0.984   3.736  0.0336 -0.1196 -0.1497
  177MOL   O14535697   0.790   0.996   3.662 -0.4919 -0.6167  0.0064
  177MOL   N14635698   0.638   0.862   3.769 -0.0840  0.4334 -0.6376
  177MOL   H14735699   0.797   1.202   3.847 -0.0079 -1.9544 -0.1002
  177MOL   H14835700   0.661   1.294   3.873  2.2525  0.6249 -0.5317
  177MOL   H14935701   0.547   1.067   3.862 -0.1096 -1.7213 -0.9891
  177MOL   H15035702   0.547   0.858   3.811  0.6211 -1.3087  0.7882
  177MOL   H15135703   0.686   0.780   3.734  0.4487  0.8958 -1.0108
  177MOL   C15235704   0.549   1.196   3.676  0.4507  0.1740  0.2060
  177MOL   C15335705   0.476   1.135   3.549 -0.2807  0.6270  0.0964
  177MOL   C15435706   0.573   1.059   3.452 -0.1097 -0.0500  0.1747
  177MOL   O15535707   0.662   1.117   3.393 -0.2715  0.1149  0.6550
  177MOL   N15635708   0.551   0.933   3.424 -0.1957 -0.1544 -0.5348
  177MOL   H15735709   0.619   1.270   3.639  1.4847 -0.9496 -0.1010
  177MOL   H15835710   0.470   1.256   3.723  1.4757  1.8131 -0.1241
  177MOL   H15935711   0.397   1.062   3.569 -1.0090  1.5987  0.7795
  177MOL   H16035712   0.624   0.899   3.363 -0.5380  2.3131 -2.4333
  177MOL   H16135713   0.482   0.874   3.468  0.2228 -1.4621 -1.6027
  177MOL   C16235714   0.402   1.240   3.471 -0.0082  0.1188  0.0977
  177MOL   C16335715   0.252   1.265   3.508 -0.6879  0.3951  0.0365
  177MOL   C16435716   0.161   1.160   3.444  0.6380 -0.6938 -0.0159
  177MOL   O16535717   0.133   1.063   3.506  0.0627 -0.0053  0.0346
  177MOL   N16635718   0.114   1.177   3.317 -0.4400  0.4258  0.1524
  177MOL   H16735719   0.398   1.210   3.367 -1.7991  0.6208  0.0108
  177MOL   H16835720   0.447   1.340   3.474 -1.2225  0.7828 -2.7900
  177MOL   H16935721   0.250   1.249   3.616  3.8048 -5.3477 -0.4941
  177MOL   H17035722   0.154   1.256   3.268  1.1734 -1.2405 -1.3270
  177MOL   H17135723   0.072   1.105   3.260 -2.3681  1.7954 -0.1948
  177MOL   C17235724   0.208   1.412   3.491 -0.0171 -0.5443 -0.4659
  177MOL   C17335725   0.215   1.504   3.609  0.2641 -0.0319 -0.5338
  177MOL   C17435726   0.073   1.553   3.643 -0.4876  0.5423 -0.1326
  177MOL   O17535727   0.010   1.605   3.556  0.1060  0.4383 -0.4829
  177MOL   N17635728   0.027   1.545   3.766 -0.3852 -0.0560 -0.0315
  177MOL   H17735729   0.105   1.399   3.458 -0.2129  0.3089 -0.2009
  177MOL   H17835730   0.253   1.455   3.401 -1.3770  0.7922 -0.5270
  177MOL   H17935731   0.251   1.450   3.697  1.0699  0.0613 -0.8024
  177MOL   H18035732   7.593   1.582   3.790  0.0350  0.2313  1.1497
  177MOL   H18135733   0.082   1.506   3.841 -0.5626  0.8753  0.5946
  177MOL   C18235734   0.310   1.626   3.582  0.1412 -0.4450  0.0717
  177MOL   C18335735   0.336   1.716   3.712  0.2082  0.2497  0.0774
  177MOL   C18435736   0.394   1.856   3.683  1.2293  0.7222 -0.3447
  177MOL   O18535737   0.490   1.871   3.609 -0.4451 -0.3306 -0.5717
  177MOL   N18635738   0.335   1.956   3.750  0.4449 -0.1705  0.2653
  177MOL   H18735739   0.256   1.691   3.513  2.3557 -1.7179 -3.0028
  177MOL   H18835740   0.403   1.602   3.529  0.2368 -0.1134  0.0901
  177MOL   H18935741   0.243   1.735   3.766  0.7577 -0.2574  1.2318
  177MOL   H19035742   0.273   1.933   3.827 -0.4659 -2.3019 -1.0684
  177MOL   H19135743   0.358   2.054   3.742 -0.8372  0.2948  1.9726
  177MOL   C19235744   0.427   1.650   3.812 -0.2248 -0.1905  0.2277
  177MOL   C19335745   0.387   1.682   3.956 -0.0113 -0.3021  0.6119
  177MOL   C19435746   0.454   1.592   4.060  0.4734 -0.2367  0.0691
  177MOL   O19535747   0.573   1.607   4.069  0.4824  0.1211 -0.3591
  177MOL   N19635748   0.379   1.519   4.141 -0.0809 -0.0905  0.3740
  177MOL   H19735749   0.534   1.666   3.799 -0.4826  0.5997 -0.9111
  177MOL   H19835750   0.428   1.542   3.796  1.2822  0.1866 -2.5816
  177MOL   H19935751   0.414   1.785   3.974  0.2616 -0.4959  1.3304
  177MOL   H20035752   0.280   1.514   4.125  0.0761 -0.6162 -0.4987
  177MOL   H20135753   0.422   1.460   4.210 -0.3569  0.3656  0.9338
  177MOL   H20235754   0.279   1.677   3.972 -0.4073  0.6967 -1.5414
  178MOL     C135755   0.121   0.277   5.244 -1.1755  0.0671 -0.5563
  178MOL     C235756   0.074   0.143   5.295  0.4053  0.1532 -0.0902
  178MOL     C335757   7.622   0.086   5.200  0.2519 -0.0225  0.4561
  178MOL     O435758   7.509   0.138   5.193 -0.3285 -0.3341 -0.8688
  178MOL     N535759   7.656   7.641   5.120 -0.1700 -0.4378 -0.3288
  178MOL     H635760   0.218   0.295   5.290 -1.8635  2.8637 -0.1258
  178MOL     H735761   0.130   0.291   5.136 -0.9421 -1.8597 -0.7924
  178MOL     H835762   0.155   0.072   5.285  1.3103  1.1197  0.2919
  178MOL     H935763   0.093   7.605   5.131 -0.1846 -0.3687  0.0483
  178MOL    H1035764   7.588   7.599   5.058 -0.3221 -0.3736 -0.2056
  178MOL    H1135765   0.046   0.349   5.277  0.1242  0.1582  2.2719
  178MOL    C1235766   0.021   0.124   5.442 -1.1192  0.3795 -0.1353
  178MOL    C1335767   7.635   7.637   5.481 -0.4662 -0.4353  0.5367
  178MOL    C1435768   7.491   7.645   5.540  0.0982 -0.4579  0.2513
  178MOL    O1535769   7.459   7.631   5.656 -0.2051  0.0559 -0.1093
  178MOL    N1635770   7.388   0.008   5.457  0.9451 -0.1728  0.1736
  178MOL    H1735771   7.597   0.196   5.456  0.9119  2.6274  0.6349
  178MOL    H1835772   0.107   0.166   5.494 -0.5929  0.0176 -0.6990
  178MOL    H1935773   7.617   7.575   5.393 -0.7789 -0.2280  0.4532
  178MOL    H2035774   7.399   0.045   5.364  1.7068 -0.7331  0.0400
  178MOL    H2135775   7.295   0.010   5.497  0.3773 -1.3182 -1.0528
  178MOL    C2235776   0.095   7.578   5.576  0.5106 -0.7287  0.3784
  178MOL    C2335777   0.125   7.431   5.538  0.1856 -0.1595 -0.4222
  178MOL    C2435778   0.034   7.334   5.615  0.2923  0.7595 -0.8062
  178MOL    O2535779   0.048   7.313   5.737 -0.5394 -0.2378 -0.1091
  178MOL    N2635780   7.597   7.280   5.550  0.1780  0.6420 -0.1762
  178MOL    H2735781   0.081   7.585   5.683  1.5396  0.0573  0.4779
  178MOL    H2835782   0.183   7.643   5.572  0.6933 -1.0796 -2.9167
  178MOL    H2935783   0.101   7.419   5.432 -0.9903  0.3270 -0.2189
  178MOL    H3035784   7.528   7.215   5.586  1.8399 -0.9193  0.2436
  178MOL    H3135785   7.606   7.278   5.449  0.7480  0.7101 -0.1255
  178MOL    C3235786   0.270   7.396   5.553 -0.1072  0.1262  0.3295
  178MOL    C3335787   0.321   7.297   5.445  0.7734 -1.2737  0.5777
  178MOL    C3435788   0.456   7.240   5.479 -0.3140  0.1296 -0.4288
  178MOL    O3535789   0.561   7.299   5.459 -0.0375 -0.1186  0.0895
  178MOL    N3635790   0.460   7.128   5.539  0.5208  0.0641  0.4080
  178MOL    H3735791   0.289   7.355   5.652  0.7582  0.3758  0.2667
  178MOL    H3835792   0.339   7.480   5.542  0.7269 -0.4536  1.0648
  178MOL    H3935793   0.246   7.218   5.441 -1.6998  1.0103  0.1905
  178MOL    H4035794   0.546   7.083   5.568  2.1390  2.0355 -1.2563
  178MOL    H4135795   0.381   7.096   5.594  1.5270 -2.2799  0.5760
  178MOL    C4235796   0.322   7.372   5.306 -0.6017 -0.1735  0.2522
  178MOL    C4335797   0.393   7.322   5.181  0.0188  0.1174 -0.1509
  178MOL    C4435798   0.393   7.410   5.063  0.0771  0.1243 -0.4377
  178MOL    O4535799   0.304   7.490   5.046  0.2159 -0.0006  0.5841
  178MOL    N4635800   0.489   7.403   4.971 -0.5625  0.1830  0.3105
  178MOL    H4735801   0.346   7.477   5.328 -1.8122 -0.0261  0.9376
  178MOL    H4835802   0.219   7.383   5.273 -1.0868 -1.4259  1.3111
  178MOL    H4935803   0.500   7.304   5.196 -0.2242 -1.0748  0.1931
  178MOL    H5035804   0.537   7.314   4.976 -0.7672  0.0563  0.0045
  178MOL    H5135805   0.494   7.454   4.884 -0.6982  0.0042  0.1965
  178MOL    C5235806   0.333   7.179   5.144 -0.0452  0.0800 -0.5459
  178MOL    C5335807   0.184   7.176   5.102  1.0871  0.0454  1.0466
  178MOL    C5435808   0.086   7.126   5.211 -0.0290  0.2165  0.6643
  178MOL    O5535809   0.041   7.202   5.302  0.1204  0.6891  0.0743
  178MOL    N5635810   0.045   7.003   5.202  0.5045  0.3536  0.2037
  178MOL    H5735811   0.336   7.121   5.236  2.4510  0.5369 -0.2998
  178MOL    H5835812   0.397   7.131   5.071 -0.6343 -1.1711 -0.2442
  178MOL    H5935813   0.153   7.278   5.081  0.5163 -0.6032 -1.4800
  178MOL    H6035814   7.652   6.962   5.279 -1.0787 -0.0614 -0.9974
  178MOL    H6135815   0.085   6.940   5.133  3.0481  1.5881  0.5039
  178MOL    C6235816   0.163   7.103   4.965 -0.1822 -0.6669 -0.4685
  178MOL    C6335817   0.174   7.187   4.839 -0.5032 -0.5399  0.4369
  178MOL    C6435818   0.059   7.293   4.833  0.1002  0.0230 -0.1174
  178MOL    O6535819   7.615   7.267   4.766  0.5200 -0.1681 -0.0428
  178MOL    N6635820   0.079   7.414   4.892  0.0557  0.0627 -0.0228
  178MOL    H6735821   0.063   7.063   4.951 -0.7407  0.8503 -0.9981
  178MOL    H6835822   0.221   7.012   4.950  1.1011  0.2370 -1.0975
  178MOL    H6935823   0.268   7.242   4.832 -0.5310 -0.5186  0.2385
  178MOL    H7035824   0.011   7.488   4.885 -1.5505 -1.4914 -1.2120
  178MOL    H7135825   0.170   7.445   4.922  1.2445 -0.2871 -3.1224
  178MOL    C7235826   0.165   7.094   4.721  0.2073  0.5202  0.9908
  178MOL    C7335827   0.196   7.160   4.579  0.3286 -1.0256 -0.2155
  178MOL    C7435828   0.082   7.115   4.480  0.1163  0.7429 -0.7366
  178MOL    O7535829   0.114   7.052   4.376 -0.7132 -0.3873 -0.0158
  178MOL    N7635830   7.619   7.132   4.526  0.1789 -0.2981  0.6086
  178MOL    H7735831   0.068   7.046   4.725  1.5250 -2.3662  0.0385
  178MOL    H7835832   0.239   7.015   4.737  0.0691 -0.0365 -0.9429
  178MOL    H7935833   0.170   7.266   4.588  1.1477 -0.9962  2.0426
  178MOL    H8035834   7.539   7.089   4.482  0.0719  0.1995  0.3269
  178MOL    H8135835   7.611   7.159   4.623 -1.2926  3.3766 -0.4738
  178MOL    C8235836   0.338   7.142   4.521  0.1114 -0.4124  0.8441
  178MOL    C8335837   0.373   7.244   4.409 -0.4758  0.1994  0.2786
  178MOL    C8435838   0.470   7.185   4.304  0.1387  0.1880 -0.1927
  178MOL    O8535839   0.592   7.206   4.309  0.4193 -0.0143 -0.1424
  178MOL    N8635840   0.416   7.117   4.205  0.0059 -0.2446  0.0555
  178MOL    H8735841   0.342   7.047   4.468  1.7438  0.3683 -0.5036
  178MOL    H8835842   0.411   7.142   4.602  1.7558  1.4881 -0.5641
  178MOL    H8935843   0.281   7.245   4.351 -0.1236 -2.6193 -0.4081
  178MOL    H9035844   0.479   7.087   4.132 -0.0426 -1.0480  0.3344
  178MOL    H9135845   0.316   7.104   4.204 -0.3716  1.9425 -4.3451
  178MOL    C9235846   0.399   7.396   4.431  0.2273 -0.3662  0.4444
  178MOL    C9335847   0.316   7.492   4.342  0.6259 -0.3194  1.2311
  178MOL    C9435848   0.392   7.524   4.213 -0.2060  0.6452  0.4142
  178MOL    O9535849   0.490   7.595   4.212 -0.6411  0.7253 -0.2562
  178MOL    N9635850   0.352   7.471   4.101 -0.4225  0.2807 -0.3738
  178MOL    H9735851   0.504   7.416   4.410  0.0934 -1.6267 -1.5808
  178MOL    H9835852   0.393   7.421   4.537  0.2574 -2.4021  0.9595
  178MOL    H9935853   0.220   7.451   4.311 -0.1568  2.2896  0.1425
  178MOL   H10035854   0.405   7.494   4.017 -0.7950  1.0952 -0.3909
  178MOL   H10135855   0.272   7.410   4.107 -0.5225  0.2697 -1.5913
  178MOL   C10235856   0.280   7.620   4.412 -0.3179  1.0673 -0.4049
  178MOL   C10335857   0.174   7.621   4.524  0.0707 -0.1183  0.3483
  178MOL   C10435858   0.030   7.561   4.477 -0.4574 -0.2769  0.6991
  178MOL   O10535859   7.637   7.594   4.366 -0.2884 -0.4796 -0.3869
  178MOL   N10635860   7.634   7.483   4.571 -0.1363 -0.6399  0.4289
  178MOL   H10735861   0.269   0.045   4.341 -0.8638  1.6851  0.3686
  178MOL   H10835862   0.372   7.653   4.461 -0.3432 -1.6121  1.5788
  178MOL   H10935863   0.204   7.553   4.604 -1.3981 -2.4765 -1.0147
  178MOL   H11035864   0.018   7.475   4.663 -1.4327  0.1542  1.0977
  178MOL   H11135865   7.544   7.438   4.563 -0.5176  0.3915 -1.4285
  178MOL   C11235866   0.145   0.100   4.602  0.1420 -0.4319  1.2140
  178MOL   C11335867   0.259   0.155   4.687 -0.2850 -0.6116 -0.4204
  178MOL   C11435868   0.258   0.098   4.833  0.2851 -0.0500  0.3049
  178MOL   O11535869   0.157   0.113   4.903  0.0860  0.5028  0.0957
  178MOL   N11635870   0.362   0.033   4.871 -0.1304 -0.0536 -0.0885
  178MOL   H11735871   0.058   0.074   4.663 -0.8366 -1.2797 -0.4958
  178MOL   H11835872   0.115   0.178   4.532  1.0744 -1.3707 -0.2578
  178MOL   H11935873   0.357   0.132   4.644  0.0908  0.4046 -0.1177
  178MOL   H12035874   0.439   0.039   4.806 -0.5388  0.6036 -0.5110
  178MOL   H12135875   0.362   7.613   4.936 -1.3405 -0.7993 -0.9643
  178MOL   C12235876   0.243   0.303   4.699  0.0119  0.2727 -0.0581
  178MOL   C12335877   0.332   0.387   4.792 -0.1710 -0.0078  0.2142
  178MOL   C12435878   0.286   0.528   4.824 -0.5080 -0.1647  0.6591
  178MOL   O12535879   0.213   0.585   4.750 -0.4906 -0.1572  0.4675
  178MOL   N12635880   0.354   0.585   4.923 -0.5591  0.1429  0.5298
  178MOL   H12735881   0.139   0.324   4.723  0.4731  2.9190 -0.1722
  178MOL   H12835882   0.250   0.344   4.599  1.6847  2.0703  0.7491
  178MOL   H12935883   0.342   0.344   4.892 -1.7480  2.6646  1.5972
  178MOL   H13035884   0.343   0.684   4.940  0.6739  0.2583  0.7105
  178MOL   H13135885   0.426   0.526   4.962  0.6784  0.8508 -0.6054
  178MOL   C13235886   0.474   0.403   4.730 -0.7210 -0.1281 -0.4098
  178MOL   C13335887   0.587   0.327   4.800  0.1544  0.4843  0.7777
  178MOL   C13435888   0.623   0.397   4.936  0.1198  0.0931  0.3641
  178MOL   O13535889   0.567   0.377   5.042  0.2956 -0.3594  0.1731
  178MOL   N13635890   0.715   0.492   4.937  0.0346 -0.8264  0.4432
  178MOL   H13735891   0.500   0.507   4.708  1.7777 -0.4782  0.7090
  178MOL   H13835892   0.453   0.357   4.634 -0.0092 -0.4483 -0.4152
  178MOL   H13935893   0.532   0.239   4.832 -0.3671  0.0031 -1.3265
  178MOL   H14035894   0.734   0.554   5.015  0.0064  1.3770 -1.2538
  178MOL   H14135895   0.759   0.518   4.850  2.6911 -0.9661  1.6891
  178MOL   C14235896   0.706   0.287   4.708  0.8034  0.3057 -1.1173
  178MOL   C14335897   0.771   0.142   4.719  0.2727 -0.6075 -0.3659
  178MOL   C14435898   0.684   0.036   4.651 -0.0506  0.1554 -0.3273
  178MOL   O14535899   0.582   0.003   4.701 -0.7313  0.3831 -1.1176
  178MOL   N14635900   0.730   7.639   4.537  0.8351 -0.2147 -0.5598
  178MOL   H14735901   0.789   0.355   4.729 -0.4712  1.4287  0.3754
  178MOL   H14835902   0.674   0.302   4.605  1.2764  1.7886 -1.0617
  178MOL   H14935903   0.856   0.139   4.652 -0.9662 -1.2485 -1.9386
  178MOL   H15035904   0.807   0.025   4.487  1.5918 -3.0410 -1.9645
  178MOL   H15135905   0.672   7.568   4.493 -0.0635  1.3882 -2.0193
  178MOL   C15235906   0.815   0.097   4.861  0.5379  0.1755  0.1794
  178MOL   C15335907   0.961   0.103   4.901 -0.3374  0.0117 -0.6420
  178MOL   C15435908   1.009   0.247   4.918  0.1539 -0.0913  0.5760
  178MOL   O15535909   1.026   0.321   4.816  0.0354 -0.4618 -0.5719
  178MOL   N15635910   1.031   0.301   5.035  0.5244  0.1144  0.0353
  178MOL   H15735911   0.796   7.646   4.856 -0.8361  0.3570  1.1531
  178MOL   H15835912   0.754   0.137   4.942 -0.1250 -2.4546  1.0574
  178MOL   H15935913   0.959   0.059   5.000  1.2506  2.9041  0.7589
  178MOL   H16035914   1.009   0.252   5.121 -0.7840  0.9805  0.2237
  178MOL   H16135915   1.052   0.400   5.037  0.4855  0.1411 -0.6723
  178MOL   C16235916   1.055   0.009   4.811  0.5475 -0.3034  0.0994
  178MOL   C16335917   1.188   7.610   4.875 -0.7137  0.2956 -0.1704
  178MOL   C16435918   1.298   0.055   4.900  0.4832  0.1791  1.3940
  178MOL   O16535919   1.377   0.101   4.817 -0.6988 -0.2777  0.2738
  178MOL   N16635920   1.307   0.105   5.020 -0.0102  0.8113 -0.4270
  178MOL   H16735921   1.088   0.073   4.729 -0.0262 -1.0011 -0.6870
  178MOL   H16835922   1.001   7.582   4.768 -0.9624  0.4772  0.4354
  178MOL   H16935923   1.144   7.589   4.973 -1.4096  0.5422 -0.4335
  178MOL   H17035924   1.381   0.174   5.020  2.5890 -1.8429  0.9796
  178MOL   H17135925   1.250   0.087   5.102  0.4284  0.0426 -0.2841
  178MOL   C17235926   1.241   7.482   4.811  0.6217 -0.3997 -0.1760
  178MOL   C17335927   1.355   7.422   4.895 -0.1779 -0.4773  0.0582
  178MOL   C17435928   1.470   7.404   4.801  0.3575  0.3018  0.5177
  178MOL   O17535929   1.503   7.294   4.758  0.2870  0.6819 -0.4655
  178MOL   N17635930   1.534   7.512   4.764  0.3615  0.1399  0.2593
  178MOL   H17735931   1.279   7.509   4.713  2.4123 -0.1942  0.5471
  178MOL   H17835932   1.162   7.408   4.798  0.6499 -0.4961  0.1896
  178MOL   H17935933   1.407   7.493   4.959  1.4642 -0.9453 -0.7444
  178MOL   H18035934   1.488   7.600   4.779  0.6407  0.2308  0.5960
  178MOL   H18135935   1.593   7.492   4.684  0.4179  1.5335 -0.0490
  178MOL   C18235936   1.303   7.290   4.961  0.1985 -0.0179 -1.5919
  178MOL   C18335937   1.395   7.244   5.074  0.1355  0.0983 -0.0463
  178MOL   C18435938   1.428   7.096   5.063  0.1410  0.2126  0.0535
  178MOL   O18535939   1.425   7.017   5.161  0.3875 -0.0334 -0.0656
  178MOL   N18635940   1.473   7.054   4.945  0.0771  0.1717 -0.0845
  178MOL   H18735941   1.281   7.214   4.886  1.3337 -1.0905 -0.8581
  178MOL   H18835942   1.207   7.311   5.009  0.8891 -0.5106  0.0676
  178MOL   H18935943   1.489   7.299   5.066 -0.5174  1.2285 -0.1418
  178MOL   H19035944   1.500   6.957   4.934 -0.1832  0.3953 -3.2210
  178MOL   H19135945   1.488   7.109   4.862  3.0837 -1.6612 -0.8304
  178MOL   C19235946   1.334   7.277   5.212 -0.0626 -0.5254 -0.5437
  178MOL   C19335947   1.328   7.432   5.257  0.1755 -0.2047  0.0081
  178MOL   C19435948   1.463   7.518   5.252  0.5102  0.3829  0.2106
  178MOL   O19535949   1.564   7.475   5.201  0.2181 -0.3287 -0.2234
  178MOL   N19635950   1.458   7.629   5.319 -0.1233  0.3526 -0.4435
  178MOL   H19735951   1.380   7.213   5.287 -0.0744  0.1662  0.0600
  178MOL   H19835952   1.227   7.255   5.219 -0.1089  0.2345  1.5370
  178MOL   H19935953   1.261   7.487   5.191 -1.9296  0.0720  2.3251
  178MOL   H20035954   1.371   0.021   5.336 -0.8257 -0.0226 -2.7022
  178MOL   H20135955   1.538   0.032   5.308 -0.7987  1.0519 -1.7254
  178MOL   H20235956   1.281   7.437   5.355  1.0322  0.4702  0.3884
  179MOL     C135957   0.674   2.852   2.956  0.4569 -0.4231 -0.7551
  179MOL     C235958   0.778   2.735   2.949  0.1148 -0.4426 -0.3363
  179MOL     C335959   0.748   2.650   2.826  0.2397  0.0128  0.2897
  179MOL     O435960   0.834   2.626   2.739  0.4547  0.5055 -0.9017
  179MOL     N535961   0.623   2.619   2.807 -0.9597  0.4379  0.1738
  179MOL     H635962   0.672   2.904   2.860  1.0656  0.4435 -0.3024
  179MOL     H735963   0.574   2.818   2.984  0.0434 -0.1443 -1.8814
  179MOL     H835964   0.880   2.773   2.936  1.0098 -1.5444  3.1127
  179MOL     H935965   0.613   2.555   2.729  3.7357  0.3365 -0.5080
  179MOL    H1035966   0.561   2.617   2.886  0.9111  0.1253  1.6902
  179MOL    H1135967   0.702   2.925   3.032  2.1417 -2.4113  0.5789
  179MOL    C1235968   0.773   2.656   3.078 -0.5456  0.0745 -0.1079
  179MOL    C1335969   0.878   2.549   3.095  0.3572 -0.0975 -0.4394
  179MOL    C1435970   0.826   2.433   3.176 -0.2648  0.8219 -0.8228
  179MOL    O1535971   0.827   2.444   3.302 -0.1146 -0.6572  0.1171
  179MOL    N1635972   0.781   2.329   3.112  0.0325 -0.4998 -0.4804
  179MOL    H1735973   0.678   2.610   3.103 -0.8907  1.4953  1.3432
  179MOL    H1835974   0.782   2.726   3.161  2.3884 -0.1019 -0.2380
  179MOL    H1935975   0.894   2.499   3.000 -1.2440 -2.2613  0.3820
  179MOL    H2035976   0.798   2.323   3.012 -1.4302 -1.0182 -0.7139
  179MOL    H2135977   0.734   2.259   3.167 -1.6669  1.1496  0.1712
  179MOL    C2235978   1.010   2.608   3.147 -0.1286  0.3040 -0.4270
  179MOL    C2335979   1.135   2.540   3.099 -0.1864 -0.0629  0.6701
  179MOL    C2435980   1.159   2.418   3.199 -0.1715 -0.4930  0.2444
  179MOL    O2535981   1.131   2.303   3.172  0.0862 -0.3977 -1.2340
  179MOL    N2635982   1.217   2.459   3.313 -0.2763 -0.3017 -0.4571
  179MOL    H2735983   1.011   2.609   3.256 -0.3342 -2.1380 -0.3666
  179MOL    H2835984   1.015   2.715   3.128  0.2267  0.1384 -1.2820
  179MOL    H2935985   1.104   2.494   3.005  2.8125  2.5037 -1.6675
  179MOL    H3035986   1.246   2.555   3.318  2.4339 -1.1446  1.1658
  179MOL    H3135987   1.247   2.401   3.391 -1.2131 -0.6175 -0.3238
  179MOL    C3235988   1.261   2.621   3.081 -0.4459 -0.5628  0.4493
  179MOL    C3335989   1.377   2.551   3.011 -0.9078  0.1822  0.2305
  179MOL    C3435990   1.496   2.560   3.099  0.6456  0.6295 -0.4290
  179MOL    O3535991   1.589   2.634   3.076  0.4652 -0.6243  0.8032
  179MOL    N3635992   1.498   2.474   3.201  0.2466 -0.0084 -0.2688
  179MOL    H3735993   1.269   2.660   3.182 -1.8125  0.4557  0.1668
  179MOL    H3835994   1.237   2.708   3.020 -0.0040 -1.5728 -1.2109
  179MOL    H3935995   1.361   2.444   3.002  2.4377 -0.4715  1.1911
  179MOL    H4035996   1.407   2.436   3.224  0.7082 -2.1162 -1.8243
  179MOL    H4135997   1.580   2.468   3.261  0.1338  0.7795 -0.0249
  179MOL    C4235998   1.397   2.608   2.867 -0.0339 -0.2376 -0.2362
  179MOL    C4335999   1.466   2.506   2.776  0.3346 -0.0683  0.4166
  179MOL    C4436000   1.530   2.587   2.663  0.2318  0.0878  0.2092
  179MOL    O4536001   1.460   2.657   2.586  0.2624  0.7979 -0.5733
  179MOL    N4636002   1.662   2.581   2.648 -0.7254  0.2144  0.8312
  179MOL    H4736003   1.434   2.710   2.877  0.1755 -0.4923  1.7813
  179MOL    H4836004   1.295   2.611   2.829  0.2107  0.2458 -0.8702
  179MOL    H4936005   1.546   2.455   2.830  1.6200 -1.2340 -2.4616
  179MOL    H5036006   1.709   2.639   2.580 -2.3158  0.8529  0.2533
  179MOL    H5136007   1.718   2.530   2.715  2.9203  1.5679 -1.0613
  179MOL    C5236008   1.369   2.397   2.720 -0.4147  0.2210 -0.4051
  179MOL    C5336009   1.438   2.262   2.687  0.7438 -0.0251  0.2129
  179MOL    C5436010   1.496   2.253   2.552  0.5770 -0.5942 -0.3469
  179MOL    O5536011   1.570   2.158   2.523  0.1802 -0.1680 -0.0602
  179MOL    N5636012   1.466   2.348   2.461  0.1810 -0.2840 -0.1495
  179MOL    H5736013   1.301   2.436   2.645 -1.3560  1.2030  0.9232
  179MOL    H5836014   1.303   2.381   2.805  3.1279 -2.3415  2.0457
  179MOL    H5936015   1.524   2.232   2.747 -0.9744 -1.1733  2.1645
  179MOL    H6036016   1.391   2.414   2.473  2.3912  2.1200  1.0809
  179MOL    H6136017   1.492   2.335   2.365  0.9601  0.3646 -0.0332
  179MOL    C6236018   1.330   2.149   2.718  0.0071 -0.3689  0.2240
  179MOL    C6336019   1.278   2.134   2.861 -0.3815  0.0699 -0.3016
  179MOL    C6436020   1.386   2.135   2.975 -0.2539  0.4586  0.4657
  179MOL    O6536021   1.496   2.078   2.962  0.2841 -0.5023 -0.2623
  179MOL    N6636022   1.351   2.182   3.094  0.1262 -0.1718  0.8054
  179MOL    H6736023   1.387   2.057   2.698  0.3196  0.1349 -1.3158
  179MOL    H6836024   1.256   2.152   2.638  0.1125  0.7726  0.1651
  179MOL    H6936025   1.217   2.222   2.881 -0.4202  0.4466 -2.0008
  179MOL    H7036026   1.259   2.220   3.114  0.7318  1.6752  0.1386
  179MOL    H7136027   1.424   2.168   3.162 -0.6435  1.6666  2.0493
  179MOL    C7236028   1.177   2.015   2.867  0.1385  0.0576  0.5349
  179MOL    C7336029   1.056   2.045   2.947  0.4363 -0.4664  0.7547
  179MOL    C7436030   1.047   1.977   3.083  0.2420  0.3972  0.3395
  179MOL    O7536031   1.035   1.857   3.090  0.1092  0.0782 -0.0689
  179MOL    N7636032   1.031   2.047   3.194  0.2790  0.0510 -0.2080
  179MOL    H7736033   1.234   1.934   2.911 -0.5482 -0.0453  1.2580
  179MOL    H7836034   1.149   1.978   2.769  0.8890  1.2355 -0.1305
  179MOL    H7936035   1.058   2.151   2.972  1.2521 -0.7981  2.1339
  179MOL    H8036036   1.028   2.003   3.285  1.0372  2.4179  0.9963
  179MOL    H8136037   1.042   2.148   3.191 -1.3040  0.2777  0.7811
  179MOL    C8236038   0.922   2.014   2.878  0.5673 -0.3562 -0.2987
  179MOL    C8336039   0.899   2.085   2.745  0.5153 -0.0974  0.5151
  179MOL    C8436040   0.889   2.239   2.767  0.3657 -0.3625  0.2609
  179MOL    O8536041   0.830   2.284   2.865 -1.1685  0.6521  0.1132
  179MOL    N8636042   0.945   2.323   2.681  0.0103  0.2688  0.3324
  179MOL    H8736043   0.840   2.045   2.943  0.4160  0.5647 -0.9246
  179MOL    H8836044   0.915   1.906   2.871 -0.5096 -0.3672  0.7588
  179MOL    H8936045   0.985   2.064   2.681 -0.8119 -3.4419 -0.2990
  179MOL    H9036046   0.984   2.285   2.596 -1.4135 -0.7605  0.1265
  179MOL    H9136047   0.954   2.422   2.696  0.3270  0.7690 -2.8454
  179MOL    C9236048   0.778   2.030   2.668  0.1050  0.3849 -0.1841
  179MOL    C9336049   0.638   2.103   2.679  0.3116 -0.1261 -0.0746
  179MOL    C9436050   0.572   2.092   2.816  0.2206  0.5915  0.5350
  179MOL    O9536051   0.554   1.986   2.864 -0.1635  0.5719 -0.2776
  179MOL    N9636052   0.518   2.201   2.871  0.0918  0.2756 -0.2549
  179MOL    H9736053   0.774   1.922   2.684  0.3860  0.6246  1.6195
  179MOL    H9836054   0.789   2.041   2.561 -1.2311 -3.0514 -0.7353
  179MOL    H9936055   0.651   2.210   2.661  1.9667 -0.5171 -1.3171
  179MOL   H10036056   0.476   2.212   2.962 -0.1089  2.4756 -0.5739
  179MOL   H10136057   0.513   2.285   2.815  1.6853 -0.2214 -1.1768
  179MOL   C10236058   0.542   2.062   2.569  0.7485 -0.4949  0.8233
  179MOL   C10336059   0.489   1.912   2.567 -0.3578  0.3285  0.4027
  179MOL   C10436060   0.592   1.808   2.539 -0.1366  0.0163 -0.4440
  179MOL   O10536061   0.648   1.805   2.429  0.3793  0.5311 -0.7333
  179MOL   N10636062   0.610   1.707   2.616 -0.0017  0.1613 -0.6624
  179MOL   H10736063   0.594   2.076   2.474  1.1980  1.0306  1.2779
  179MOL   H10836064   0.458   2.130   2.562  1.9541  0.8638 -1.0710
  179MOL   H10936065   0.453   1.886   2.667 -0.2196  2.3275  0.9884
  179MOL   H11036066   0.571   1.718   2.709 -0.6342 -0.2635 -0.8743
  179MOL   H11136067   0.662   1.622   2.597 -0.7730 -0.3070 -0.6991
  179MOL   C11236068   0.382   1.895   2.450 -0.8151  0.4904  0.4646
  179MOL   C11336069   0.240   1.943   2.482 -0.2460  0.2007 -0.4324
  179MOL   C11436070   0.194   1.908   2.623  0.0388 -0.1037 -0.1919
  179MOL   O11536071   0.179   1.793   2.658  0.2012  0.0099 -0.0265
  179MOL   N11636072   0.177   2.001   2.718  0.0833  0.1118  0.0828
  179MOL   H11736073   0.376   1.786   2.445 -0.1326  0.4562  0.3105
  179MOL   H11836074   0.423   1.945   2.363 -0.0104 -0.7528  0.1054
  179MOL   H11936075   0.240   2.052   2.489  0.4484  0.0799  1.7722
  179MOL   H12036076   0.194   2.101   2.713 -0.3179  0.2221  0.7514
  179MOL   H12136077   0.162   1.968   2.812  1.1849  1.3599  0.7155
  179MOL   C12236078   0.152   1.879   2.373 -0.2370 -0.5089 -0.6363
  179MOL   C12336079   7.652   1.919   2.383 -0.2479 -0.3233  0.0009
  179MOL   C12436080   7.564   1.792   2.400  0.7462  1.0328  0.6943
  179MOL   O12536081   7.553   1.707   2.313  0.1031 -0.2148  0.0490
  179MOL   N12636082   7.495   1.787   2.512  0.5828  0.1076 -0.3443
  179MOL   H12736083   0.146   1.772   2.390 -0.9365 -0.5603 -1.1795
  179MOL   H12836084   0.185   1.905   2.273 -2.1748  0.9808 -0.9318
  179MOL   H12936085   7.632   1.987   2.465 -2.0887 -0.5699 -0.2334
  179MOL   H13036086   7.493   1.847   2.593 -2.3525 -0.6935  0.2442
  179MOL   H13136087   7.433   1.707   2.517  0.8906 -0.0385  1.4161
  179MOL   C13236088   7.604   2.001   2.266  0.1154  0.0969 -0.1408
  179MOL   C13336089   7.452   2.052   2.281  0.1903  0.2937  0.5452
  179MOL   C13436090   7.387   2.096   2.144 -0.3243 -0.0252  0.2518
  179MOL   O13536091   7.365   2.215   2.120 -0.5341  0.4738 -0.2301
  179MOL   N13636092   7.360   2.003   2.051 -0.3404  0.2195 -0.5446
  179MOL   H13736093   7.622   1.937   2.179  0.9254  0.1680 -0.0248
  179MOL   H13836094   0.011   2.085   2.238 -0.2714 -0.0238 -1.4337
  179MOL   H13936095   7.396   1.961   2.301 -1.2547  1.4650  1.8945
  179MOL   H14036096   7.326   2.034   1.961  1.0380  1.2188 -0.7347
  179MOL   H14136097   7.390   1.907   2.064  1.9734  1.0733  0.8047
  179MOL   C14236098   7.436   2.163   2.392 -0.6998 -0.0231 -0.0278
  179MOL   C14336099   7.369   2.122   2.520 -0.2945 -0.2492  0.4047
  179MOL   C14436100   7.217   2.110   2.493 -0.3574 -0.0513 -0.6562
  179MOL   O14536101   7.142   2.209   2.482 -0.4422  0.1948  0.3968
  179MOL   N14636102   7.157   1.985   2.480 -0.1212  0.2119 -0.7159
  179MOL   H14736103   7.375   2.245   2.355  1.1270  1.2922 -0.2115
  179MOL   H14836104   7.532   2.207   2.418 -0.2871 -2.1924  2.2816
  179MOL   H14936105   7.412   2.027   2.553  0.0200 -0.8284 -1.6252
  179MOL   H15036106   7.057   1.977   2.465 -0.1690 -0.5766 -0.0005
  179MOL   H15136107   7.206   1.898   2.469 -0.2764 -0.1578  1.3846
  179MOL   C15236108   7.409   2.214   2.628 -0.5188  0.6940  0.4647
  179MOL   C15336109   7.405   2.166   2.772  0.4825  0.8429 -0.2184
  179MOL   C15436110   7.505   2.049   2.808  0.2323  0.3602  0.3371
  179MOL   O15536111   7.487   1.934   2.762 -0.3282 -0.4949 -0.2501
  179MOL   N15636112   7.606   2.077   2.884  0.0197 -0.0770 -0.4061
  179MOL   H15736113   7.366   2.313   2.611 -0.0822  0.8096  0.0252
  179MOL   H15836114   7.516   2.227   2.616 -0.3725  0.3319  1.3509
  179MOL   H15936115   7.438   2.248   2.835  1.6967 -0.8065  1.3512
  179MOL   H16036116   7.632   2.172   2.908 -1.0415  0.3367 -0.8862
  179MOL   H16136117   0.017   2.004   2.902  2.2048  1.9662 -0.1921
  179MOL   C16236118   7.264   2.128   2.834 -0.0862 -0.3616  0.0043
  179MOL   C16336119   7.144   2.226   2.817  0.4804  0.6501 -0.1711
  179MOL   C16436120   7.191   2.375   2.858 -0.2540 -0.4333  0.4901
  179MOL   O16536121   7.197   2.407   2.973 -0.0987 -0.0880 -0.0286
  179MOL   N16636122   7.212   2.464   2.758 -0.1039 -0.4683  0.0348
  179MOL   H16736123   7.282   2.109   2.939  0.7746 -0.3475 -0.1420
  179MOL   H16836124   7.233   2.032   2.793 -1.0044  1.3708 -3.6031
  179MOL   H16936125   7.101   2.215   2.717 -2.5172 -1.4609  1.2816
  179MOL   H17036126   7.211   2.419   2.667 -2.9058  0.3567 -0.3820
  179MOL   H17136127   7.238   2.561   2.768  0.5274 -0.8156  1.8421
  179MOL   C17236128   7.023   2.187   2.905 -1.0009 -0.2539  0.9283
  179MOL   C17336129   6.893   2.278   2.900 -0.1788 -0.1082 -0.4171
  179MOL   C17436130   6.825   2.236   3.028  0.2508  0.2903  0.2101
  179MOL   O17536131   6.804   2.116   3.047 -0.2675 -0.0015  0.4623
  179MOL   N17636132   6.795   2.333   3.114  0.4047  0.3135 -0.0984
  179MOL   H17736133   7.048   2.184   3.011  1.2329  0.5807  0.4618
  179MOL   H17836134   6.997   2.085   2.875 -3.0153  0.5794 -0.1901
  179MOL   H17936135   6.927   2.382   2.906 -0.5948 -0.0602  1.4642
  179MOL   H18036136   6.721   2.325   3.183 -1.0878  1.2739 -1.5472
  179MOL   H18136137   6.809   2.428   3.082  2.2204  0.4102  0.9480
  179MOL   C18236138   6.813   2.258   2.772  0.5033  0.0831 -0.0820
  179MOL   C18336139   6.754   2.401   2.732 -0.0955  0.0000 -0.3385
  179MOL   C18436140   6.603   2.416   2.770  0.5972 -1.0066  0.5852
  179MOL   O18536141   6.571   2.415   2.884  0.4226 -0.2944  0.0149
  179MOL   N18636142   6.503   2.411   2.677  0.3026 -0.2637 -0.1055
  179MOL   H18736143   6.729   2.195   2.800  0.4802  0.7652  1.4085
  179MOL   H18836144   6.867   2.204   2.694 -0.2516  1.5903 -1.7022
  179MOL   H18936145   6.799   2.477   2.795 -0.9400  0.7778 -0.6711
  179MOL   H19036146   6.404   2.407   2.693 -0.0266  1.4097 -1.6331
  179MOL   H19136147   6.528   2.382   2.583  0.3357 -1.0704  0.1436
  179MOL   C19236148   6.784   2.440   2.584  0.2490 -0.3733  0.5825
  179MOL   C19336149   6.928   2.498   2.554  0.0702 -1.0699 -0.2957
  179MOL   C19436150   6.944   2.546   2.409 -0.9689 -0.7165 -0.3373
  179MOL   O19536151   6.910   2.658   2.375 -0.3037 -0.1245  0.3366
  179MOL   N19636152   7.003   2.461   2.329  0.8454  0.3135  0.0539
  179MOL   H19736153   6.703   2.505   2.550  2.0957  1.1249 -1.0652
  179MOL   H19836154   6.765   2.353   2.522 -3.3502  0.7495  0.0077
  179MOL   H19936155   6.945   2.587   2.615 -1.0029  0.7397 -2.6123
  179MOL   H20036156   7.037   2.372   2.362 -0.3686  0.1147  0.8169
  179MOL   H20136157   7.031   2.491   2.237 -0.9861  1.3809 -0.1841
  179MOL   H20236158   7.008   2.424   2.566  0.7180 -0.4504 -0.7817
  180MOL     C136159   4.458   3.986   1.067  0.2577  0.1309 -0.4327
  180MOL     C236160   4.452   3.920   1.206  0.9946 -0.7444  0.5237
  180MOL     C336161   4.385   4.031   1.294  0.4920  0.2402  0.6365
  180MOL     O436162   4.435   4.144   1.297  0.1572  0.0608  0.1191
  180MOL     N536163   4.282   3.996   1.368 -0.1749  0.2909  0.3250
  180MOL     H636164   4.507   3.925   0.992 -0.9431 -1.9664  0.4587
  180MOL     H736165   4.361   4.003   1.018  0.4411 -0.2673 -0.9377
  180MOL     H836166   4.382   3.837   1.191  0.2687  0.0035 -0.3310
  180MOL     H936167   4.255   3.899   1.370 -0.9951  0.4177 -2.7648
  180MOL    H1036168   4.218   4.060   1.412  1.7480  2.4973  0.0654
  180MOL    H1136169   4.515   4.079   1.071 -0.8851  0.9082 -1.5777
  180MOL    C1236170   4.590   3.854   1.259 -0.2819  0.0568 -0.0139
  180MOL    C1336171   4.722   3.935   1.284  0.5169  0.1713 -0.3060
  180MOL    C1436172   4.771   4.009   1.164  0.2306  0.1899  0.2043
  180MOL    O1536173   4.788   3.950   1.057  0.2481 -0.2665  0.0186
  180MOL    N1636174   4.786   4.138   1.172 -0.0634  0.2353 -0.2406
  180MOL    H1736175   4.614   3.776   1.187  1.1439 -0.2444  0.7760
  180MOL    H1836176   4.559   3.801   1.350 -1.4915  0.3571 -0.2452
  180MOL    H1936177   4.697   4.006   1.362  2.1953  0.0722  0.3321
  180MOL    H2036178   4.790   4.174   1.078  0.7565  0.8369  0.0050
  180MOL    H2136179   4.770   4.195   1.254 -0.5674  0.2237 -0.3288
  180MOL    C2236180   4.828   3.827   1.333 -0.1005  0.1200  0.2136
  180MOL    C2336181   4.979   3.863   1.339  0.2294  0.0104 -0.9491
  180MOL    C2436182   5.055   3.739   1.374 -0.9168  0.1320 -0.0889
  180MOL    O2536183   5.062   3.698   1.488  0.0788  0.3447 -0.4409
  180MOL    N2636184   5.116   3.672   1.277  0.0166  0.1755 -0.4219
  180MOL    H2736185   4.819   3.739   1.270 -1.1739  1.7511 -1.9666
  180MOL    H2836186   4.794   3.783   1.427  0.2817  0.2266  0.4014
  180MOL    H2936187   5.000   3.885   1.234  1.3270  0.6406 -0.6012
  180MOL    H3036188   5.155   3.581   1.296 -2.3188 -1.1020 -1.5014
  180MOL    H3136189   5.110   3.697   1.179  3.3869 -1.1301 -1.0273
  180MOL    C3236190   5.013   3.984   1.440  0.1527  0.0919  0.0050
  180MOL    C3336191   5.112   4.097   1.392  0.2774 -0.3736 -0.2236
  180MOL    C3436192   5.259   4.048   1.381  0.2549 -0.3001 -0.4982
  180MOL    O3536193   5.335   4.036   1.477 -0.0750 -0.2118 -0.4824
  180MOL    N3636194   5.291   4.021   1.256  0.0816  0.3443 -0.1346
  180MOL    H3736195   5.056   3.953   1.536  0.9149 -0.2311 -0.4343
  180MOL    H3836196   4.923   4.034   1.475 -0.1383  2.0713 -3.3637
  180MOL    H3936197   5.081   4.132   1.293 -0.8610 -1.0609 -0.1174
  180MOL    H4036198   5.377   3.979   1.222 -1.2084 -0.8249 -2.0059
  180MOL    H4136199   5.219   4.035   1.186  0.9505  0.1742 -1.0819
  180MOL    C4236200   5.103   4.223   1.493 -0.5746 -0.6397  0.6824
  180MOL    C4336201   4.991   4.322   1.461  0.1364  0.4306 -0.2867
  180MOL    C4436202   5.049   4.466   1.426  0.2910 -0.1913 -0.2136
  180MOL    O4536203   5.128   4.529   1.495  0.2238  0.2307 -0.2651
  180MOL    N4636204   5.006   4.519   1.314  0.2712 -0.2497  0.4488
  180MOL    H4736205   5.198   4.275   1.492  0.1241 -1.8902 -1.0317
  180MOL    H4836206   5.104   4.193   1.598  1.8416  1.7680  1.3857
  180MOL    H4936207   4.936   4.273   1.381 -0.0238 -1.7787  1.1341
  180MOL    H5036208   5.054   4.604   1.286 -1.8413  0.7460 -0.2040
  180MOL    H5136209   4.935   4.469   1.263  0.0095  0.0028  0.5688
  180MOL    C5236210   4.897   4.343   1.587 -0.4758 -0.0361 -0.0898
  180MOL    C5336211   4.754   4.405   1.574 -0.2700 -0.4501  0.6264
  180MOL    C5436212   4.683   4.335   1.457 -0.3278 -0.4454 -0.1821
  180MOL    O5536213   4.713   4.361   1.340  0.1082  0.2972  0.0443
  180MOL    N5636214   4.581   4.254   1.486  0.1846  0.1227  0.3409
  180MOL    H5736215   4.949   4.394   1.668 -2.4979  2.1274 -0.1153
  180MOL    H5836216   4.878   4.243   1.627  1.0137 -0.7962 -1.2357
  180MOL    H5936217   4.699   4.394   1.667  0.6392  0.8615  1.3351
  180MOL    H6036218   4.567   4.231   1.583  0.5921 -4.1922 -0.5187
  180MOL    H6136219   4.526   4.211   1.413  0.8810  0.5027 -0.4243
  180MOL    C6236220   4.757   4.558   1.553  0.0822 -0.6519 -0.7292
  180MOL    C6336221   4.630   4.639   1.594 -0.3403  0.2823  0.0545
  180MOL    C6436222   4.603   4.639   1.750 -0.2543  0.4569 -0.2409
  180MOL    O6536223   4.699   4.629   1.827 -0.3273 -0.2781 -0.1904
  180MOL    N6636224   4.485   4.661   1.803 -0.3503 -0.2082  0.3342
  180MOL    H6736225   4.781   4.587   1.450  0.4101 -0.2590 -0.5414
  180MOL    H6836226   4.838   4.598   1.613 -1.1188  1.6339 -0.5772
  180MOL    H6936227   4.670   4.741   1.587 -0.1260  0.2334  0.5075
  180MOL    H7036228   4.401   4.665   1.748 -0.9444  0.2451  1.2622
  180MOL    H7136229   4.478   4.657   1.904  0.7024  1.1201  0.4825
  180MOL    C7236230   4.502   4.635   1.509  0.1279  1.0128  0.5123
  180MOL    C7336231   4.525   4.702   1.361  0.9713 -0.2536 -0.8419
  180MOL    C7436232   4.552   4.854   1.385  0.7395 -0.4079  0.5349
  180MOL    O7536233   4.473   4.922   1.452 -0.7033 -0.0906 -0.9972
  180MOL    N7636234   4.644   4.916   1.314  0.1991  0.0794  0.8620
  180MOL    H7736235   4.424   4.693   1.558 -1.5013 -1.0868  0.4614
  180MOL    H7836236   4.453   4.538   1.510  0.1775  0.9636 -0.5875
  180MOL    H7936237   4.612   4.648   1.323 -0.0409 -1.0337 -2.1013
  180MOL    H8036238   4.684   5.001   1.351  0.6757  1.5896 -2.8799
  180MOL    H8136239   4.707   4.868   1.250  0.2637  0.8985  0.3032
  180MOL    C8236240   4.392   4.679   1.279  0.4318 -0.0928  0.3093
  180MOL    C8336241   4.398   4.554   1.194 -0.3800 -0.0061 -0.0457
  180MOL    C8436242   4.509   4.582   1.084 -0.3861 -0.1179  0.1786
  180MOL    O8536243   4.483   4.654   0.980 -0.1929  0.1827  0.3068
  180MOL    N8636244   4.632   4.522   1.104  0.2361 -0.3912 -0.6385
  180MOL    H8736245   4.368   4.763   1.213  0.1552 -0.2840  0.1654
  180MOL    H8836246   4.305   4.673   1.343  0.7166 -2.8372  0.4815
  180MOL    H8936247   4.446   4.477   1.254  0.1099 -0.5015 -1.0585
  180MOL    H9036248   4.700   4.538   1.031  1.4472 -0.2277  0.5263
  180MOL    H9136249   4.654   4.474   1.189 -0.2430  0.4368 -0.0386
  180MOL    C9236250   4.266   4.508   1.135  0.0404 -0.3898  0.1973
  180MOL    C9336251   4.253   4.366   1.078 -0.3770 -0.0678 -0.3171
  180MOL    C9436252   4.252   4.366   0.921 -0.7451  0.5505  0.4391
  180MOL    O9536253   4.168   4.440   0.864  0.1766  0.2641  0.3120
  180MOL    N9636254   4.346   4.302   0.854 -0.8874 -0.6668  0.1519
  180MOL    H9736255   4.218   4.585   1.075  1.9878  0.5901 -0.1326
  180MOL    H9836256   4.191   4.510   1.215 -0.8023  1.9473 -0.5932
  180MOL    H9936257   4.346   4.317   1.106 -1.2033 -2.0491 -0.9496
  180MOL   H10036258   4.344   4.303   0.753  0.5798 -0.4553  0.1076
  180MOL   H10136259   4.425   4.269   0.908  0.6152 -0.2194 -1.7098
  180MOL   C10236260   4.145   4.277   1.139 -0.1275 -0.7560 -0.4005
  180MOL   C10336261   4.001   4.287   1.080 -0.0493  0.6452 -0.1111
  180MOL   C10436262   3.934   4.411   1.130  0.7863  0.1824 -0.0658
  180MOL   O10536263   3.944   4.439   1.250 -0.1085 -0.1102  0.3059
  180MOL   N10636264   3.868   4.479   1.036 -0.5953 -0.1966 -0.1730
  180MOL   H10736265   4.141   4.287   1.247  0.7707  4.0770 -0.6961
  180MOL   H10836266   4.183   4.177   1.121  0.7349 -0.6922  0.9658
  180MOL   H10936267   4.010   4.275   0.972  1.9925 -0.0479  0.1122
  180MOL   H11036268   3.865   4.437   0.944  1.7143 -0.4260 -0.1808
  180MOL   H11136269   3.800   4.551   1.056 -0.8013 -0.2532 -0.6752
  180MOL   C11236270   3.930   4.155   1.131  0.2497 -0.5819 -0.4978
  180MOL   C11336271   3.776   4.160   1.118 -0.2372 -0.1472  0.1071
  180MOL   C11436272   3.687   4.209   1.233  0.8541  0.1623  0.0939
  180MOL   O11536273   3.696   4.162   1.342 -0.2955  0.0945 -0.6608
  180MOL   N11636274   3.599   4.304   1.218 -0.2434  0.0791 -0.3906
  180MOL   H11736275   3.960   4.147   1.235  0.5070  0.6927 -0.4712
  180MOL   H11836276   3.972   4.073   1.073  0.2403 -1.4353  0.6835
  180MOL   H11936277   3.756   4.226   1.033 -2.0704 -1.4009 -0.4601
  180MOL   H12036278   3.569   4.340   1.128 -1.0027 -1.2954 -0.6997
  180MOL   H12136279   3.552   4.330   1.304  1.2152  0.3590  0.3334
  180MOL   C12236280   3.715   4.014   1.092 -0.7028 -0.6881 -0.8046
  180MOL   C12336281   3.588   4.019   1.006 -0.2817 -0.1007 -0.7705
  180MOL   C12436282   3.490   3.900   1.041 -0.1776 -0.9002 -0.8369
  180MOL   O12536283   3.449   3.820   0.960 -0.1098  0.0793  0.1797
  180MOL   N12636284   3.432   3.898   1.161  0.1920  0.4961  0.1099
  180MOL   H12736285   3.700   3.959   1.185 -2.1486  2.7315  1.0633
  180MOL   H12836286   3.787   3.952   1.038 -0.6350  0.4522 -2.0450
  180MOL   H12936287   3.528   4.107   1.028  0.2392  0.1264 -0.2587
  180MOL   H13036288   3.436   3.979   1.221 -0.7962  1.4249 -1.0576
  180MOL   H13136289   3.372   3.819   1.178  0.6502  0.4346  1.5547
  180MOL   C13236290   3.614   4.037   0.856 -1.1325  0.1311 -0.2025
  180MOL   C13336291   3.537   4.153   0.782  0.1315 -0.0644  0.2057
  180MOL   C13436292   3.549   4.295   0.843 -0.1438 -0.4207 -0.2364
  180MOL   O13536293   3.481   4.338   0.934  0.3168  0.1434 -0.5266
  180MOL   N13636294   3.638   4.372   0.789  0.6777 -0.2778  0.4132
  180MOL   H13736295   3.600   3.945   0.801 -1.7282  0.2182 -0.1968
  180MOL   H13836296   3.721   4.052   0.841 -1.3082  0.9616 -0.6524
  180MOL   H13936297   3.586   4.151   0.684 -0.5217  0.0598 -0.1255
  180MOL   H14036298   3.705   4.343   0.719 -0.9919  1.2980 -1.9061
  180MOL   H14136299   3.662   4.452   0.847  0.5846  0.4664 -0.5518
  180MOL   C14236300   3.389   4.112   0.768 -0.1468 -0.3106 -0.3748
  180MOL   C14336301   3.307   4.157   0.646 -0.3687  0.2120  0.2751
  180MOL   C14436302   3.279   4.305   0.640 -0.3583  0.2832  0.3724
  180MOL   O14536303   3.176   4.358   0.683 -0.1874  0.3022 -0.3659
  180MOL   N14636304   3.372   4.380   0.585  0.2426 -0.0323  0.7298
  180MOL   H14736305   3.343   4.135   0.865 -2.6195  1.8349 -1.9686
  180MOL   H14836306   3.388   4.003   0.768 -0.1380 -0.3262  1.2954
  180MOL   H14936307   3.369   4.130   0.561 -1.3227  1.4772 -0.8396
  180MOL   H15036308   3.355   4.480   0.577 -0.1342 -0.0793  0.8987
  180MOL   H15136309   3.466   4.348   0.570 -1.0564 -2.6967 -2.1514
  180MOL   C15236310   3.170   4.077   0.645  0.2892 -0.2882 -0.5197
  180MOL   C15336311   3.177   3.927   0.593  0.1491  0.7692  0.7281
  180MOL   C15436312   3.172   3.928   0.439 -0.3117 -0.4102 -0.1515
  180MOL   O15536313   3.066   3.930   0.375  0.1170 -0.4030  0.9408
  180MOL   N15636314   3.288   3.937   0.375 -0.4145  0.2941 -0.7213
  180MOL   H15736315   3.092   4.128   0.588  1.6284  2.0078 -0.3341
  180MOL   H15836316   3.138   4.067   0.748 -0.1012 -1.8084 -0.7659
  180MOL   H15936317   3.277   3.891   0.618 -0.4579 -1.3826  0.1618
  180MOL   H16036318   3.373   3.946   0.429 -0.3064 -1.9751 -0.4876
  180MOL   H16136319   3.298   3.948   0.275  1.8116 -0.5375 -0.6090
  180MOL   C16236320   3.062   3.840   0.654  0.2191  0.1573  0.1520
  180MOL   C16336321   3.116   3.762   0.775 -0.1311  0.0604  0.1260
  180MOL   C16436322   3.215   3.657   0.722 -0.1155  0.6089  0.3439
  180MOL   O16536323   3.179   3.560   0.658 -0.2658 -0.1236  0.2600
  180MOL   N16636324   3.346   3.666   0.748 -0.1071 -0.1468  0.5293
  180MOL   H16736325   3.009   3.773   0.585  2.0782  0.1727 -1.3414
  180MOL   H16836326   2.986   3.909   0.689 -0.1028 -0.0815 -0.0713
  180MOL   H16936327   3.171   3.834   0.836  1.0214 -0.3767 -0.3809
  180MOL   H17036328   3.377   3.726   0.824  0.1158  1.4664 -0.7896
  180MOL   H17136329   3.406   3.601   0.700  0.6288 -0.1568  1.4283
  180MOL   C17236330   3.000   3.704   0.861 -0.4463 -0.2282 -0.2688
  180MOL   C17336331   3.044   3.601   0.967 -0.2282  0.6721 -0.7280
  180MOL   C17436332   2.916   3.521   1.007  0.4435 -0.0559 -0.3022
  180MOL   O17536333   2.861   3.519   1.117  0.6025 -0.0935 -0.1392
  180MOL   N17636334   2.861   3.450   0.913  0.0259 -0.2193  0.2509
  180MOL   H17736335   2.918   3.670   0.798 -0.8790 -0.6113  0.4858
  180MOL   H17836336   2.964   3.790   0.917 -0.0967 -0.9984  1.1709
  180MOL   H17936337   3.114   3.527   0.928 -0.1618  0.1455  0.3713
  180MOL   H18036338   2.780   3.397   0.940  1.4313 -1.2933  2.4724
  180MOL   H18136339   2.880   3.456   0.814 -1.3943 -0.4759 -0.0436
  180MOL   C18236340   3.114   3.665   1.089 -1.0899  0.0105  0.4362
  180MOL   C18336341   3.187   3.563   1.172  0.2911 -0.5801  0.0541
  180MOL   C18436342   3.203   3.611   1.315  0.4602 -0.0197  0.2812
  180MOL   O18536343   3.261   3.718   1.348 -0.4878  0.3897  0.1427
  180MOL   N18636344   3.141   3.543   1.409  0.4042 -0.2329 -0.2009
  180MOL   H18736345   3.034   3.711   1.147 -1.1495 -1.3451  1.4329
  180MOL   H18836346   3.179   3.748   1.060  2.0050 -2.3889  0.2022
  180MOL   H18936347   3.141   3.464   1.172 -0.5237 -0.2041  0.4342
  180MOL   H19036348   3.117   3.595   1.493  1.2566 -1.6591  0.9454
  180MOL   H19136349   3.089   3.457   1.398  1.1843 -0.8573  0.8765
  180MOL   C19236350   3.329   3.530   1.115  0.3217  0.6944 -0.1747
  180MOL   C19336351   3.374   3.393   1.165 -0.3291  0.0370 -0.0883
  180MOL   C19436352   3.349   3.276   1.079  0.8572 -0.4838  0.3382
  180MOL   O19536353   3.401   3.261   0.974 -0.3435  0.1310 -0.3549
  180MOL   N19636354   3.263   3.192   1.136 -0.8928 -0.6984 -0.4513
  180MOL   H19736355   3.385   3.613   1.158 -0.8123  2.7256 -2.4980
  180MOL   H19836356   3.344   3.549   1.009  0.9725 -2.5659 -0.7169
  180MOL   H19936357   3.483   3.395   1.163 -0.3377  0.1982 -0.3050
  180MOL   H20036358   3.196   3.223   1.205  0.3477  2.0692 -0.4502
  180MOL   H20136359   3.236   3.111   1.081 -0.5117  0.0694 -1.7906
  180MOL   H20236360   3.352   3.379   1.271  0.1800  2.0067  0.3057
  181MOL     C136361   0.016   6.730   4.699 -0.2529  0.1522  0.9995
  181MOL     C236362   7.562   6.709   4.803  0.6209  0.2560  0.5419
  181MOL     C336363   7.577   6.800   4.926 -0.5103  0.1504  0.2665
  181MOL     O436364   0.012   6.786   5.003  0.5370 -0.1512  0.4457
  181MOL     N536365   7.481   6.889   4.955 -0.2929  0.4278 -0.4985
  181MOL     H636366   7.633   6.682   4.609  1.6813  0.6601 -0.1516
  181MOL     H736367   0.016   6.836   4.673  0.2061  0.0435  0.5386
  181MOL     H836368   7.471   6.755   4.763  1.0762  0.3713 -0.3685
  181MOL     H936369   7.498   6.937   5.042  0.4198  0.6461 -0.7563
  181MOL    H1036370   7.395   6.894   4.903 -1.7534  2.0878  1.9649
  181MOL    H1136371   0.113   6.694   4.732  0.9711  1.5899 -0.9282
  181MOL    C1236372   7.543   6.562   4.839 -0.3637  1.2108  0.3535
  181MOL    C1336373   7.479   6.461   4.748  0.6415  0.4188 -0.1612
  181MOL    C1436374   7.342   6.516   4.694 -1.3926 -0.4951 -0.0675
  181MOL    O1536375   7.266   6.582   4.760 -0.0378 -0.0291  0.0562
  181MOL    N1636376   7.317   6.490   4.567 -0.2224 -0.0831  0.5382
  181MOL    H1736377   7.489   6.561   4.934 -0.1275  0.4163  0.4803
  181MOL    H1836378   7.645   6.530   4.859 -1.2511 -1.2152  1.1761
  181MOL    H1936379   7.545   6.449   4.662  2.0957  1.2494  0.8169
  181MOL    H2036380   7.223   6.502   4.532  0.0426  2.9263  0.7709
  181MOL    H2136381   7.378   6.416   4.534 -0.4860 -0.4014  0.7530
  181MOL    C2236382   7.460   6.321   4.814 -0.9520 -0.7173  0.6949
  181MOL    C2336383   7.429   6.193   4.732 -0.2328  0.7804  0.0801
  181MOL    C2436384   7.501   6.189   4.600  0.2303 -0.2807  0.3846
  181MOL    O2536385   7.446   6.250   4.508  0.0436 -0.1207  0.3046
  181MOL    N2636386   7.617   6.129   4.570  0.4219 -0.3926  0.2751
  181MOL    H2736387   7.399   6.337   4.903  1.5600 -1.4070  2.6185
  181MOL    H2836388   7.557   6.299   4.859 -0.4805  0.7478  0.4147
  181MOL    H2936389   7.476   6.114   4.790 -2.0060 -0.8938 -0.6810
  181MOL    H3036390   0.013   6.080   4.641  0.6083  1.5272  1.4770
  181MOL    H3136391   7.643   6.131   4.472 -1.9196 -0.5659 -0.3852
  181MOL    C3236392   7.275   6.154   4.724 -0.2009  0.3262  0.0606
  181MOL    C3336393   7.186   6.153   4.854 -0.9225 -0.0705 -0.3800
  181MOL    C3436394   7.250   6.081   4.977  0.1007 -0.4041  0.0150
  181MOL    O3536395   7.320   5.984   4.954 -0.4462 -0.3222 -1.0341
  181MOL    N3636396   7.228   6.124   5.099  0.4948 -0.1669 -0.4167
  181MOL    H3736397   7.279   6.053   4.682  2.8302  0.5275 -0.2681
  181MOL    H3836398   7.209   6.208   4.655 -1.3329 -0.1721  0.7427
  181MOL    H3936399   7.175   6.260   4.875  0.0525  0.2167 -1.3018
  181MOL    H4036400   7.263   6.074   5.179 -1.3095 -0.3941  0.2507
  181MOL    H4136401   7.169   6.205   5.111  2.3986  1.4118 -1.2152
  181MOL    C4236402   7.044   6.104   4.823  0.1066  0.3646 -0.3804
  181MOL    C4336403   6.937   6.160   4.920  0.3089 -0.3551  0.5383
  181MOL    C4436404   6.829   6.053   4.923  0.0629 -0.8292 -0.1924
  181MOL    O4536405   6.846   5.948   4.987  0.0017 -0.2980  0.3546
  181MOL    N4636406   6.727   6.068   4.849  0.7474 -0.3500  0.1326
  181MOL    H4736407   7.043   5.995   4.828  0.9901  0.4562  3.4649
  181MOL    H4836408   7.007   6.133   4.725 -0.0835  0.0554 -0.4015
  181MOL    H4936409   6.978   6.152   5.021 -2.9507  1.0371  2.0334
  181MOL    H5036410   6.671   5.985   4.837  2.2353 -1.4573  0.7043
  181MOL    H5136411   6.705   6.156   4.804  1.7274 -0.0508  0.2212
  181MOL    C5236412   6.872   6.297   4.891 -0.7841 -0.6586  0.2987
  181MOL    C5336413   6.956   6.431   4.907 -0.2657  0.4469  0.1540
  181MOL    C5436414   7.058   6.437   5.024  0.4660 -0.3859 -0.2637
  181MOL    O5536415   7.041   6.366   5.123  0.1475  0.3470  0.1249
  181MOL    N5636416   7.162   6.515   5.016  0.2738 -0.2294 -0.1047
  181MOL    H5736417   6.779   6.313   4.946 -0.3045 -2.8113  1.7837
  181MOL    H5836418   6.825   6.296   4.793 -0.8574 -0.2445  0.3280
  181MOL    H5936419   7.003   6.442   4.810 -0.1854 -0.7403  0.0541
  181MOL    H6036420   7.187   6.544   4.922  0.1060 -1.1997 -0.4482
  181MOL    H6136421   7.221   6.553   5.088  1.2522 -1.2864 -0.3439
  181MOL    C6236422   6.864   6.556   4.915  0.3521  0.0704 -0.0453
  181MOL    C6336423   6.789   6.562   5.047  0.7505 -0.3757 -0.3422
  181MOL    C6436424   6.637   6.581   5.025 -0.2131 -0.8611  0.7440
  181MOL    O6536425   6.594   6.657   4.941  0.2556  0.6162  0.5476
  181MOL    N6636426   6.549   6.516   5.096  0.1661 -0.5467 -0.1187
  181MOL    H6736427   6.805   6.548   4.824 -0.1363  1.0692  0.1810
  181MOL    H6836428   6.917   6.645   4.882 -0.5076  0.1709 -1.1567
  181MOL    H6936429   6.798   6.468   5.101  1.2226  0.4757  1.1084
  181MOL    H7036430   6.581   6.468   5.179 -0.1486  0.9211  0.8657
  181MOL    H7136431   6.453   6.511   5.066 -0.7923 -1.5993  2.9579
  181MOL    C7236432   6.851   6.662   5.154 -0.5351  0.4240 -0.2636
  181MOL    C7336433   6.874   6.809   5.106 -0.1932  0.2561 -0.2361
  181MOL    C7436434   7.023   6.825   5.084  0.5067  0.0265  0.1389
  181MOL    O7536435   7.107   6.822   5.172  0.0596  0.1371  0.4767
  181MOL    N7636436   7.055   6.849   4.958  0.4054  0.8247 -0.1440
  181MOL    H7736437   6.943   6.624   5.197 -2.3588 -1.4693  2.0198
  181MOL    H7836438   6.784   6.662   5.240 -0.8987  0.1810 -0.5458
  181MOL    H7936439   6.812   6.834   5.020  0.3089  0.4015 -0.5597
  181MOL    H8036440   6.984   6.879   4.893  3.0354 -1.2349 -4.2239
  181MOL    H8136441   7.154   6.849   4.937  0.4918  0.8956  0.2626
  181MOL    C8236442   6.821   6.900   5.213 -0.5450  0.2036 -0.4506
  181MOL    C8336443   6.768   7.039   5.167 -0.2810 -0.7752  0.0558
  181MOL    C8436444   6.885   7.125   5.122  0.1447 -0.2692 -0.1306
  181MOL    O8536445   6.939   7.209   5.198  0.1696 -0.2452  0.0236
  181MOL    N8636446   6.913   7.131   4.989 -0.1332 -0.0729  0.8061
  181MOL    H8736447   6.901   6.908   5.286 -0.3980  1.2274 -0.7032
  181MOL    H8836448   6.736   6.858   5.268  0.0760  0.2087  0.5298
  181MOL    H8936449   6.693   7.038   5.089 -0.3016  3.2475 -0.1222
  181MOL    H9036450   6.859   7.075   4.924  0.2456 -0.4285  0.7985
  181MOL    H9136451   6.988   7.196   4.970 -0.6486  0.5563  0.8954
  181MOL    C9236452   6.683   7.110   5.276 -0.5523  0.0301  0.7477
  181MOL    C9336453   6.732   7.097   5.418  0.3218  0.5829 -0.4209
  181MOL    C9436454   6.657   6.983   5.486 -0.0546 -0.8040 -0.8487
  181MOL    O9536455   6.535   6.970   5.470  0.3323 -0.4877  0.0946
  181MOL    N9636456   6.719   6.900   5.567 -0.2128 -0.0697 -0.0366
  181MOL    H9736457   6.575   7.098   5.270 -0.8788  3.2285 -1.0457
  181MOL    H9836458   6.682   7.212   5.237 -0.3306 -0.8975 -1.7966
  181MOL    H9936459   6.835   7.063   5.413  1.2080  3.0740  0.5254
  181MOL   H10036460   6.667   6.842   5.631 -0.3777 -1.7242 -1.6159
  181MOL   H10136461   6.812   6.928   5.597 -0.2570 -2.1620  2.2150
  181MOL   C10236462   6.717   7.235   5.486  0.1893 -0.0450  0.3383
  181MOL   C10336463   6.779   7.252   5.623  0.2612  0.4518  0.7677
  181MOL   C10436464   6.725   7.368   5.701 -0.1209 -0.1654  0.1522
  181MOL   O10536465   6.750   7.489   5.680  0.0098  0.4402 -0.7987
  181MOL   N10636466   6.648   7.352   5.804 -0.2480  0.3490  0.3065
  181MOL   H10736467   6.611   7.236   5.512  0.5516  1.4864  1.8918
  181MOL   H10836468   6.719   7.318   5.415 -0.5777  0.3200  0.7405
  181MOL   H10936469   6.744   7.171   5.686 -2.8078  1.3434  0.3081
  181MOL   H11036470   6.612   7.437   5.846 -0.2013  0.7633 -0.4863
  181MOL   H11136471   6.616   7.263   5.839  1.1263 -0.5634 -0.7200
  181MOL   C11236472   6.935   7.275   5.619 -0.2870  0.4481  0.3302
  181MOL   C11336473   7.024   7.219   5.729  0.5366  0.0692  0.8129
  181MOL   C11436474   7.018   7.067   5.747  0.4273  0.3772 -0.9964
  181MOL   O11536475   6.916   7.005   5.797 -0.6231 -0.6944  0.5370
  181MOL   N11636476   7.124   7.004   5.713  0.8128 -0.0529 -0.6557
  181MOL   H11736477   6.964   7.380   5.612  0.1328  0.3107  0.0392
  181MOL   H11836478   6.972   7.226   5.530 -0.1829 -1.6881  1.5035
  181MOL   H11936479   7.127   7.241   5.701  0.4058 -1.0997 -0.6224
  181MOL   H12036480   7.135   6.906   5.738 -0.4679  0.2666  1.2428
  181MOL   H12136481   7.201   7.056   5.674 -0.2809  2.8340  0.8538
  181MOL   C12236482   7.021   7.276   5.875 -0.1771 -0.5417  0.3428
  181MOL   C12336483   7.071   7.420   5.892 -0.7240 -0.4598 -0.5307
  181MOL   C12436484   7.212   7.438   5.844  1.4073 -0.4685  0.3210
  181MOL   O12536485   7.300   7.374   5.900 -0.3403 -0.1001  0.6447
  181MOL   N12636486   7.230   7.520   5.743  0.2412 -0.4047 -0.2985
  181MOL   H12736487   7.084   7.212   5.937  0.6278 -0.8046 -0.7268
  181MOL   H12836488   6.921   7.272   5.919 -0.3730 -0.8653 -0.1234
  181MOL   H12936489   7.012   7.496   5.840  0.4661 -0.4496 -1.8879
  181MOL   H13036490   7.322   7.534   5.703 -0.7327  1.3349 -2.0264
  181MOL   H13136491   7.163   7.590   5.713  2.3411  2.2034  0.8842
  181MOL   C13236492   7.060   7.458   6.046 -0.6110 -0.5459 -0.5603
  181MOL   C13336493   7.115   7.595   6.089  0.3127 -0.0723  0.1317
  181MOL   C13436494   7.136   7.605   6.239 -0.1940  0.3155 -0.1502
  181MOL   O13536495   7.100   7.514   6.318  0.2999 -0.0802  0.1576
  181MOL   N13636496   7.186   0.066   6.283  0.2354 -0.1210  0.3479
  181MOL   H13736497   7.109   7.381   6.105 -2.3113 -1.6659 -0.5628
  181MOL   H13836498   6.961   7.449   6.090 -0.6165  1.8721 -0.0377
  181MOL   H13936499   7.215   7.602   6.046  0.6744  2.2637  1.2880
  181MOL   H14036500   7.238   0.077   6.369  2.2860  1.1169 -1.0143
  181MOL   H14136501   7.180   0.150   6.226  0.0514  0.2525  0.9148
  181MOL   C14236502   7.032   0.058   6.036 -0.3515 -0.5022 -0.1050
  181MOL   C14336503   7.101   0.159   5.944  0.4497  0.7656  0.4117
  181MOL   C14436504   7.203   0.250   6.018 -0.3299 -0.1187 -0.5289
  181MOL   O14536505   7.167   0.309   6.117 -0.2757  0.5622 -0.4142
  181MOL   N14636506   7.328   0.255   5.974 -0.1696 -0.2794 -0.2600
  181MOL   H14736507   6.990   0.119   6.116 -0.2066 -2.1526  1.2603
  181MOL   H14836508   6.944   0.023   5.981 -1.8773 -1.0262  2.6080
  181MOL   H14936509   7.148   0.100   5.865 -1.6557  1.6847 -1.5695
  181MOL   H15036510   7.370   0.203   5.898 -2.0803 -0.5439 -1.1677
  181MOL   H15136511   7.390   0.312   6.029  1.8136 -0.8053 -1.8972
  181MOL   C15236512   6.996   0.254   5.875  0.0244 -0.1562  0.7447
  181MOL   C15336513   6.992   0.257   5.721 -0.0130 -0.0975  0.4642
  181MOL   C15436514   6.952   0.124   5.664  0.2141  0.7981 -0.0824
  181MOL   O15536515   7.036   0.041   5.627 -0.1608 -0.0778 -0.3328
  181MOL   N15636516   6.824   0.091   5.664  0.0455  0.5678  0.7338
  181MOL   H15736517   7.004   0.356   5.912  1.0959 -0.3829  1.1693
  181MOL   H15836518   6.898   0.218   5.905  1.2598 -3.3653  1.2246
  181MOL   H15936519   6.918   0.324   5.678  0.5351  0.1308 -0.1391
  181MOL   H16036520   6.791   7.655   5.642 -0.1077  0.4976  1.2602
  181MOL   H16136521   6.769   0.150   5.724 -0.1881  2.8188 -1.6116
  181MOL   C16236522   7.121   0.316   5.652  0.3837 -0.7888  0.2057
  181MOL   C16336523   7.116   0.340   5.498  0.2328 -1.0608 -0.2142
  181MOL   C16436524   7.261   0.355   5.445  0.2209  0.0189 -0.3854
  181MOL   O16536525   7.347   0.418   5.506 -0.0655  0.1358 -0.1109
  181MOL   N16636526   7.292   0.284   5.339  0.2524 -0.4678  0.0097
  181MOL   H16736527   7.205   0.250   5.672  3.2447  2.4687 -0.5554
  181MOL   H16836528   7.153   0.412   5.692 -1.0658  0.5159 -1.6855
  181MOL   H16936529   7.081   0.249   5.450 -2.0155  0.3009 -1.2547
  181MOL   H17036530   7.386   0.288   5.305  0.9353 -1.0815  1.7659
  181MOL   H17136531   7.230   0.218   5.294 -0.3283 -0.2240  0.4449
  181MOL   C17236532   7.034   0.463   5.459  0.9563  0.2077 -0.2415
  181MOL   C17336533   6.892   0.442   5.401  0.6535  0.0458  0.1031
  181MOL   C17436534   6.864   0.322   5.311 -0.2293  0.8102  0.2165
  181MOL   O17536535   6.797   0.223   5.349  0.5099 -0.0506  0.3551
  181MOL   N17636536   6.901   0.331   5.186  0.0921  0.4320  0.1777
  181MOL   H17736537   7.085   0.532   5.392 -0.0451  1.9534  0.7578
  181MOL   H17836538   7.024   0.520   5.551 -0.8003  0.8883 -0.8447
  181MOL   H17936539   6.841   0.407   5.490  0.8245 -0.5959 -0.0529
  181MOL   H18036540   6.948   0.415   5.157 -0.2131  0.2980 -0.7267
  181MOL   H18136541   6.900   0.249   5.126  2.4394  0.1834  0.3986
  181MOL   C18236542   6.817   0.571   5.363  0.4003 -0.7641 -0.2114
  181MOL   C18336543   6.750   0.658   5.473 -0.3652  0.4234 -0.2572
  181MOL   C18436544   6.626   0.598   5.549  0.1488 -0.0477 -0.5764
  181MOL   O18536545   6.535   0.553   5.479 -0.2922 -0.0907  0.1345
  181MOL   N18636546   6.634   0.604   5.679 -0.6734 -0.0802 -0.4398
  181MOL   H18736547   6.740   0.547   5.291 -0.0120  0.5949 -0.2351
  181MOL   H18836548   6.887   0.627   5.301  2.3303 -0.7516  1.9016
  181MOL   H18936549   6.823   0.671   5.553 -2.3246  0.6094  1.5382
  181MOL   H19036550   6.715   0.646   5.723  0.3194  2.7960 -4.7453
  181MOL   H19136551   6.563   0.561   5.736 -0.0703  0.8906  1.0899
  181MOL   C19236552   6.718   0.791   5.405 -0.2051  0.7153  0.0929
  181MOL   C19336553   6.666   0.904   5.497 -0.2608  0.3301  0.7196
  181MOL   C19436554   6.655   1.038   5.428 -0.2967 -0.3048  0.6511
  181MOL   O19536555   6.645   1.051   5.307  0.0446 -0.6139  0.5179
  181MOL   N19636556   6.649   1.144   5.497 -0.4976 -0.1581  0.0395
  181MOL   H19736557   6.637   0.766   5.337 -0.7109 -1.4364  1.4527
  181MOL   H19836558   6.792   0.833   5.337  1.2877 -1.9929 -0.0118
  181MOL   H19936559   6.567   0.868   5.524  0.8557 -2.0723  1.7811
  181MOL   H20036560   6.632   1.232   5.450  1.4171 -0.2835 -0.9722
  181MOL   H20136561   6.680   1.145   5.593 -0.7207  2.4439  0.0991
  181MOL   H20236562   6.729   0.912   5.585  2.1408 -0.9972 -0.8099
  182MOL     C136563   4.650   2.235   3.927  0.6554 -0.6417 -0.2431
  182MOL     C236564   4.529   2.224   4.016 -0.0760  0.1879 -0.3468
  182MOL     C336565   4.555   2.111   4.116  0.7118 -0.3028 -0.0480
  182MOL     O436566   4.624   2.012   4.088  0.1364 -0.6896  0.2490
  182MOL     N536567   4.502   2.132   4.240 -0.2808 -0.3120  0.1858
  182MOL     H636568   4.746   2.240   3.979  0.7715  1.3218 -0.6046
  182MOL     H736569   4.655   2.156   3.852 -0.9151  0.7534 -1.8777
  182MOL     H836570   4.521   2.318   4.071 -1.4117 -0.7902  1.1639
  182MOL     H936571   4.440   2.211   4.249 -0.0057  0.2612 -2.7363
  182MOL    H1036572   4.522   2.081   4.325 -1.2059 -0.9839 -0.0056
  182MOL    H1136573   4.635   2.323   3.864  0.5248 -0.7150 -0.3134
  182MOL    C1236574   4.412   2.188   3.921  0.0736 -0.2326  0.3135
  182MOL    C1336575   4.271   2.196   3.987 -0.3671 -0.1217  0.2891
  182MOL    C1436576   4.254   2.306   4.091 -0.1687 -0.8785 -0.1191
  182MOL    O1536577   4.253   2.272   4.207  0.5695  0.0724 -0.0545
  182MOL    N1636578   4.253   2.433   4.050  0.3664 -0.2262 -0.2318
  182MOL    H1736579   4.438   2.091   3.877  2.1685  0.7748 -0.7112
  182MOL    H1836580   4.417   2.259   3.839 -3.9459 -0.0619  0.1224
  182MOL    H1936581   4.207   2.234   3.907  0.9948 -0.6854 -1.0851
  182MOL    H2036582   4.242   2.507   4.117  0.3782  0.7475 -1.2803
  182MOL    H2136583   4.260   2.453   3.951  2.2741 -2.6252 -0.6352
  182MOL    C2236584   4.199   2.066   4.027  0.4184  0.3310  0.1068
  182MOL    C2336585   4.168   1.967   3.907 -0.6242  0.5222 -0.7199
  182MOL    C2436586   4.027   1.984   3.850 -0.6148  0.7763 -0.2100
  182MOL    O2536587   3.924   1.956   3.914  0.4813 -0.3060  0.1654
  182MOL    N2636588   4.012   2.048   3.738  0.0092 -0.8057  0.1004
  182MOL    H2736589   4.107   2.094   4.079 -0.3337 -0.4505 -0.7931
  182MOL    H2836590   4.252   2.013   4.106  1.7866  1.8027  0.2058
  182MOL    H2936591   4.234   2.003   3.828  0.8472  2.5013  1.3307
  182MOL    H3036592   3.919   2.055   3.699  0.0462  0.7076  0.2275
  182MOL    H3136593   4.093   2.076   3.684  0.0169  1.1199  1.0492
  182MOL    C3236594   4.188   1.820   3.952  0.2019  0.5406  0.2093
  182MOL    C3336595   4.269   1.734   3.849 -0.2619 -0.2620 -0.0058
  182MOL    C3436596   4.304   1.593   3.908 -0.3910  0.1665  0.6561
  182MOL    O3536597   4.398   1.577   3.988  0.0655  0.0209  0.0753
  182MOL    N3636598   4.240   1.488   3.857  0.3448  0.6064  0.3501
  182MOL    H3736599   4.092   1.773   3.973 -0.8722  1.7067 -1.9485
  182MOL    H3836600   4.241   1.812   4.047  1.4873 -0.0677 -0.5590
  182MOL    H3936601   4.212   1.722   3.757  1.2205  0.2871 -1.0148
  182MOL    H4036602   4.272   1.401   3.897  2.5720 -0.2462 -3.0272
  182MOL    H4136603   4.156   1.493   3.800 -0.1905 -0.3433  1.0261
  182MOL    C4236604   4.411   1.798   3.790 -0.3430  0.9267 -0.5228
  182MOL    C4336605   4.503   1.701   3.703  0.0592  0.7907  0.4040
  182MOL    C4436606   4.638   1.770   3.689 -0.4045  0.7212  0.2315
  182MOL    O4536607   4.649   1.877   3.622  0.2254  0.7014  0.6335
  182MOL    N4636608   4.741   1.722   3.750  0.5718  0.3963 -0.3135
  182MOL    H4736609   4.470   1.829   3.876 -1.6688 -0.7486  1.0270
  182MOL    H4836610   4.402   1.889   3.731  1.0776  1.9213  0.7504
  182MOL    H4936611   4.535   1.614   3.761  0.5195 -0.2551 -1.3752
  182MOL    H5036612   4.738   1.641   3.810 -1.1873  0.8976  0.3134
  182MOL    H5136613   4.827   1.775   3.746  0.4098  0.7455  0.6340
  182MOL    C5236614   4.437   1.657   3.577 -0.5702  0.1235 -0.1515
  182MOL    C5336615   4.487   1.528   3.502  0.0312 -0.7371 -0.0628
  182MOL    C5436616   4.598   1.566   3.405 -0.0720  0.9544  1.0085
  182MOL    O5536617   4.578   1.627   3.302  1.3071 -0.1997  0.7725
  182MOL    N5636618   4.716   1.520   3.424 -0.0308  0.3327 -0.4071
  182MOL    H5736619   4.435   1.743   3.510 -0.2684  0.5167  0.3419
  182MOL    H5836620   4.331   1.637   3.596 -0.3751  0.3970  1.2986
  182MOL    H5936621   4.522   1.468   3.586  1.5556  1.4423  0.9064
  182MOL    H6036622   4.751   1.468   3.503 -0.7551  0.0201 -0.2892
  182MOL    H6136623   4.783   1.534   3.350 -1.2927 -0.7793 -1.7878
  182MOL    C6236624   4.363   1.460   3.431  0.4533  0.7107 -0.2923
  182MOL    C6336625   4.393   1.333   3.356 -0.3941 -0.4245 -0.5553
  182MOL    C6436626   4.435   1.228   3.455 -0.4748 -0.0658 -0.3452
  182MOL    O6536627   4.554   1.212   3.494 -0.2564  0.3722  0.1282
  182MOL    N6636628   4.345   1.145   3.503  0.4340  0.0365 -0.7594
  182MOL    H6736629   4.334   1.528   3.351 -0.5949 -1.7640 -2.0646
  182MOL    H6836630   4.278   1.438   3.496  0.2686  0.5724 -0.5805
  182MOL    H6936631   4.294   1.309   3.316 -1.2431 -1.4257  2.0953
  182MOL    H7036632   4.363   1.094   3.588 -1.1793  2.1420  0.9231
  182MOL    H7136633   4.251   1.149   3.467  0.1134  1.0356  0.1647
  182MOL    C7236634   4.485   1.344   3.229 -0.4952  0.3591  0.0688
  182MOL    C7336635   4.455   1.236   3.115  0.3080  0.7502 -0.6532
  182MOL    C7436636   4.512   1.093   3.146  0.2924 -0.8807  0.3494
  182MOL    O7536637   4.443   1.000   3.114  0.2894  0.4092 -0.2845
  182MOL    N7636638   4.632   1.075   3.196 -0.1546 -0.0967  0.4040
  182MOL    H7736639   4.585   1.321   3.266 -0.9471  1.0984  1.8161
  182MOL    H7836640   4.488   1.441   3.178 -0.7028 -0.1092 -0.8317
  182MOL    H7936641   4.347   1.231   3.126  0.5688 -0.5766  1.5059
  182MOL    H8036642   4.672   0.983   3.213 -0.1116  0.0041  0.8603
  182MOL    H8136643   4.680   1.156   3.231 -0.2704  0.2421 -0.2126
  182MOL    C8236644   4.490   1.282   2.971 -0.5676 -0.2181  0.1677
  182MOL    C8336645   4.644   1.285   2.926  0.5593  0.2950  0.7130
  182MOL    C8436646   4.720   1.401   2.993 -0.6197  0.2079 -0.2595
  182MOL    O8536647   4.680   1.513   2.965 -0.0033  0.0067  0.2680
  182MOL    N8636648   4.811   1.383   3.080 -0.2742  0.2589  0.0524
  182MOL    H8736649   4.443   1.380   2.966  0.0736  0.1199  0.6967
  182MOL    H8836650   4.432   1.232   2.894  0.3454 -0.6737 -0.2386
  182MOL    H8936651   4.697   1.198   2.964 -0.6507 -0.7154  0.1024
  182MOL    H9036652   4.843   1.290   3.103 -2.6434 -0.7865 -0.6826
  182MOL    H9136653   4.843   1.466   3.128 -0.3194 -0.0346  0.5902
  182MOL    C9236654   4.673   1.295   2.775 -0.7114 -0.2840  0.1310
  182MOL    C9336655   4.635   1.171   2.684  0.3133  0.2699  0.4307
  182MOL    C9436656   4.495   1.189   2.631 -0.1762  0.9663  0.7062
  182MOL    O9536657   4.480   1.288   2.561 -0.0990 -0.2590 -0.0213
  182MOL    N9636658   4.401   1.102   2.654 -0.3344  0.2608 -0.1102
  182MOL    H9736659   4.781   1.304   2.761 -0.8370 -0.7855 -1.2592
  182MOL    H9836660   4.637   1.386   2.727  0.3108 -1.3476 -2.7704
  182MOL    H9936661   4.696   1.177   2.594  2.6580  0.7199  1.9886
  182MOL   H10036662   4.424   1.016   2.703  1.3752  0.0804 -1.1886
  182MOL   H10136663   4.320   1.112   2.594  1.7271  1.4577 -2.7397
  182MOL   C10236664   4.667   1.038   2.751 -0.4082  0.1809  0.0436
  182MOL   C10336665   4.653   0.909   2.671 -0.0481 -0.1263 -0.0497
  182MOL   C10436666   4.663   0.789   2.765 -0.0390 -0.4501  0.6292
  182MOL   O10536667   4.767   0.764   2.827  0.3529  0.3293 -0.5255
  182MOL   N10636668   4.550   0.714   2.772 -0.2706 -0.3042 -0.9775
  182MOL   H10736669   4.617   1.041   2.848 -0.8908  1.6898 -0.2394
  182MOL   H10836670   4.774   1.050   2.770 -0.3635  0.9960 -0.7101
  182MOL   H10936671   4.558   0.896   2.620  0.0733  0.4991 -0.4355
  182MOL   H11036672   4.561   0.622   2.813 -0.4139 -0.5796 -1.5589
  182MOL   H11136673   4.476   0.746   2.711 -1.0467 -0.4612 -0.1335
  182MOL   C11236674   4.757   0.901   2.557 -0.1659 -0.9404 -0.2957
  182MOL   C11336675   4.734   0.792   2.457 -0.2922 -0.7885  0.1454
  182MOL   C11436676   4.863   0.776   2.373 -0.4067 -0.2182 -0.7152
  182MOL   O11536677   4.914   0.876   2.322 -0.0972 -0.2174  0.3049
  182MOL   N11636678   4.915   0.659   2.364 -0.4156  0.0035  0.3572
  182MOL   H11736679   4.856   0.902   2.602  0.1162  2.0657 -0.8775
  182MOL   H11836680   4.748   0.995   2.502 -2.0592 -2.0828 -2.0560
  182MOL   H11936681   4.720   0.695   2.506  1.3018 -0.6275  0.9390
  182MOL   H12036682   4.858   0.578   2.384 -0.8296  0.1258 -0.3115
  182MOL   H12136683   5.012   0.639   2.348 -0.2331  1.8608 -0.9841
  182MOL   C12236684   4.614   0.823   2.361 -0.1535 -0.1620  0.2430
  182MOL   C12336685   4.557   0.710   2.275  0.2533 -0.1938  0.2021
  182MOL   C12436686   4.491   0.773   2.145 -0.4056  0.3063  0.3611
  182MOL   O12536687   4.424   0.876   2.151  0.6436  0.0542 -0.3321
  182MOL   N12636688   4.526   0.726   2.024 -0.1690 -0.0222 -0.1356
  182MOL   H12736689   4.653   0.901   2.296 -0.1694  1.0130  1.6216
  182MOL   H12836690   4.538   0.879   2.416  1.5082  2.4494 -0.0908
  182MOL   H12936691   4.639   0.648   2.238  2.7458  2.9881  0.1562
  182MOL   H13036692   4.470   0.770   1.952 -0.1400 -2.4488 -1.7221
  182MOL   H13136693   4.584   0.644   2.011 -0.3310 -0.2363  0.4859
  182MOL   C13236694   4.459   0.622   2.355 -0.0281  0.1522  0.4552
  182MOL   C13336695   4.309   0.673   2.373  0.4005 -0.1321 -0.0337
  182MOL   C13436696   4.296   0.789   2.466 -0.5164 -0.2709 -0.2632
  182MOL   O13536697   4.351   0.794   2.573 -0.1458 -0.1325 -0.1535
  182MOL   N13636698   4.220   0.888   2.432  0.6659  0.5905 -0.8706
  182MOL   H13736699   4.503   0.583   2.446 -0.8437 -0.7002  0.4927
  182MOL   H13836700   4.447   0.533   2.293 -1.1244  1.6575 -1.5849
  182MOL   H13936701   4.283   0.703   2.271 -0.5217 -0.1590  0.1947
  182MOL   H14036702   4.175   0.868   2.344 -1.6047 -1.6981  0.7171
  182MOL   H14136703   4.218   0.979   2.475  2.5109  0.5516 -0.6655
  182MOL   C14236704   4.219   0.550   2.409  0.1778  0.6161 -0.5122
  182MOL   C14336705   4.063   0.570   2.413 -0.2498 -0.4854 -0.3260
  182MOL   C14436706   3.991   0.653   2.305  0.1831  0.1520  0.8311
  182MOL   O14536707   4.039   0.751   2.253 -0.8682 -0.4261 -0.2269
  182MOL   N14636708   3.870   0.612   2.266 -1.1361  0.9602 -0.2332
  182MOL   H14736709   4.255   0.500   2.499  0.1124 -0.0039 -0.8269
  182MOL   H14836710   4.235   0.474   2.333 -1.3917 -0.7373  0.4771
  182MOL   H14936711   4.018   0.472   2.399  0.9499 -1.2513  1.0621
  182MOL   H15036712   3.829   0.530   2.308  2.4727 -0.6812  0.2730
  182MOL   H15136713   3.811   0.675   2.213 -2.1634 -1.3591 -1.9730
  182MOL   C15236714   4.022   0.617   2.557 -0.1293 -0.0608 -0.0994
  182MOL   C15336715   3.965   0.505   2.651  0.5218 -0.0792  0.2497
  182MOL   C15436716   3.831   0.462   2.599  0.6354 -0.0905 -0.2502
  182MOL   O15536717   3.743   0.542   2.570 -0.5682  0.1134  0.2414
  182MOL   N15636718   3.809   0.330   2.575  0.1186  0.9972  0.1880
  182MOL   H15736719   3.943   0.692   2.556  0.5302  0.7080  2.2114
  182MOL   H15836720   4.104   0.666   2.609  0.5274 -0.6937 -0.5327
  182MOL   H15936721   4.038   0.425   2.638  0.5197 -0.1590  0.7161
  182MOL   H16036722   3.724   0.298   2.531 -0.5924  0.7287  1.7066
  182MOL   H16136723   3.875   0.259   2.605 -0.9335  0.4068  1.1627
  182MOL   C16236724   3.953   0.552   2.800 -0.3651 -0.1808  0.0250
  182MOL   C16336725   4.023   0.457   2.898  0.2327 -0.4427 -0.0296
  182MOL   C16436726   3.965   0.316   2.902  0.5841 -0.3909  0.6807
  182MOL   O16536727   3.864   0.302   2.968  0.4569 -0.5493 -0.5128
  182MOL   N16636728   3.997   0.223   2.812  0.3184  0.4792  0.0235
  182MOL   H16736729   3.850   0.570   2.831 -0.8133 -1.1083 -0.8857
  182MOL   H16836730   4.010   0.644   2.808  0.3243 -0.6114  0.0910
  182MOL   H16936731   4.124   0.439   2.861  1.5821 -1.3404  3.8022
  182MOL   H17036732   4.075   0.230   2.748 -0.2937 -0.2149 -0.8088
  182MOL   H17136733   3.942   0.138   2.810  1.7025 -0.4136 -2.4161
  182MOL   C17236734   4.012   0.514   3.039  0.7529  0.6262  0.1622
  182MOL   C17336735   4.096   0.645   3.073  0.3833 -0.0291 -0.3424
  182MOL   C17436736   4.241   0.632   3.028 -0.2713  0.0075  0.3307
  182MOL   O17536737   4.320   0.549   3.059  0.3255 -0.7020  0.2343
  182MOL   N17636738   4.286   0.738   2.957  0.5466  0.5306  0.0096
  182MOL   H17736739   4.053   0.443   3.111  1.4028  0.0473 -0.7624
  182MOL   H17836740   3.913   0.526   3.083  1.6281  2.1874  1.7611
  182MOL   H17936741   4.046   0.727   3.021 -0.4850 -0.1466  0.2972
  182MOL   H18036742   4.219   0.794   2.908  0.0178  0.5972  0.8014
  182MOL   H18136743   4.385   0.759   2.946  1.1320 -1.9182  0.3269
  182MOL   C18236744   4.076   0.676   3.226  0.6251  0.1628 -0.1387
  182MOL   C18336745   4.173   0.776   3.302 -0.9496 -0.0624  0.9846
  182MOL   C18436746   4.178   0.764   3.449 -0.1117  0.7616 -0.1146
  182MOL   O18536747   4.274   0.791   3.520 -0.4805  0.1305  0.4960
  182MOL   N18636748   4.068   0.720   3.509 -0.0664 -0.8085  0.1078
  182MOL   H18736749   4.079   0.579   3.276 -0.1902 -0.7595 -1.8478
  182MOL   H18836750   3.973   0.710   3.233  1.2569  2.1262 -0.2659
  182MOL   H18936751   4.270   0.747   3.263 -0.8670  1.0414  0.3317
  182MOL   H19036752   3.980   0.712   3.459 -0.8029 -2.1340  1.5707
  182MOL   H19136753   4.060   0.710   3.610 -0.1341 -1.3265  0.0524
  182MOL   C19236754   4.155   0.924   3.255 -0.6066 -0.2057 -0.4207
  182MOL   C19336755   4.013   0.981   3.279 -0.3069 -0.9838 -0.0563
  182MOL   C19436756   4.013   1.124   3.318 -0.8836 -0.5001  0.7285
  182MOL   O19536757   4.084   1.176   3.406  0.8566  0.7227 -0.2998
  182MOL   N19636758   3.916   1.198   3.260 -0.9278 -0.5360 -0.6149
  182MOL   H19736759   4.179   0.936   3.149 -2.7546 -0.8806 -1.0207
  182MOL   H19836760   4.231   0.974   3.315  0.9655 -2.3285 -0.5961
  182MOL   H19936761   3.971   0.964   3.179  0.2277  2.0133 -0.8439
  182MOL   H20036762   3.849   1.158   3.197 -2.9467 -0.2137  1.2537
  182MOL   H20136763   3.890   1.291   3.291 -2.5336 -1.1263 -0.1261
  182MOL   H20236764   3.953   0.926   3.352 -1.1434  0.0751  0.0607
  183MOL     C136765   1.384   1.922   3.299 -0.0308  0.1966 -0.2485
  183MOL     C236766   1.375   2.030   3.408 -0.7689 -0.4605 -0.2137
  183MOL     C336767   1.496   2.130   3.388  0.2077  0.0294  0.3750
  183MOL     O436768   1.469   2.240   3.335  0.4353 -0.5076  0.3858
  183MOL     N536769   1.619   2.091   3.402  0.0608  0.0823  0.1908
  183MOL     H636770   1.422   1.961   3.205 -0.3191  0.6561 -0.1753
  183MOL     H736771   1.441   1.840   3.343  0.1929  0.1154 -0.6880
  183MOL     H836772   1.283   2.083   3.384 -1.0033 -0.5999  0.3663
  183MOL     H936773   1.698   2.139   3.361 -0.0217 -1.1021 -1.4028
  183MOL    H1036774   1.637   2.001   3.446  2.1315 -0.8810 -2.4830
  183MOL    H1136775   1.288   1.876   3.274 -0.0356  0.3062 -0.4317
  183MOL    C1236776   1.363   1.989   3.555 -0.6939  0.1407  0.2844
  183MOL    C1336777   1.220   1.919   3.577  0.4483  0.5007 -0.3627
  183MOL    C1436778   1.105   2.014   3.563  0.6416 -0.2023  0.5421
  183MOL    O1536779   1.118   2.129   3.579 -0.5968  0.5696 -0.0658
  183MOL    N1636780   0.984   1.967   3.521  0.1473 -0.1620  0.1392
  183MOL    H1736781   1.377   2.070   3.626 -1.7906 -0.1562  0.8381
  183MOL    H1836782   1.441   1.918   3.580 -0.4729  0.0078 -0.7521
  183MOL    H1936783   1.211   1.826   3.521  0.5699  0.3193 -0.0843
  183MOL    H2036784   0.904   2.027   3.526  0.2486 -0.1185  1.4402
  183MOL    H2136785   0.977   1.873   3.485  0.9093 -1.2007  2.5726
  183MOL    C2236786   1.242   1.861   3.728  1.1317 -0.3218 -0.4422
  183MOL    C2336787   1.135   1.762   3.766 -0.0408  0.5742 -1.0378
  183MOL    C2436788   1.135   1.750   3.922 -0.3501  0.3443 -0.2635
  183MOL    O2536789   1.238   1.737   3.986 -0.3808  0.3673  0.2173
  183MOL    N2636790   1.019   1.743   3.987 -0.2626  0.6818  0.1539
  183MOL    H2736791   1.246   1.940   3.804  0.0544 -1.6026  0.9840
  183MOL    H2836792   1.338   1.811   3.734  0.3320 -1.7404  1.1519
  183MOL    H2936793   1.036   1.801   3.741 -0.8737 -0.9777 -0.2323
  183MOL    H3036794   0.933   1.767   3.940  0.2163  0.6993 -0.7185
  183MOL    H3136795   1.010   1.719   4.085 -3.0152 -2.4162 -0.7432
  183MOL    C3236796   1.152   1.618   3.710 -0.1532  0.1193  0.5213
  183MOL    C3336797   1.023   1.533   3.676 -0.4458  0.2877 -0.2218
  183MOL    C3436798   0.951   1.475   3.797  0.2412 -0.2173  0.0617
  183MOL    O3536799   0.979   1.366   3.854  0.4034 -0.1542  0.4745
  183MOL    N3636800   0.852   1.549   3.843 -0.4024 -0.2414 -0.0408
  183MOL    H3736801   1.212   1.561   3.781 -0.1747  1.4997  1.6708
  183MOL    H3836802   1.213   1.632   3.620  1.8222 -0.6424  1.6917
  183MOL    H3936803   0.955   1.586   3.610 -0.6952 -0.5956 -0.6772
  183MOL    H4036804   0.808   1.623   3.790 -3.8944 -2.1448  0.0539
  183MOL    H4136805   0.816   1.539   3.937  0.6994 -0.2969  0.3796
  183MOL    C4236806   1.068   1.428   3.578  0.3215 -0.2018 -0.1397
  183MOL    C4336807   0.962   1.334   3.508  0.0829  0.3526 -0.5060
  183MOL    C4436808   1.007   1.260   3.384 -0.3764 -0.8385 -0.2083
  183MOL    O4536809   1.125   1.282   3.343 -0.0612 -0.1318 -0.2034
  183MOL    N4636810   0.912   1.198   3.316 -0.0081 -0.6384 -0.0761
  183MOL    H4736811   1.132   1.372   3.647  1.8044  1.4054 -0.1721
  183MOL    H4836812   1.137   1.476   3.510 -0.8900  0.7329 -0.7208
  183MOL    H4936813   0.939   1.259   3.583  0.2027  1.4831  0.6886
  183MOL    H5036814   0.815   1.207   3.341  0.1441 -2.4083  1.2272
  183MOL    H5136815   0.934   1.166   3.223 -0.1184  0.6425 -0.5570
  183MOL    C5236816   0.835   1.410   3.478 -0.3116 -0.7578  0.5524
  183MOL    C5336817   0.831   1.514   3.359  0.7114  0.3130 -0.1773
  183MOL    C5436818   0.960   1.602   3.330  0.2547 -0.2609 -0.0767
  183MOL    O5536819   0.966   1.714   3.377  0.1243 -0.2039  0.2868
  183MOL    N5636820   1.056   1.563   3.250  0.4562  0.0667 -0.4698
  183MOL    H5736821   0.798   1.459   3.569  0.2513  1.4630 -0.3919
  183MOL    H5836822   0.751   1.343   3.463 -0.0798 -1.0982  0.7775
  183MOL    H5936823   0.816   1.456   3.268 -0.6570 -1.0098  0.8582
  183MOL    H6036824   1.133   1.629   3.258 -0.4091  1.2975 -1.8910
  183MOL    H6136825   1.069   1.464   3.235  0.3914 -0.2113  1.2239
  183MOL    C6236826   0.706   1.600   3.375  0.0010 -0.3499  0.1676
  183MOL    C6336827   0.666   1.654   3.240  0.2349  0.5993  1.1753
  183MOL    C6436828   0.609   1.794   3.267 -0.1879  0.2221 -0.0869
  183MOL    O6536829   0.500   1.814   3.318 -0.1995  0.0092 -0.5106
  183MOL    N6636830   0.680   1.904   3.231  0.2461  0.5773 -0.1866
  183MOL    H6736831   0.733   1.675   3.450  1.7529 -0.4130 -0.3649
  183MOL    H6836832   0.625   1.536   3.411 -0.8111  0.2728 -0.5391
  183MOL    H6936833   0.749   1.677   3.174 -0.9749  2.6039  0.2905
  183MOL    H7036834   0.636   1.995   3.228  1.5977  1.2783  0.5314
  183MOL    H7136835   0.771   1.898   3.186 -0.2077  0.2805 -1.0702
  183MOL    C7236836   0.555   1.573   3.172  0.6500 -0.2130  0.2071
  183MOL    C7336837   0.583   1.546   3.029 -0.3900  0.3215  0.0263
  183MOL    C7436838   0.549   1.661   2.937 -0.3664 -0.0716  0.3730
  183MOL    O7536839   0.437   1.684   2.888  0.0627 -0.0222  0.5114
  183MOL    N7636840   0.645   1.749   2.922  0.3196 -0.2028 -0.2724
  183MOL    H7736841   0.455   1.611   3.191 -0.1512 -1.2347 -1.8936
  183MOL    H7836842   0.553   1.480   3.229 -0.8289 -0.8213 -0.7997
  183MOL    H7936843   0.691   1.534   3.024 -0.2474 -0.3981  3.6515
  183MOL    H8036844   0.727   1.743   2.981 -1.0518  0.1631  1.7384
  183MOL    H8136845   0.629   1.836   2.874 -1.5590 -0.5039 -0.2232
  183MOL    C8236846   0.544   1.398   2.990  0.6094  0.1715  0.2312
  183MOL    C8336847   0.397   1.370   2.949 -0.0583  0.0208 -0.5915
  183MOL    C8436848   0.291   1.410   3.051  0.2244  0.0179 -0.1642
  183MOL    O8536849   0.243   1.327   3.121  0.2868  0.0186 -0.3633
  183MOL    N8636850   0.244   1.532   3.045  0.3128 -0.5427 -0.7964
  183MOL    H8736851   0.570   1.332   3.072 -0.6171  0.3492  0.7767
  183MOL    H8836852   0.601   1.367   2.902 -0.3592  0.0949 -0.3806
  183MOL    H8936853   0.385   1.438   2.865  1.4644 -0.0509 -0.8851
  183MOL    H9036854   0.165   1.565   3.098 -0.6423 -0.8518 -1.9877
  183MOL    H9136855   0.294   1.597   2.986  0.0049  0.7432  0.3496
  183MOL    C9236856   0.365   1.230   2.890  0.2941 -0.4915  0.2625
  183MOL    C9336857   0.386   1.097   2.968 -0.6872 -0.4642  0.6178
  183MOL    C9436858   0.538   1.071   2.960  0.5108  1.2466  0.4731
  183MOL    O9536859   0.585   1.050   2.850 -0.6570 -0.0056 -0.0488
  183MOL    N9636860   0.609   1.062   3.075 -0.3802  0.1284 -0.0494
  183MOL    H9736861   0.410   1.225   2.791  2.0409 -1.2684  1.0823
  183MOL    H9836862   0.259   1.247   2.867  0.3136  1.1073  1.2385
  183MOL    H9936863   0.369   1.112   3.074 -1.6971 -0.6931  0.4957
  183MOL   H10036864   0.565   1.074   3.166 -0.4649 -1.8819  0.1974
  183MOL   H10136865   0.710   1.054   3.073 -0.2322  1.0833  1.9038
  183MOL   C10236866   0.303   0.981   2.899  0.1778  0.5197 -0.7924
  183MOL   C10336867   0.264   0.859   2.993 -0.8184 -0.0318 -0.0494
  183MOL   C10436868   0.213   0.904   3.129 -0.3455 -0.1760 -0.2174
  183MOL   O10536869   0.099   0.942   3.155  0.3775 -0.1066  0.2149
  183MOL   N10636870   0.300   0.918   3.225  0.0056 -0.1256 -0.0273
  183MOL   H10736871   0.345   0.958   2.801  1.0487 -1.7813  0.0941
  183MOL   H10836872   0.214   1.037   2.870 -0.1757  0.8914  0.9416
  183MOL   H10936873   0.182   0.807   2.945  0.4616  0.1682 -2.5384
  183MOL   H11036874   0.265   0.929   3.319 -4.4083  0.9611 -1.6745
  183MOL   H11136875   0.395   0.889   3.209  0.5768  1.4751  0.2943
  183MOL   C11236876   0.388   0.759   3.002 -0.5177  0.4386 -0.4939
  183MOL   C11336877   0.438   0.692   2.877  0.4317  0.8370  0.0294
  183MOL   C11436878   0.336   0.585   2.821  0.1964 -0.7727 -0.1980
  183MOL   O11536879   0.293   0.493   2.895  0.1448 -0.1123  0.0904
  183MOL   N11636880   0.293   0.596   2.696 -0.0833 -0.7855 -0.0346
  183MOL   H11736881   0.379   0.686   3.083  1.3815 -0.0411 -0.7014
  183MOL   H11836882   0.459   0.826   3.050 -0.0909  0.4867 -1.1977
  183MOL   H11936883   0.458   0.781   2.817  1.9171 -0.2055 -1.0521
  183MOL   H12036884   0.341   0.654   2.629 -2.3020  1.3011  0.1342
  183MOL   H12136885   0.235   0.525   2.653 -1.2332 -0.5063  1.0529
  183MOL   C12236886   0.586   0.622   2.890  0.4701  0.2103 -0.2129
  183MOL   C12336887   0.692   0.643   2.776  0.1760 -0.2008 -0.3011
  183MOL   C12436888   0.627   0.622   2.637  0.2384 -0.4887  0.3499
  183MOL   O12536889   0.541   0.702   2.596 -0.3407 -0.1122  0.6975
  183MOL   N12636890   0.651   0.515   2.565 -0.2841 -0.1314  0.2390
  183MOL   H12736891   0.562   0.518   2.913 -0.7634  0.3338 -0.9203
  183MOL   H12836892   0.630   0.649   2.986  0.1411 -2.0177  0.5872
  183MOL   H12936893   0.728   0.746   2.774 -0.4408  0.0425  0.4974
  183MOL   H13036894   0.591   0.497   2.485 -2.7940 -0.9487  2.2432
  183MOL   H13136895   0.737   0.468   2.589  0.7489  2.2626  1.4028
  183MOL   C13236896   0.813   0.544   2.811  0.0083 -0.8076  0.7142
  183MOL   C13336897   0.948   0.571   2.750  0.1803  0.6219 -0.2863
  183MOL   C13436898   0.961   0.526   2.602 -0.3513 -0.6853 -0.1265
  183MOL   O13536899   0.924   0.416   2.562 -0.3271  0.8519  0.6184
  183MOL   N13636900   1.016   0.616   2.526  0.0741  0.3538  0.2783
  183MOL   H13736901   0.790   0.440   2.786 -3.4797 -0.0929  0.7668
  183MOL   H13836902   0.843   0.544   2.916 -0.1580 -3.8950  0.8033
  183MOL   H13936903   0.970   0.677   2.760 -0.3929  0.7885 -0.8063
  183MOL   H14036904   1.026   0.702   2.578 -0.0189  0.0361  0.8271
  183MOL   H14136905   1.029   0.618   2.426 -0.1702 -0.6643  0.2189
  183MOL   C14236906   1.070   0.509   2.827  0.4216 -0.5577 -0.4316
  183MOL   C14336907   1.066   0.355   2.846 -0.2888  0.2071 -0.2170
  183MOL   C14436908   0.981   0.309   2.962  0.4882  0.0849 -0.4636
  183MOL   O14536909   1.019   0.330   3.078 -0.9466 -0.0150 -0.0934
  183MOL   N14636910   0.869   0.247   2.941  0.5378 -0.0307 -0.2846
  183MOL   H14736911   1.089   0.533   2.931 -0.2443 -1.6646 -0.0401
  183MOL   H14836912   1.164   0.535   2.779 -0.2847  0.3756 -1.3327
  183MOL   H14936913   1.023   0.309   2.757 -0.6112  2.1046 -1.0817
  183MOL   H15036914   0.825   0.224   2.853  1.6364 -0.4057 -0.7447
  183MOL   H15136915   0.803   0.246   3.017  2.7623  2.2493  1.7497
  183MOL   C15236916   1.207   0.286   2.844  0.2869 -0.1945 -0.2533
  183MOL   C15336917   1.219   0.143   2.783 -0.0170 -0.1044  0.4439
  183MOL   C15436918   1.176   0.040   2.895  0.8761 -0.6647 -0.6919
  183MOL   O15536919   1.200   0.048   3.018 -0.5020  0.2358 -0.2072
  183MOL   N15636920   1.099   7.606   2.832  0.0064  0.5478 -0.2494
  183MOL   H15736921   1.253   0.302   2.942 -2.7324  1.2877  1.0010
  183MOL   H15836922   1.267   0.359   2.789 -2.2062  1.3498 -1.0348
  183MOL   H15936923   1.149   0.140   2.700 -1.2097 -0.1435  1.4427
  183MOL   H16036924   1.074   7.519   2.876 -1.8525  1.4358  0.5022
  183MOL   H16136925   1.082   7.607   2.732  1.5830  1.4641 -0.5281
  183MOL   C16236926   1.345   0.114   2.704  0.2655 -1.0659 -0.3078
  183MOL   C16336927   1.469   0.082   2.791  0.1582 -0.2464  0.3826
  183MOL   C16436928   1.593   0.164   2.760 -0.0372 -0.6203  0.3100
  183MOL   O16536929   1.635   0.160   2.648 -0.5626 -0.5245 -0.2799
  183MOL   N16636930   1.647   0.234   2.858 -0.0174  0.0742 -0.1073
  183MOL   H16736931   1.360   0.195   2.633 -1.9818 -1.3698 -1.1447
  183MOL   H16836932   1.333   0.028   2.639 -2.3358 -2.1630  1.5670
  183MOL   H16936933   1.459   0.099   2.898 -0.4845  3.5487 -0.2264
  183MOL   H17036934   1.723   0.295   2.830  0.3682 -0.2676  0.1825
  183MOL   H17136935   1.628   0.216   2.955 -0.3237  2.2873  0.2738
  183MOL   C17236936   1.499   7.590   2.777 -0.6500  0.3892  0.5516
  183MOL   C17336937   1.602   7.515   2.863  0.7100  0.6483  0.2476
  183MOL   C17436938   1.636   7.382   2.786  0.4187 -0.1074 -0.1004
  183MOL   O17536939   1.546   7.307   2.754 -0.4313 -0.4381 -0.7883
  183MOL   N17636940   1.761   7.360   2.753 -0.3703 -0.1731  0.2637
  183MOL   H17736941   1.518   7.569   2.671 -0.8383 -1.4951  0.8647
  183MOL   H17836942   1.406   7.533   2.788 -1.8446  2.3144  0.6356
  183MOL   H17936943   1.698   7.567   2.854  2.3674 -2.5810 -1.8389
  183MOL   H18036944   1.838   7.418   2.783 -1.9264  1.8436  0.4973
  183MOL   H18136945   1.778   7.286   2.686 -0.8018 -1.2684  1.3366
  183MOL   C18236946   1.565   7.493   3.013  0.4780 -0.5984 -0.6139
  183MOL   C18336947   1.656   7.397   3.097 -0.7498 -0.1491  0.2795
  183MOL   C18436948   1.586   7.391   3.243 -0.5862 -0.5559  0.0169
  183MOL   O18536949   1.560   7.496   3.303 -0.1136 -0.3683  0.0396
  183MOL   N18636950   1.559   7.266   3.290  0.1171 -0.4717  0.6000
  183MOL   H18736951   1.468   7.444   3.021  1.2538 -1.9576  0.8631
  183MOL   H18836952   1.561   7.591   3.061 -1.9805 -1.7776  1.7087
  183MOL   H18936953   1.654   7.296   3.055  3.1847  0.1889 -0.8877
  183MOL   H19036954   1.598   7.197   3.227 -0.0613 -1.8930  2.0030
  183MOL   H19136955   1.530   7.240   3.383 -1.2853 -0.6284  0.1338
  183MOL   C19236956   1.804   7.442   3.104 -0.4482 -0.2678 -0.1964
  183MOL   C19336957   1.888   7.352   3.200  0.4271 -0.2830  0.2839
  183MOL   C19436958   1.899   7.425   3.335  0.0427 -0.2076 -0.1763
  183MOL   O19536959   1.976   7.518   3.346 -0.3750 -0.5892 -0.7601
  183MOL   N19636960   1.829   7.387   3.441 -0.1336  0.5826  0.1022
  183MOL   H19736961   1.814   7.549   3.122  0.8222 -0.3668 -0.2806
  183MOL   H19836962   1.841   7.441   3.001  0.7861  1.1474  0.2177
  183MOL   H19936963   1.838   7.256   3.196 -3.3704  1.4963  2.4244
  183MOL   H20036964   1.767   7.308   3.440 -2.2444  2.1790 -2.3646
  183MOL   H20136965   1.846   7.437   3.527 -1.8412  0.5793  0.4632
  183MOL   H20236966   1.986   7.339   3.154  1.0853 -1.3190  1.9723
  184MOL     C136967   3.680   2.285   1.811 -0.2435  0.9753 -0.2703
  184MOL     C236968   3.584   2.163   1.815  0.0385  0.0965 -0.1858
  184MOL     C336969   3.498   2.159   1.946  0.5470 -0.0210 -0.0286
  184MOL     O436970   3.376   2.130   1.942 -0.1227 -0.4752 -0.3386
  184MOL     N536971   3.566   2.178   2.058 -0.1562  0.2534 -0.3489
  184MOL     H636972   3.707   2.309   1.708 -1.6994 -0.0995 -0.9218
  184MOL     H736973   3.620   2.366   1.853 -1.0281 -0.2804  1.0429
  184MOL     H836974   3.510   2.177   1.736 -0.9453 -1.7965  0.3726
  184MOL     H936975   3.527   2.153   2.148  0.1355  0.1503 -0.2509
  184MOL    H1036976   3.667   2.176   2.057 -0.1778 -0.9149 -1.2816
  184MOL    H1136977   3.770   2.268   1.871 -1.3045 -1.6497  0.6437
  184MOL    C1236978   3.662   2.035   1.792  0.9203  0.3494  0.2575
  184MOL    C1336979   3.574   1.919   1.734  0.4318 -0.4077  0.1043
  184MOL    C1436980   3.543   1.809   1.837 -0.6895  0.4489 -0.0085
  184MOL    O1536981   3.548   1.697   1.788 -0.0234  0.1963  0.2709
  184MOL    N1636982   3.521   1.838   1.962  0.6418  0.1678 -0.3935
  184MOL    H1736983   3.715   1.999   1.880 -1.3252 -1.6190  0.8665
  184MOL    H1836984   3.734   2.058   1.714  0.9236 -1.2030 -0.2160
  184MOL    H1936985   3.471   1.952   1.722  0.3609 -1.0172 -1.0817
  184MOL    H2036986   3.479   1.924   1.994 -0.3903 -0.2456 -0.6062
  184MOL    H2136987   3.519   1.767   2.033  2.8233  0.7822  0.2989
  184MOL    C2236988   3.618   1.867   1.598  0.6800  0.3629  0.7136
  184MOL    C2336989   3.497   1.814   1.511 -0.0598 -1.0025  0.1380
  184MOL    C2436990   3.547   1.698   1.426  0.2509 -0.0981 -0.1257
  184MOL    O2536991   3.651   1.705   1.363 -0.4855  0.4973  0.1071
  184MOL    N2636992   3.464   1.593   1.421 -0.4803  0.0980 -0.8850
  184MOL    H2736993   3.694   1.791   1.611 -0.7982 -0.9529  1.8078
  184MOL    H2836994   3.674   1.937   1.536 -0.0424  1.0804  0.8605
  184MOL    H2936995   3.413   1.784   1.574 -0.9663 -1.0729 -1.0851
  184MOL    H3036996   3.494   1.518   1.359  1.5810 -1.0556  1.4328
  184MOL    H3136997   3.371   1.599   1.461  0.0075 -2.2609  0.7428
  184MOL    C3236998   3.440   1.916   1.405 -0.3027 -0.8625  0.0036
  184MOL    C3336999   3.393   2.050   1.468  0.2625 -0.1761 -0.3306
  184MOL    C3437000   3.254   2.041   1.533 -0.4331  0.4933  0.1780
  184MOL    O3537001   3.163   2.004   1.460 -0.1119  0.7535  0.3477
  184MOL    N3637002   3.245   2.067   1.656  0.2140 -0.0420 -0.6463
  184MOL    H3737003   3.351   1.876   1.358 -2.8435  2.7802  1.4725
  184MOL    H3837004   3.512   1.944   1.327 -1.1466  0.4915 -0.3127
  184MOL    H3937005   3.466   2.085   1.540 -0.6220 -2.8905  1.9413
  184MOL    H4037006   3.319   2.087   1.722 -0.7404  2.7452 -0.3626
  184MOL    H4137007   3.156   2.065   1.704 -1.1471  0.4361 -3.0888
  184MOL    C4237008   3.388   2.160   1.350 -0.1178  0.0171 -0.4938
  184MOL    C4337009   3.523   2.220   1.302  0.1069 -0.0622 -0.6050
  184MOL    C4437010   3.596   2.287   1.413 -0.1732 -0.2267 -0.2761
  184MOL    O4537011   3.564   2.398   1.460  0.0416  0.6927  0.0212
  184MOL    N4637012   3.706   2.228   1.452  0.4683 -0.0961 -0.0047
  184MOL    H4737013   3.329   2.238   1.397  0.3471  1.2051 -1.8247
  184MOL    H4837014   3.324   2.114   1.275 -0.5115 -1.4127  0.6851
  184MOL    H4937015   3.576   2.139   1.252 -0.1216 -0.6449  0.0848
  184MOL    H5037016   3.761   2.265   1.528 -0.5514  0.8696  0.2755
  184MOL    H5137017   3.743   2.149   1.400  0.5413 -0.1141  0.0750
  184MOL    C5237018   3.492   2.331   1.196 -0.1919 -0.1968 -0.0764
  184MOL    C5337019   3.598   2.384   1.101  0.0081 -0.6801 -0.3329
  184MOL    C5437020   3.635   2.276   0.998  0.1084  0.7262 -0.0196
  184MOL    O5537021   3.692   2.176   1.033 -0.0091 -0.0896  0.1188
  184MOL    N5637022   3.607   2.289   0.870  1.0346 -0.2835 -0.0029
  184MOL    H5737023   3.437   2.407   1.252  1.0189  0.7860 -0.2133
  184MOL    H5837024   3.401   2.292   1.150 -0.1945 -1.6131  1.0842
  184MOL    H5937025   3.553   2.467   1.047 -0.3188 -1.1835 -0.8375
  184MOL    H6037026   3.665   2.227   0.814 -1.1143 -0.8594 -1.6582
  184MOL    H6137027   3.571   2.377   0.838 -2.3878 -0.7751  2.2299
  184MOL    C6237028   3.720   2.454   1.172 -0.1222 -0.2505 -0.2102
  184MOL    C6337029   3.816   2.548   1.093  0.6358 -0.3382 -0.2210
  184MOL    C6437030   3.943   2.573   1.173  0.6386  0.0857 -0.2438
  184MOL    O6537031   3.942   2.564   1.298 -0.3609 -0.3154  0.1512
  184MOL    N6637032   4.053   2.605   1.108 -0.1920  0.1236  0.6842
  184MOL    H6737033   3.770   2.375   1.226 -1.2693 -0.4376  0.5930
  184MOL    H6837034   3.698   2.512   1.262  1.2229  0.9457 -0.6276
  184MOL    H6937035   3.848   2.491   1.007  1.9931 -0.6001  0.4528
  184MOL    H7037036   4.046   2.602   1.008  0.2152  2.2124  0.5730
  184MOL    H7137037   4.132   2.654   1.147  1.6048 -0.3157 -2.3192
  184MOL    C7237038   3.743   2.674   1.034 -1.0999 -0.1039  0.0233
  184MOL    C7337039   3.804   2.754   0.918 -0.6796  0.4440 -0.3378
  184MOL    C7437040   3.868   2.668   0.812 -0.3484 -0.1313 -0.1396
  184MOL    O7537041   3.987   2.630   0.830 -0.1670 -0.4809  0.1487
  184MOL    N7637042   3.802   2.642   0.705 -0.0724  0.4107  0.1851
  184MOL    H7737043   3.706   2.739   1.114  1.2368  0.5769  0.5738
  184MOL    H7837044   3.651   2.631   0.994 -0.6089  1.0659 -2.4753
  184MOL    H7937045   3.722   2.798   0.861 -0.5386  1.1581  0.0083
  184MOL    H8037046   3.839   2.590   0.626 -1.5826 -0.7675  0.2433
  184MOL    H8137047   3.709   2.680   0.693 -0.1216  1.2042  2.9306
  184MOL    C8237048   3.886   2.873   0.965 -0.2805  0.6803 -0.2795
  184MOL    C8337049   3.925   2.990   0.863 -0.2876  0.1279  0.2081
  184MOL    C8437050   3.816   3.025   0.762 -0.2121  0.9002  0.2555
  184MOL    O8537051   3.770   2.939   0.686  0.6828 -0.2442  0.0016
  184MOL    N8637052   3.781   3.153   0.747 -0.2467  0.0563  0.0421
  184MOL    H8737053   3.981   2.847   1.011 -0.5105 -0.5778 -0.5113
  184MOL    H8837054   3.834   2.911   1.053 -0.9224 -3.6096  1.3003
  184MOL    H8937055   3.935   3.078   0.927  2.0968  2.1536 -2.7902
  184MOL    H9037056   3.723   3.186   0.671 -2.4887  0.3098  1.8100
  184MOL    H9137057   3.813   3.217   0.818 -0.8706  2.4449 -1.7525
  184MOL    C9237058   4.054   2.947   0.793 -0.6209 -0.6711  0.4295
  184MOL    C9337059   4.133   3.060   0.726 -0.2945 -0.5856 -0.9695
  184MOL    C9437060   4.245   2.990   0.632  0.4223  0.1503 -0.0899
  184MOL    O9537061   4.319   2.909   0.680  0.4662 -0.2401  0.1628
  184MOL    N9637062   4.251   3.018   0.504 -0.1441 -0.2913  0.7070
  184MOL    H9737063   4.016   2.881   0.715 -0.5890  0.9613 -1.0034
  184MOL    H9837064   4.129   2.889   0.847  0.5373  1.2577  0.9430
  184MOL    H9937065   4.061   3.111   0.663  0.0536 -1.3054 -1.9664
  184MOL   H10037066   4.316   2.966   0.447 -1.9426 -1.1138 -0.6382
  184MOL   H10137067   4.194   3.093   0.468  0.7222  0.5230  0.9882
  184MOL   C10237068   4.204   3.154   0.832  0.0552 -0.0879 -0.0005
  184MOL   C10337069   4.215   3.300   0.806  0.6967  0.0378  0.0121
  184MOL   C10437070   4.250   3.337   0.665  0.5202  0.0123 -0.1789
  184MOL   O10537071   4.371   3.359   0.633 -0.2273  0.1191 -0.1577
  184MOL   N10637072   4.157   3.342   0.576  0.4414  0.2207 -0.6531
  184MOL   H10737073   4.305   3.118   0.851  0.0780 -0.7729 -1.3702
  184MOL   H10837074   4.161   3.127   0.929 -0.6106  2.9635  0.5879
  184MOL   H10937075   4.116   3.342   0.824  1.1305  0.7736  0.7490
  184MOL   H11037076   4.066   3.308   0.605  0.9451 -1.0665 -0.5957
  184MOL   H11137077   4.180   3.350   0.478 -2.1851 -2.6637 -1.5729
  184MOL   C11237078   4.307   3.371   0.909  0.0384 -0.4184  0.0495
  184MOL   C11337079   4.311   3.528   0.911 -0.4668 -0.1977 -0.1334
  184MOL   C11437080   4.455   3.583   0.890 -0.9876  0.3522 -0.4489
  184MOL   O11537081   4.526   3.627   0.983  0.4934  0.3851 -0.6183
  184MOL   N11637082   4.493   3.589   0.763 -0.1249 -0.4341 -0.0625
  184MOL   H11737083   4.411   3.341   0.915  0.0829 -0.4434 -0.8325
  184MOL   H11837084   4.271   3.335   1.006 -0.3883 -0.6045 -0.1755
  184MOL   H11937085   4.251   3.570   0.830  0.6238  3.0200  0.6663
  184MOL   H12037086   4.573   3.646   0.739 -1.5980  1.5464 -0.4529
  184MOL   H12137087   4.433   3.545   0.695 -2.2524  1.6866  0.3746
  184MOL   C12237088   4.257   3.578   1.046  0.1008  0.4090  0.0863
  184MOL   C12337089   4.109   3.541   1.048 -0.2309 -0.4623 -0.4612
  184MOL   C12437090   4.020   3.623   0.948  0.4475 -0.0637 -0.0371
  184MOL   O12537091   4.053   3.736   0.920 -0.0852  0.2724 -0.0359
  184MOL   N12637092   3.916   3.564   0.891  0.4827  0.1513  0.0667
  184MOL   H12737093   4.257   3.687   1.050 -0.7375  0.4378 -0.5136
  184MOL   H12837094   4.323   3.546   1.126 -0.0545  0.0932  0.0883
  184MOL   H12937095   4.083   3.438   1.022 -1.4355  0.2393 -2.1239
  184MOL   H13037096   3.869   3.628   0.828 -0.9584 -1.6670 -0.7536
  184MOL   H13137097   3.885   3.470   0.909  1.2205  0.1714  1.4613
  184MOL   C13237098   4.054   3.559   1.193  0.0397 -0.1427 -0.4710
  184MOL   C13337099   3.908   3.516   1.215  0.3000  0.0308  0.7198
  184MOL   C13437100   3.855   3.629   1.301 -0.3960  0.3868  0.6640
  184MOL   O13537101   3.882   3.636   1.418 -0.3782  0.2935  0.3590
  184MOL   N13637102   3.765   3.715   1.245 -0.0920  0.7780 -0.1730
  184MOL   H13737103   4.076   3.661   1.224  0.0774 -0.9195  2.1665
  184MOL   H13837104   4.115   3.502   1.263  1.0478 -1.5479 -2.4397
  184MOL   H13937105   3.841   3.518   1.129  0.8798 -0.0366  0.2618
  184MOL   H14037106   3.721   3.702   1.155  1.8140 -1.3637 -0.8421
  184MOL   H14137107   3.723   3.783   1.307  0.2278 -0.1461  1.0743
  184MOL   C14237108   3.895   3.384   1.293  0.3323 -0.4314  0.3472
  184MOL   C14337109   3.924   3.252   1.207  0.1779 -0.0445  0.0242
  184MOL   C14437110   3.835   3.248   1.082  0.9901  0.2849 -0.3529
  184MOL   O14537111   3.874   3.289   0.972 -0.4678  0.1761  0.2205
  184MOL   N14637112   3.717   3.198   1.102 -0.5001  0.5170 -0.5739
  184MOL   H14737113   3.794   3.382   1.335  0.0375 -0.1807 -0.3519
  184MOL   H14837114   3.961   3.396   1.380  2.3434  0.2747 -1.2497
  184MOL   H14937115   4.027   3.248   1.173 -0.2962 -2.5526 -1.2336
  184MOL   H15037116   3.653   3.185   1.025  0.0440  0.0620 -0.9472
  184MOL   H15137117   3.683   3.166   1.192  4.3033 -1.7601  0.5732
  184MOL   C15237118   3.919   3.121   1.289 -0.5915 -0.1600 -0.6496
  184MOL   C15337119   4.031   3.070   1.385  0.2830  0.1859  0.5259
  184MOL   C15437120   4.010   3.123   1.532  0.2812  0.0398  0.0525
  184MOL   O15537121   4.029   3.240   1.559 -0.1630 -0.4233 -0.6020
  184MOL   N15637122   3.966   3.037   1.623  0.5682 -0.4613  0.1883
  184MOL   H15737123   3.920   3.047   1.209 -1.0444 -0.6684 -0.1883
  184MOL   H15837124   3.823   3.120   1.340  0.2080  0.2029  0.8948
  184MOL   H15937125   4.017   2.963   1.394 -1.3637  0.1745 -1.7725
  184MOL   H16037126   3.944   2.947   1.582  1.7349 -0.1797 -1.1035
  184MOL   H16137127   3.948   3.056   1.720 -1.6976 -1.2247 -0.0522
  184MOL   C16237128   4.182   3.098   1.329 -0.6034  0.4355 -0.7409
  184MOL   C16337129   4.302   3.015   1.397  0.6441 -0.8087  0.3273
  184MOL   C16437130   4.331   3.064   1.537 -0.3667  0.0352 -1.0421
  184MOL   O16537131   4.363   3.183   1.562 -0.4482 -0.0961 -0.0764
  184MOL   N16637132   4.339   2.973   1.634 -0.5924 -0.2786  0.2431
  184MOL   H16737133   4.216   3.202   1.325  1.0938 -0.0808 -0.2937
  184MOL   H16837134   4.184   3.062   1.226  1.5462 -0.7435 -0.3118
  184MOL   H16937135   4.256   2.917   1.407 -0.5989 -0.2015  0.7176
  184MOL   H17037136   4.317   2.875   1.618 -0.7973 -0.2405  0.2861
  184MOL   H17137137   4.387   3.001   1.719  0.7841  0.3430 -0.7360
  184MOL   C17237138   4.429   3.018   1.310  0.3009 -0.5746  0.2501
  184MOL   C17337139   4.475   2.889   1.244 -0.0812  0.0585 -0.2517
  184MOL   C17437140   4.366   2.839   1.147  1.1654  0.4353 -0.4776
  184MOL   O17537141   4.258   2.792   1.182  1.0725  0.3814  0.5911
  184MOL   N17637142   4.402   2.833   1.021 -0.8371 -0.0132  1.2479
  184MOL   H17737143   4.510   3.056   1.372  2.7853 -4.2319 -0.5679
  184MOL   H17837144   4.421   3.094   1.232  1.8675 -1.0619 -0.4182
  184MOL   H17937145   4.563   2.902   1.182 -0.6799 -1.0163 -1.3539
  184MOL   H18037146   4.337   2.795   0.954  0.5601 -0.3811  0.0555
  184MOL   H18137147   4.485   2.878   0.985 -1.6657 -1.5436 -2.8480
  184MOL   C18237148   4.513   2.779   1.354  0.3391  0.0459 -0.6276
  184MOL   C18337149   4.665   2.771   1.392 -0.2730 -0.3593 -0.6802
  184MOL   C18437150   4.737   2.731   1.262  0.0165  1.2952  0.6364
  184MOL   O18537151   4.713   2.622   1.206  0.1617 -0.6500 -0.3485
  184MOL   N18637152   4.831   2.812   1.216  0.7151 -0.1815  0.1273
  184MOL   H18737153   4.475   2.679   1.333  1.0853  0.0908 -2.3002
  184MOL   H18837154   4.460   2.807   1.445  0.5731 -0.6759 -0.2638
  184MOL   H18937155   4.698   2.868   1.431 -0.1126 -0.5610 -0.3086
  184MOL   H19037156   4.841   2.904   1.256 -4.2129  1.9527 -3.1124
  184MOL   H19137157   4.877   2.799   1.127  1.6054  0.1595  0.5269
  184MOL   C19237158   4.691   2.671   1.499 -0.3963 -0.5385 -0.5330
  184MOL   C19337159   4.674   2.723   1.638 -0.3684  0.3248  0.3277
  184MOL   C19437160   4.736   2.619   1.740 -0.2401  0.2602 -0.0903
  184MOL   O19537161   4.851   2.635   1.776 -0.0580  0.1588  0.2615
  184MOL   N19637162   4.651   2.534   1.788 -0.6679 -0.0124  0.0306
  184MOL   H19737163   4.790   2.625   1.486  0.9775  2.1712  0.0696
  184MOL   H19837164   4.633   2.580   1.482  0.5143 -1.0429 -1.0350
  184MOL   H19937165   4.723   2.818   1.655  1.4856 -0.7132  0.8635
  184MOL   H20037166   4.559   2.536   1.746 -0.3164 -0.8728 -0.7963
  184MOL   H20137167   4.674   2.479   1.869 -0.9770  2.2215  1.6881
  184MOL   H20237168   4.569   2.742   1.661 -0.5647  0.7472 -0.8804
  185MOL     C137169   5.430   0.621   1.223  0.5006 -0.2153  0.0892
  185MOL     C237170   5.552   0.649   1.134 -0.4018 -0.5036  0.6207
  185MOL     C337171   5.597   0.801   1.163 -0.2322 -0.7095 -0.7209
  185MOL     O437172   5.583   0.844   1.276  0.1042  0.1881  0.1342
  185MOL     N537173   5.663   0.865   1.067 -0.7722  0.0389  0.3069
  185MOL     H637174   5.351   0.693   1.205  1.5112  0.8749 -0.0213
  185MOL     H737175   5.393   0.520   1.204  0.3391 -0.6275  2.4304
  185MOL     H837176   5.635   0.582   1.154 -0.5730 -1.3597 -1.3976
  185MOL     H937177   5.673   0.817   0.979 -0.4467  0.5474  0.0604
  185MOL    H1037178   5.709   0.954   1.080 -0.4453 -0.4197  2.5502
  185MOL    H1137179   5.457   0.624   1.328 -0.8283  1.0573  0.4003
  185MOL    C1237180   5.514   0.629   0.980  0.0884 -0.0774 -0.3909
  185MOL    C1337181   5.441   0.500   0.938  0.3584  0.2679  0.2742
  185MOL    C1437182   5.505   0.375   1.000  0.0825  0.5051 -0.2553
  185MOL    O1537183   5.623   0.344   0.993 -0.1034  0.3388  0.0053
  185MOL    N1637184   5.420   0.291   1.051 -0.3016 -0.6924  0.4318
  185MOL    H1737185   5.601   0.636   0.915  0.3258 -0.6223 -0.1335
  185MOL    H1837186   5.458   0.721   0.960  1.0962  0.6511  0.0969
  185MOL    H1937187   5.345   0.511   0.988  1.0108  0.5764  1.4692
  185MOL    H2037188   5.464   0.210   1.091 -0.5443 -1.6745 -1.2628
  185MOL    H2137189   5.322   0.313   1.062 -0.5800 -0.4301 -2.1108
  185MOL    C2237190   5.446   0.485   0.786 -0.0457  0.3273 -0.4009
  185MOL    C2337191   5.357   0.590   0.710 -0.7642  0.2590 -0.3357
  185MOL    C2437192   5.213   0.556   0.738  0.2850 -0.0890  0.1563
  185MOL    O2537193   5.175   0.440   0.770 -0.1273 -0.2534 -0.5616
  185MOL    N2637194   5.132   0.662   0.733 -0.8473 -0.3913 -0.2285
  185MOL    H2737195   5.414   0.389   0.747  1.2637  0.8121 -2.7216
  185MOL    H2837196   5.546   0.480   0.745 -0.1186 -0.5806 -0.4742
  185MOL    H2937197   5.376   0.688   0.755  2.0473  0.2158 -1.3006
  185MOL    H3037198   5.171   0.751   0.706 -0.5898 -0.2022  0.7536
  185MOL    H3137199   5.040   0.638   0.765 -0.3665 -2.8731 -0.5958
  185MOL    C3237200   5.379   0.586   0.559  0.6331 -0.1965 -0.4894
  185MOL    C3337201   5.516   0.592   0.495 -0.8464  0.0069  0.0072
  185MOL    C3437202   5.597   0.709   0.557  0.0002 -0.2160  0.3036
  185MOL    O3537203   5.570   0.830   0.536  0.0803  0.0693  0.3895
  185MOL    N3637204   5.684   0.681   0.658  0.8256 -0.3560 -0.5113
  185MOL    H3737205   5.327   0.674   0.522  1.4974  0.1238 -0.9556
  185MOL    H3837206   5.331   0.502   0.508  1.0502  0.2272 -1.6023
  185MOL    H3937207   5.569   0.501   0.520 -2.1455 -1.5753 -2.7567
  185MOL    H4037208   5.724   0.765   0.697 -0.8039  1.6839 -3.0015
  185MOL    H4137209   5.705   0.584   0.675 -0.8260 -0.7579 -0.6525
  185MOL    C4237210   5.495   0.596   0.335 -0.1206 -0.6621 -0.2549
  185MOL    C4337211   5.604   0.545   0.238  0.2074  0.1674 -0.2714
  185MOL    C4437212   5.631   0.400   0.283 -0.0995 -0.5350 -0.3495
  185MOL    O4537213   5.739   0.365   0.329 -0.0364  0.1746 -0.0650
  185MOL    N4637214   5.541   0.305   0.266  0.0620 -0.4862 -0.4171
  185MOL    H4737215   5.456   0.696   0.313  0.7236 -0.5099 -1.0965
  185MOL    H4837216   5.405   0.539   0.309 -0.7020  0.0644  0.1361
  185MOL    H4937217   5.551   0.534   0.143  2.1767 -1.1045 -1.2539
  185MOL    H5037218   5.471   0.326   0.197  0.2813  0.6238 -0.3260
  185MOL    H5137219   5.560   0.210   0.295 -0.2506 -0.2430  0.6143
  185MOL    C5237220   5.729   0.633   0.238  0.0017  0.3313 -0.0076
  185MOL    C5337221   5.828   0.600   0.124 -0.0265 -0.0986  0.7712
  185MOL    C5437222   5.972   0.666   0.145  0.0780 -0.1767 -0.1117
  185MOL    O5537223   5.970   0.791   0.153  0.4237  0.4076 -0.3786
  185MOL    N5637224   6.084   0.597   0.138  0.3442  0.5093 -0.3254
  185MOL    H5737225   5.778   0.613   0.334  0.7623  0.7297 -0.3094
  185MOL    H5837226   5.699   0.738   0.235 -1.8693 -0.1720  0.4896
  185MOL    H5937227   5.840   0.492   0.120  1.1733  0.0879 -1.0276
  185MOL    H6037228   6.073   0.497   0.130 -3.0245  0.6472  1.7032
  185MOL    H6137229   6.180   0.630   0.139  0.0775  1.2877  0.7897
  185MOL    C6237230   5.767   0.648   7.644  0.0158 -0.2786 -0.3489
  185MOL    C6337231   5.776   0.537   7.540 -0.7206 -0.3812 -0.1779
  185MOL    C6437232   5.919   0.486   7.499  0.4602 -0.4751 -0.4974
  185MOL    O6537233   6.006   0.563   7.449 -0.4944  0.1981  0.9053
  185MOL    N6637234   5.935   0.355   7.515 -0.5277  0.3637 -0.4639
  185MOL    H6737235   5.828   0.730   7.606 -0.6742  0.4483  0.1247
  185MOL    H6837236   5.667   0.685   0.004 -0.2511 -1.6900  1.3037
  185MOL    H6937237   5.722   0.448   7.572  0.3391 -0.9882 -0.0412
  185MOL    H7037238   5.856   0.304   7.553  0.6607 -0.8451  0.4331
  185MOL    H7137239   6.015   0.314   7.468  0.5436 -0.0356  1.6446
  185MOL    C7237240   5.698   0.596   7.419 -0.4481 -0.3520 -0.4209
  185MOL    C7337241   5.687   0.511   7.288 -0.2774  0.1556 -0.4883
  185MOL    C7437242   5.609   0.593   7.186  0.0243 -0.2599 -0.3574
  185MOL    O7537243   5.490   0.596   7.193  1.0706 -0.1324 -0.3651
  185MOL    N7637244   5.679   0.663   7.104 -0.8741  0.3005  0.0353
  185MOL    H7737245   5.743   0.692   7.393  2.1596 -1.0527  1.3140
  185MOL    H7837246   5.596   0.619   7.448  0.0194  1.5826 -0.2172
  185MOL    H7937247   5.785   0.501   7.240 -0.2754 -0.6710 -0.3102
  185MOL    H8037248   5.629   0.714   7.032 -4.2645 -1.1471  1.2302
  185MOL    H8137249   5.776   0.671   7.127 -0.4775 -2.7509 -0.4571
  185MOL    C8237250   5.618   0.373   7.314 -0.2167  1.0085 -0.0856
  185MOL    C8337251   5.617   0.272   7.201  0.7409 -0.0918 -0.1545
  185MOL    C8437252   5.517   0.162   7.219  0.2160  0.7427  0.8739
  185MOL    O8537253   5.519   0.096   7.321 -0.1885  0.0399  0.2767
  185MOL    N8637254   5.449   0.123   7.113  0.1183 -0.2123  0.2836
  185MOL    H8737255   5.519   0.400   7.348  0.0182  2.8526 -0.8157
  185MOL    H8837256   5.661   0.317   7.398  0.5592  1.9539  0.1652
  185MOL    H8937257   5.582   0.327   7.113  0.1788 -0.1456  0.0307
  185MOL    H9037258   5.375   0.055   7.122 -0.0566  0.1289  1.4517
  185MOL    H9137259   5.455   0.164   7.021 -0.4030  0.6300  0.6289
  185MOL    C9237260   5.752   0.212   7.164 -0.3655 -0.5338 -0.1502
  185MOL    C9337261   5.803   0.271   7.029 -0.0879 -0.1953 -0.1335
  185MOL    C9437262   5.809   0.158   6.928 -0.2965  0.2552  0.3577
  185MOL    O9537263   5.894   0.072   6.922 -0.2049  0.5750 -0.7412
  185MOL    N9637264   5.711   0.145   6.841 -0.0744  0.0825  0.2604
  185MOL    H9737265   5.740   0.104   7.154 -1.1724 -0.6769  2.0204
  185MOL    H9837266   5.826   0.208   7.243 -0.7127  1.7494  0.3238
  185MOL    H9937267   5.744   0.353   6.987  0.6969  0.2429 -0.4070
  185MOL   H10037268   5.628   0.202   6.829  0.3086  0.8933  1.3892
  185MOL   H10137269   5.726   0.079   6.766 -0.2464  1.3535 -0.9233
  185MOL   C10237270   5.946   0.332   7.040  0.1505  0.5919 -0.2053
  185MOL   C10337271   5.996   0.451   6.958  0.0382 -0.4164 -0.2421
  185MOL   C10437272   5.973   0.423   6.805 -0.0063 -0.6170  0.4532
  185MOL   O10537273   5.898   0.497   6.739 -0.3193 -0.4976  0.1390
  185MOL   N10637274   6.051   0.325   6.750 -0.2919 -0.6956  0.2070
  185MOL   H10737275   6.017   0.254   7.012 -1.3518 -0.7207 -0.4559
  185MOL   H10837276   5.977   0.353   7.143 -0.2684 -2.4609  0.6113
  185MOL   H10937277   5.927   0.534   6.976  1.8913  1.3901 -1.2369
  185MOL   H11037278   6.026   0.266   6.673 -1.5487 -1.8744  1.5038
  185MOL   H11137279   6.135   0.300   6.800  1.0472  0.6651 -1.3219
  185MOL   C11237280   6.136   0.496   7.006 -0.3421  0.5087  0.4394
  185MOL   C11337281   6.201   0.594   6.920  0.6771  0.6991 -0.4903
  185MOL   C11437282   6.347   0.607   6.964 -0.4143 -0.4511  0.1459
  185MOL   O11537283   6.376   0.637   7.080 -0.2279  0.5940  0.1491
  185MOL   N11637284   6.435   0.587   6.877  0.1012  0.6509 -0.3960
  185MOL   H11737285   6.192   0.405   7.026 -2.2210 -0.5266  1.0747
  185MOL   H11837286   6.116   0.538   7.105 -1.6671  0.4461  0.2089
  185MOL   H11937287   6.204   0.539   6.826  0.4093  0.8140 -0.5655
  185MOL   H12037288   6.530   0.579   6.912  0.1656 -0.3488 -0.7667
  185MOL   H12137289   6.409   0.543   6.790 -1.2982 -0.3363  0.4886
  185MOL   C12237290   6.135   0.730   6.892 -0.1344 -0.0859  0.2725
  185MOL   C12337291   6.132   0.845   7.001 -0.8633  0.5097  0.0774
  185MOL   C12437292   6.052   0.794   7.122  0.4885  0.4942 -0.1833
  185MOL   O12537293   5.936   0.757   7.114 -0.4998 -0.1342 -0.4397
  185MOL   N12637294   6.117   0.780   7.236 -0.0698  0.2796 -0.1007
  185MOL   H12737295   6.030   0.720   6.863 -0.1095 -0.5225  0.3209
  185MOL   H12837296   6.195   0.770   6.810 -1.1061 -1.5702 -1.1886
  185MOL   H12937297   6.234   0.873   7.026 -0.5811 -0.8220  0.4627
  185MOL   H13037298   6.199   0.838   7.240 -1.1703  1.8192  0.3447
  185MOL   H13137299   6.075   0.752   7.324  0.6299  2.0472  0.8071
  185MOL   C13237300   6.076   0.975   6.953 -0.3325 -0.1007  0.5686
  185MOL   C13337301   6.114   1.030   6.815  0.0095  0.0513 -0.6800
  185MOL   C13437302   6.262   1.065   6.803 -0.1544  0.0661 -0.6549
  185MOL   O13537303   6.301   1.178   6.846 -0.0883 -0.3210 -0.0214
  185MOL   N13637304   6.346   1.000   6.727  0.0524  0.3386 -0.2324
  185MOL   H13737305   6.114   1.056   7.015  1.1362 -0.1851 -0.2089
  185MOL   H13837306   5.967   0.971   6.958 -0.4217 -1.0028 -1.4769
  185MOL   H13937307   6.090   0.951   6.744 -3.4878  0.8217 -0.4541
  185MOL   H14037308   6.441   1.027   6.705 -0.1396 -0.6900 -2.4553
  185MOL   H14137309   6.321   0.908   6.693 -0.2565  0.7517 -1.1286
  185MOL   C14237310   6.009   1.150   6.786 -0.2432  0.3587  0.7771
  185MOL   C14337311   5.894   1.144   6.683 -0.0626  0.6792  0.4979
  185MOL   C14437312   5.771   1.061   6.728  0.7274 -0.3174 -0.4879
  185MOL   O14537313   5.775   0.953   6.785 -0.8248 -0.8684 -0.3565
  185MOL   N14637314   5.649   1.109   6.701  0.3234 -0.0862 -0.3272
  185MOL   H14737315   6.069   1.233   6.749 -0.3990  0.1993  0.1719
  185MOL   H14837316   5.972   1.177   6.885 -2.0607  2.3450 -0.4218
  185MOL   H14937317   5.846   1.241   6.698 -2.3076 -0.2370 -0.4287
  185MOL   H15037318   5.566   1.070   6.743  1.1110 -1.6123 -0.1329
  185MOL   H15137319   5.631   1.189   6.643  2.4657  0.0414 -0.8475
  185MOL   C15237320   5.943   1.097   6.545 -0.0088  0.0937 -0.4554
  185MOL   C15337321   6.074   1.160   6.484  0.1079 -0.4867  0.3052
  185MOL   C15437322   6.068   1.317   6.476  0.9411 -0.2234 -0.3423
  185MOL   O15537323   5.977   1.368   6.414 -0.0110  0.3887 -0.2308
  185MOL   N15637324   6.152   1.391   6.550 -0.5379  0.5974 -0.2218
  185MOL   H15737325   5.867   1.119   6.470 -0.1042  0.4147 -0.2659
  185MOL   H15837326   5.965   0.991   6.538  1.4026  0.1640  2.2592
  185MOL   H15937327   6.158   1.129   6.546  0.5356  1.6920  0.8716
  185MOL   H16037328   6.135   1.490   6.563 -2.7609 -0.0518  2.4276
  185MOL   H16137329   6.222   1.352   6.611 -0.9037  1.0142  0.4722
  185MOL   C16237330   6.094   1.099   6.340 -0.4977  0.3797  0.0069
  185MOL   C16337331   6.235   1.108   6.278  0.2563 -0.3367 -0.2774
  185MOL   C16437332   6.231   1.034   6.143  0.0470 -0.0790  0.3841
  185MOL   O16537333   6.229   0.911   6.133  0.0600 -0.0550  0.5748
  185MOL   N16637334   6.221   1.106   6.025  0.2626 -0.7317 -0.6891
  185MOL   H16737335   6.020   1.135   6.267 -0.6191  1.3671  0.6049
  185MOL   H16837336   6.082   0.991   6.350  0.2712  0.1963 -1.0332
  185MOL   H16937337   6.249   1.210   6.242  0.5579 -0.9080 -1.8508
  185MOL   H17037338   6.242   1.205   6.028  1.4051 -1.0033  3.2431
  185MOL   H17137339   6.212   1.052   5.940  2.6203  0.9670 -2.0822
  185MOL   C17237340   6.342   1.065   6.374  0.5268  0.0299  0.0208
  185MOL   C17337341   6.487   1.065   6.321  0.2273  0.5521  0.7204
  185MOL   C17437342   6.586   1.020   6.433  1.2247  0.1960 -0.0720
  185MOL   O17537343   6.559   1.035   6.554 -0.2861 -0.2143  0.1216
  185MOL   N17637344   6.699   0.962   6.407  0.7415 -0.1908  0.3261
  185MOL   H17737345   6.305   0.977   6.427  1.4077 -1.1701 -1.2966
  185MOL   H17837346   6.353   1.144   6.448 -1.3580  0.4409 -0.0988
  185MOL   H17937347   6.499   0.995   6.239 -1.0357 -0.8750  1.7163
  185MOL   H18037348   6.755   0.934   6.487  0.0803  0.9144  1.1939
  185MOL   H18137349   6.734   0.951   6.313 -1.9811  1.3580 -0.9366
  185MOL   C18237350   6.539   1.200   6.261 -0.9017 -0.2040  0.8315
  185MOL   C18337351   6.654   1.195   6.157 -0.0525  0.1078 -0.0260
  185MOL   C18437352   6.720   1.334   6.160  0.7941  0.5099  0.5472
  185MOL   O18537353   6.655   1.441   6.177 -0.5313  0.3055 -0.3086
  185MOL   N18637354   6.849   1.339   6.134 -0.4881 -0.0335  0.1779
  185MOL   H18737355   6.568   1.263   6.346 -0.8696  0.0735  0.6123
  185MOL   H18837356   6.457   1.247   6.207  0.4094 -1.1212 -2.0429
  185MOL   H18937357   6.733   1.123   6.178 -0.5045 -0.6189 -0.8053
  185MOL   H19037358   6.893   1.429   6.141 -0.9231  0.0252  2.9202
  185MOL   H19137359   6.911   1.262   6.113 -0.5531 -0.4443  1.4512
  185MOL   C19237360   6.600   1.180   6.009  0.5821 -1.2943 -0.2657
  185MOL   C19337361   6.585   1.039   5.945  0.1436 -0.2737  0.2537
  185MOL   C19437362   6.479   1.023   5.833 -0.0528  0.4670  0.1835
  185MOL   O19537363   6.426   1.119   5.780 -0.4950 -0.3574  0.2138
  185MOL   N19637364   6.434   0.901   5.805  0.3255  0.6445  0.0225
  185MOL   H19737365   6.673   1.232   5.946  0.3462 -1.6076 -0.8012
  185MOL   H19837366   6.510   1.239   5.992  2.6325  1.3174 -2.4717
  185MOL   H19937367   6.682   0.996   5.920  1.7055  1.7616  2.6012
  185MOL   H20037368   6.351   0.889   5.749  1.3251 -1.5862 -1.0466
  185MOL   H20137369   6.468   0.826   5.863 -0.9639  0.0031 -0.0489
  185MOL   H20237370   6.556   0.967   6.022 -1.4616  0.6307  0.5006
  186MOL     C137371   2.422   2.155   1.960  0.1667 -0.6799  0.7814
  186MOL     C237372   2.474   2.174   1.815  0.1095  0.0182 -0.0781
  186MOL     C337373   2.629   2.208   1.802 -0.1019 -0.6286  0.3916
  186MOL     O437374   2.690   2.258   1.896  0.2719 -0.2287 -0.0087
  186MOL     N537375   2.688   2.177   1.689  0.0478  0.3547  0.1394
  186MOL     H637376   2.446   2.233   2.032 -2.8990  0.5336  0.5720
  186MOL     H737377   2.313   2.159   1.958  0.1788 -0.6660 -0.9416
  186MOL     H837378   2.468   2.079   1.761  2.6085 -0.4343  0.3837
  186MOL     H937379   2.783   2.202   1.666 -0.2913  0.6371 -0.9761
  186MOL    H1037380   2.637   2.134   1.613  1.7146  2.6117 -2.3623
  186MOL    H1137381   2.466   2.060   1.990  0.0620 -1.0400 -0.1835
  186MOL    C1237382   2.395   2.292   1.740  0.2912 -0.1269 -0.3530
  186MOL    C1337383   2.272   2.261   1.652 -0.1528  0.0080 -0.2126
  186MOL    C1437384   2.147   2.227   1.736  0.3036 -0.3213  0.7434
  186MOL    O1537385   2.059   2.311   1.754  0.1210  1.4219 -0.0699
  186MOL    N1637386   2.132   2.103   1.773 -0.4292 -0.2436 -0.2176
  186MOL    H1737387   2.456   2.375   1.705 -2.2137  1.1643 -1.7550
  186MOL    H1837388   2.350   2.358   1.814 -1.4423  0.0874 -1.5847
  186MOL    H1937389   2.253   2.357   1.604  0.9631  0.1237 -0.4366
  186MOL    H2037390   2.214   2.044   1.782 -0.1550  0.3325  1.3745
  186MOL    H2137391   2.048   2.078   1.823 -0.2356  1.7110  1.1639
  186MOL    C2237392   2.309   2.161   1.545 -0.3077 -0.3662  0.0389
  186MOL    C2337393   2.197   2.147   1.443 -0.1865 -0.4596 -0.0273
  186MOL    C2437394   2.146   2.000   1.433  0.0014 -0.7008  0.6574
  186MOL    O2537395   2.198   1.929   1.350  0.4239 -0.0065  0.2632
  186MOL    N2637396   2.073   1.958   1.528 -0.6739  0.9572 -0.7361
  186MOL    H2737397   2.335   2.069   1.598  0.5698  0.8703  1.8223
  186MOL    H2837398   2.406   2.195   1.508 -0.5839 -0.7635 -1.0368
  186MOL    H2937399   2.105   2.199   1.473  0.8854  1.8734 -0.6603
  186MOL    H3037400   2.072   1.857   1.529  1.6541  0.9096 -1.3780
  186MOL    H3137401   2.040   2.010   1.609  0.6379 -0.4527  0.7481
  186MOL    C3237402   2.246   2.197   1.305 -1.1710  0.0572 -0.9800
  186MOL    C3337403   2.245   2.353   1.289 -0.2044  0.2536 -0.8810
  186MOL    C3437404   2.125   2.402   1.210 -0.0965 -0.6507 -0.0748
  186MOL    O3537405   2.108   2.360   1.094 -0.5277 -0.1431 -0.0558
  186MOL    N3637406   2.037   2.491   1.258  0.4231  0.1612 -0.1961
  186MOL    H3737407   2.200   2.149   1.219 -2.8857 -1.4267  0.7295
  186MOL    H3837408   2.350   2.172   1.283 -0.7304 -0.6880  1.7921
  186MOL    H3937409   2.224   2.390   1.389 -0.6143  0.9518 -1.2204
  186MOL    H4037410   1.966   2.540   1.206  0.2578  0.6342  0.4821
  186MOL    H4137411   2.054   2.517   1.354  1.9521  0.4955 -0.5574
  186MOL    C4237412   2.374   2.416   1.229 -0.2585 -0.6362 -0.2282
  186MOL    C4337413   2.509   2.419   1.313 -0.2149  0.0234 -0.0863
  186MOL    C4437414   2.512   2.534   1.410 -0.4868  0.4238  0.7188
  186MOL    O4537415   2.613   2.590   1.444  1.1359  0.2145 -0.2254
  186MOL    N4637416   2.401   2.565   1.477 -0.3334  0.3442  0.0475
  186MOL    H4737417   2.348   2.516   1.193 -0.7350 -0.4920  0.5147
  186MOL    H4837418   2.396   2.370   1.132  2.3354 -0.9090  0.4579
  186MOL    H4937419   2.514   2.328   1.373 -0.2670  0.7007  0.9528
  186MOL    H5037420   2.413   2.630   1.553 -0.8872  0.0818  0.3544
  186MOL    H5137421   2.311   2.527   1.451 -0.8165  2.5982 -1.8225
  186MOL    C5237422   2.639   2.410   1.221 -0.3692  0.0569 -0.2192
  186MOL    C5337423   2.751   2.320   1.281  0.0882 -0.4180  0.7409
  186MOL    C5437424   2.873   2.335   1.191  0.0932  0.0028  0.0372
  186MOL    O5537425   2.869   2.318   1.068 -0.6807 -0.0594 -0.6664
  186MOL    N5637426   2.980   2.384   1.250 -0.2074 -0.4833  0.3261
  186MOL    H5737427   2.678   2.510   1.205  2.0544 -0.5653  1.4716
  186MOL    H5837428   2.615   2.375   1.121  1.2340 -0.6926 -0.3545
  186MOL    H5937429   2.760   2.357   1.383  1.6830 -1.3087  0.9300
  186MOL    H6037430   3.060   2.409   1.193  1.8695 -2.3592  2.2924
  186MOL    H6137431   2.995   2.407   1.347  2.4209 -0.5220 -0.0236
  186MOL    C6237432   2.714   2.170   1.296  0.2777 -0.0766 -0.0544
  186MOL    C6337433   2.828   2.077   1.329 -1.1719  1.2825  0.0093
  186MOL    C6437434   2.904   2.018   1.206 -0.9277 -0.2033  0.0831
  186MOL    O6537435   2.854   1.997   1.101 -0.1897 -0.4093 -0.5501
  186MOL    N6637436   3.022   1.969   1.230 -0.0480 -0.3759  0.1783
  186MOL    H6737437   2.662   2.134   1.207 -2.5662  0.8069  1.1998
  186MOL    H6837438   2.644   2.164   1.379  0.8098 -0.4611  0.3725
  186MOL    H6937439   2.901   2.130   1.391 -1.1713  1.3908 -0.0854
  186MOL    H7037440   3.055   1.975   1.325  0.4680 -3.8518  0.2894
  186MOL    H7137441   3.072   1.917   1.159  0.3245 -0.2591  0.3580
  186MOL    C7237442   2.783   1.956   1.412 -0.2594  0.1615  0.0240
  186MOL    C7337443   2.693   1.843   1.346 -0.1065 -1.0409  0.0590
  186MOL    C7437444   2.542   1.856   1.377 -0.1158  0.5858  0.5652
  186MOL    O7537445   2.498   1.802   1.474 -0.4764  0.3993 -0.0848
  186MOL    N7637446   2.461   1.930   1.295  0.6639  1.1731  0.2637
  186MOL    H7737447   2.729   1.994   1.499  0.1304  1.1991 -0.1920
  186MOL    H7837448   2.873   1.920   1.462  1.0210 -0.3362 -2.5540
  186MOL    H7937449   2.696   1.864   1.239  1.9826  0.9258  0.4603
  186MOL    H8037450   2.491   1.965   1.205 -1.4680 -0.1183 -0.9993
  186MOL    H8137451   2.362   1.939   1.306  0.9187  2.4059  1.6786
  186MOL    C8237452   2.750   1.699   1.375  0.0398 -0.5119 -0.7837
  186MOL    C8337453   2.872   1.646   1.292 -0.3852  0.5157 -0.7249
  186MOL    C8437454   2.824   1.626   1.148 -0.0178 -0.1311  1.0689
  186MOL    O8537455   2.724   1.561   1.124 -0.1304 -0.2910  0.0470
  186MOL    N8637456   2.899   1.672   1.049 -0.0373  0.1560 -0.7884
  186MOL    H8737457   2.670   1.625   1.365 -0.7397  0.3508 -0.9221
  186MOL    H8837458   2.780   1.704   1.480 -0.8670  0.0394 -0.5472
  186MOL    H8937459   2.957   1.714   1.286 -2.2278  2.8090 -1.5884
  186MOL    H9037460   2.858   1.670   0.957 -1.4959  0.9834 -0.1737
  186MOL    H9137461   2.971   1.741   1.065  0.5177 -0.7181  0.5049
  186MOL    C9237462   2.928   1.509   1.344  0.6475 -0.4397 -0.2806
  186MOL    C9337463   3.003   1.503   1.487  0.3107 -0.3084 -0.7374
  186MOL    C9437464   3.086   1.633   1.513 -0.2311 -0.3452  0.0034
  186MOL    O9537465   3.204   1.652   1.474 -0.0080  0.3801 -0.1503
  186MOL    N9637466   3.027   1.724   1.586 -0.0014  0.0030  0.6848
  186MOL    H9737467   3.001   1.474   1.272  0.7812 -0.8960  0.0804
  186MOL    H9837468   2.848   1.436   1.352 -2.2359  2.7265  1.4828
  186MOL    H9937469   2.927   1.498   1.565  1.2964  0.6554  0.2956
  186MOL   H10037470   3.076   1.813   1.588  0.6621 -0.3713  1.1333
  186MOL   H10137471   2.932   1.710   1.617 -0.2400 -1.4088 -0.6434
  186MOL   C10237472   3.101   1.382   1.504  0.6357 -0.4529  0.3646
  186MOL   C10337473   3.183   1.373   1.643 -0.2330  0.4752 -0.1444
  186MOL   C10437474   3.313   1.287   1.634 -0.2201  0.5471  0.5074
  186MOL   O10537475   3.316   1.170   1.611  0.2296 -0.3888 -0.1759
  186MOL   N10637476   3.425   1.345   1.670  0.4099 -0.4796  0.1341
  186MOL   H10737477   3.181   1.385   1.431  0.9006  3.7005  0.6897
  186MOL   H10837478   3.058   1.285   1.480  1.5261 -1.2337  1.8877
  186MOL   H10937479   3.222   1.469   1.678  0.6326 -0.1569  0.6465
  186MOL   H11037480   3.507   1.289   1.691  1.1062  0.7323  0.7432
  186MOL   H11137481   3.427   1.445   1.684 -0.6205 -0.1532 -1.9130
  186MOL   C11237482   3.083   1.332   1.755 -0.0774  0.0720  0.0898
  186MOL   C11337483   3.139   1.328   1.902 -0.1787 -0.0194 -0.6114
  186MOL   C11437484   3.044   1.246   1.993  0.4143  0.4210  0.0492
  186MOL   O11537485   2.934   1.290   2.016  0.3974  0.1380  0.4060
  186MOL   N11637486   3.078   1.130   2.050  0.1544 -0.5864 -0.8132
  186MOL   H11737487   3.031   1.240   1.726 -1.0346  0.7291 -0.2923
  186MOL   H11837488   3.005   1.408   1.753 -1.1051 -0.9344  0.6933
  186MOL   H11937489   3.233   1.273   1.906  0.2734  0.7794 -0.2311
  186MOL   H12037490   3.173   1.101   2.066  0.6256  1.6063  0.7034
  186MOL   H12137491   3.010   1.082   2.108  1.7219 -1.7682  0.0806
  186MOL   C12237492   3.158   1.471   1.963  0.1382  0.2791  0.0367
  186MOL   C12337493   3.257   1.477   2.085  0.9705  1.0752  0.0306
  186MOL   C12437494   3.207   1.591   2.178 -0.0306 -0.4081  0.2372
  186MOL   O12537495   3.253   1.705   2.168  0.0213 -0.9488 -0.5634
  186MOL   N12637496   3.112   1.563   2.270  0.4336 -0.2278 -0.0532
  186MOL   H12737497   3.064   1.512   2.000 -1.3665 -3.7773  0.9593
  186MOL   H12837498   3.188   1.542   1.886  2.6218 -1.0624 -0.2723
  186MOL   H12937499   3.244   1.385   2.142  1.1979  1.0065 -0.0294
  186MOL   H13037500   3.064   1.474   2.278 -0.8196  0.2525 -1.8109
  186MOL   H13137501   3.075   1.639   2.325  0.5354 -0.5901  0.5208
  186MOL   C13237502   3.405   1.480   2.033  0.2191 -0.0726  0.4198
  186MOL   C13337503   3.509   1.457   2.137  0.4156 -0.3160  0.2015
  186MOL   C13437504   3.651   1.503   2.100 -0.3575  0.1814  0.3546
  186MOL   O13537505   3.744   1.483   2.179 -0.1360 -0.6299 -0.1444
  186MOL   N13637506   3.677   1.560   1.986  0.6603  0.3535 -0.2227
  186MOL   H13737507   3.424   1.579   1.992 -0.0375 -0.6162 -1.0175
  186MOL   H13837508   3.425   1.416   1.947  0.9263  2.3470 -1.2601
  186MOL   H13937509   3.490   1.537   2.209  0.1357 -0.7928  0.6651
  186MOL   H14037510   3.775   1.563   1.964  0.4696 -0.3736 -1.2152
  186MOL   H14137511   3.606   1.570   1.914 -3.1960 -1.7996  3.0642
  186MOL   C14237512   3.504   1.331   2.218  0.2777 -0.8758 -0.5447
  186MOL   C14337513   3.561   1.203   2.148 -0.0949 -0.5697  0.2567
  186MOL   C14437514   3.453   1.143   2.046 -0.5424 -0.1827  0.1370
  186MOL   O14537515   3.342   1.107   2.085  0.0096 -0.1064  0.1665
  186MOL   N14637516   3.489   1.128   1.921 -0.7571 -0.3418  0.4061
  186MOL   H14737517   3.404   1.319   2.261  0.8129 -0.1751  0.9345
  186MOL   H14837518   3.571   1.342   2.304 -0.9923  0.0699  0.3578
  186MOL   H14937519   3.641   1.237   2.082  0.5999 -0.0993  1.3359
  186MOL   H15037520   3.428   1.094   1.849 -0.5635  0.6811 -0.2512
  186MOL   H15137521   3.583   1.149   1.889 -0.6136 -1.7582 -0.1727
  186MOL   C15237522   3.621   1.098   2.243  0.4765 -0.2072 -0.4632
  186MOL   C15337523   3.750   1.137   2.310  0.1954  0.7492 -0.2024
  186MOL   C15437524   3.864   1.156   2.203  0.2680 -0.1391 -0.3021
  186MOL   O15537525   3.915   1.056   2.148 -0.0206 -0.6034  0.4472
  186MOL   N15637526   3.897   1.280   2.163 -0.1818  0.1634  0.3354
  186MOL   H15737527   3.655   1.011   2.187  0.4563 -0.3597 -0.2401
  186MOL   H15837528   3.540   1.065   2.308  0.3089 -0.8499 -0.9966
  186MOL   H15937529   3.732   1.231   2.362  0.4843  0.7976 -0.1891
  186MOL   H16037530   3.839   1.362   2.162  2.1128  1.8509 -2.6416
  186MOL   H16137531   3.983   1.295   2.111 -0.9067 -2.3132 -1.7156
  186MOL   C16237532   3.797   1.038   2.427 -0.4321  0.4855  0.6182
  186MOL   C16337533   3.871   1.103   2.551 -0.2733 -0.1520  0.2079
  186MOL   C16437534   3.992   1.192   2.503 -0.1826 -0.0890 -0.0474
  186MOL   O16537535   4.104   1.144   2.493  0.0644  0.2810  0.2506
  186MOL   N16637536   3.962   1.324   2.499 -0.4185  0.0853  0.2312
  186MOL   H16737537   3.841   0.955   2.372 -0.9532  0.2803  0.5037
  186MOL   H16837538   3.709   0.993   2.473 -0.0103 -1.5641 -0.5219
  186MOL   H16937539   3.802   1.170   2.603  1.2029  1.5978 -0.0401
  186MOL   H17037540   4.030   1.385   2.454 -0.6341 -0.4014 -0.7731
  186MOL   H17137541   3.866   1.346   2.522 -1.0479 -1.3172 -1.0341
  186MOL   C17237542   3.919   0.985   2.638  0.4249  0.6465  0.8303
  186MOL   C17337543   3.921   1.023   2.786  0.2411  0.3644  0.0386
  186MOL   C17437544   4.064   1.013   2.845 -0.7728  1.1864 -0.5196
  186MOL   O17537545   4.139   0.916   2.813  0.0985 -0.4942  0.2530
  186MOL   N17637546   4.115   1.109   2.916 -0.5798  0.0594 -0.0803
  186MOL   H17737547   4.020   0.954   2.614 -0.0014  0.0417 -0.2285
  186MOL   H17837548   3.863   0.893   2.619 -0.1066  1.1230  0.0621
  186MOL   H17937549   3.892   1.128   2.785 -0.1469  0.2877  1.8760
  186MOL   H18037550   4.064   1.194   2.938  0.1181  0.4817 -0.1002
  186MOL   H18137551   4.210   1.093   2.945 -0.2291  0.0547 -1.2286
  186MOL   C18237552   3.821   0.934   2.867  0.2190 -0.5543 -0.3507
  186MOL   C18337553   3.683   0.994   2.890 -0.6528 -0.8618  0.5936
  186MOL   C18437554   3.700   1.111   2.988 -0.6214  0.1384  0.5555
  186MOL   O18537555   3.735   1.098   3.105 -0.4522 -0.0241  0.6588
  186MOL   N18637556   3.690   1.229   2.932  0.3859 -0.2135 -0.2316
  186MOL   H18737557   3.863   0.898   2.962 -1.6270  3.0707  1.9483
  186MOL   H18837558   3.811   0.836   2.820 -0.3150 -1.3227  1.3184
  186MOL   H18937559   3.664   1.026   2.787  1.0178  0.5248  0.6849
  186MOL   H19037560   3.665   1.232   2.834 -0.0696  0.0580 -0.1079
  186MOL   H19137561   3.718   1.308   2.989  0.0206 -0.1137 -0.1874
  186MOL   C19237562   3.574   0.898   2.929 -0.4461 -0.1638 -0.2292
  186MOL   C19337563   3.433   0.962   2.942 -0.2458  0.4694  0.1902
  186MOL   C19437564   3.317   0.855   2.953  0.0775 -0.7530 -0.1862
  186MOL   O19537565   3.260   0.814   2.850 -0.2130 -0.3494  0.0122
  186MOL   N19637566   3.272   0.833   3.074  0.3077  0.3057 -0.0724
  186MOL   H19737567   3.594   0.866   3.031 -0.2739  1.7674  0.3558
  186MOL   H19837568   3.585   0.814   2.860 -2.0057 -0.4196 -0.1916
  186MOL   H19937569   3.423   1.022   3.032 -0.2783 -0.8278  1.0750
  186MOL   H20037570   3.192   0.775   3.094  0.9105  0.1244  1.8673
  186MOL   H20137571   3.314   0.880   3.153 -0.7535  0.8722  0.1585
  186MOL   H20237572   3.414   1.036   2.865 -0.3162 -2.1331 -2.3949
  187MOL     C137573   4.938   1.662   5.188 -0.5022 -0.1128  0.5685
  187MOL     C237574   4.978   1.774   5.293 -0.3861 -0.0551  0.4070
  187MOL     C337575   5.102   1.728   5.375  0.4877  0.3392  0.2302
  187MOL     O437576   5.097   1.622   5.440 -0.4952 -0.9779 -0.4089
  187MOL     N537577   5.199   1.815   5.374  0.2185  0.6600  0.0400
  187MOL     H637578   5.021   1.623   5.130 -1.9542  0.6943 -2.1114
  187MOL     H737579   4.905   1.573   5.242  1.4396 -1.0557  0.2321
  187MOL     H837580   5.012   1.861   5.236 -0.8244  0.6864  1.2616
  187MOL     H937581   5.181   1.887   5.305 -1.0113  0.3367  0.0274
  187MOL    H1037582   5.296   1.795   5.395  0.0781  1.2012  1.2227
  187MOL    H1137583   4.857   1.690   5.121 -0.8384  0.3846  1.1734
  187MOL    C1237584   4.861   1.812   5.378  1.2576 -0.0657  0.5080
  187MOL    C1337585   4.742   1.873   5.295  0.1039 -0.1398  0.1265
  187MOL    C1437586   4.783   2.003   5.222 -0.1399  0.0738  0.6169
  187MOL    O1537587   4.864   2.084   5.266 -0.2937  0.0808 -0.3981
  187MOL    N1637588   4.745   2.017   5.102 -0.2238  0.2551  0.5709
  187MOL    H1737589   4.904   1.882   5.451 -0.3475  1.3074  0.1823
  187MOL    H1837590   4.823   1.726   5.433  0.5885  0.8762  1.5621
  187MOL    H1937591   4.713   1.795   5.225 -2.7944  1.3286 -0.3679
  187MOL    H2037592   4.672   1.954   5.070 -1.5930  0.7790  2.6363
  187MOL    H2137593   4.762   2.104   5.054  1.0662  0.4573  1.3807
  187MOL    C2237594   4.624   1.906   5.387 -0.1537  0.7091 -0.1260
  187MOL    C2337595   4.565   1.801   5.486  0.7293  0.2503 -0.1360
  187MOL    C2437596   4.537   1.671   5.412 -0.8369 -0.6932  0.0742
  187MOL    O2537597   4.456   1.679   5.319  0.3673 -0.1990 -0.0705
  187MOL    N2637598   4.605   1.565   5.440  0.1889  0.3002  0.1700
  187MOL    H2737599   4.548   1.947   5.322  0.0957  2.1679  0.4778
  187MOL    H2837600   4.658   1.990   5.448  2.0324  0.1540 -0.5247
  187MOL    H2937601   4.642   1.781   5.560 -1.0991 -0.5171  1.6010
  187MOL    H3037602   4.660   1.557   5.525  0.8478  1.2355 -0.1602
  187MOL    H3137603   4.597   1.489   5.374  1.0756  0.2201  0.1478
  187MOL    C3237604   4.439   1.844   5.562  0.5114 -0.0738 -0.2716
  187MOL    C3337605   4.414   1.787   5.704 -0.1259 -0.9734 -0.1348
  187MOL    C3437606   4.269   1.719   5.716 -0.5753 -0.0412  0.2053
  187MOL    O3537607   4.169   1.789   5.743 -0.5485  0.0278 -0.0238
  187MOL    N3637608   4.265   1.587   5.696 -0.3120 -1.0036  0.3191
  187MOL    H3737609   4.352   1.826   5.498 -1.2902  0.8202  1.8895
  187MOL    H3837610   4.441   1.952   5.565 -2.5750  0.0414 -0.6417
  187MOL    H3937611   4.483   1.704   5.717 -0.2137 -0.8884  0.9881
  187MOL    H4037612   4.343   1.528   5.671  0.6196  1.0606 -1.9021
  187MOL    H4137613   4.181   1.533   5.712 -0.8301  0.1979  1.7607
  187MOL    C4237614   4.437   1.901   5.811 -1.2048 -0.4057 -0.2464
  187MOL    C4337615   4.593   1.937   5.830 -0.0512 -0.1426  0.0134
  187MOL    C4437616   4.683   1.826   5.884  0.2083  0.4613 -0.0403
  187MOL    O4537617   4.637   1.736   5.961  0.2221  0.2722  1.1293
  187MOL    N4637618   4.810   1.834   5.850 -0.1093 -0.1112 -0.0544
  187MOL    H4737619   4.398   1.865   5.905  0.3282 -3.5390 -0.7610
  187MOL    H4837620   4.381   1.994   5.798 -1.9272 -0.0381  4.7178
  187MOL    H4937621   4.633   1.946   5.729 -0.5958  0.4556 -0.1547
  187MOL    H5037622   4.837   1.918   5.801  2.4426 -0.8252  0.0420
  187MOL    H5137623   4.873   1.782   5.909  0.4554 -0.4525 -0.9477
  187MOL    C5237624   4.608   2.071   5.904  0.8130  0.4361 -0.0048
  187MOL    C5337625   4.663   2.181   5.804  0.7314 -0.6349 -0.1090
  187MOL    C5437626   4.817   2.173   5.790  0.2513 -0.0967  0.0444
  187MOL    O5537627   4.890   2.198   5.883 -0.4106 -0.7538  0.3683
  187MOL    N5637628   4.864   2.137   5.674 -0.8934  0.4026 -0.3360
  187MOL    H5737629   4.675   2.063   5.990 -0.0784 -0.4888  0.6136
  187MOL    H5837630   4.513   2.106   5.943  0.2400  0.2567 -1.2380
  187MOL    H5937631   4.606   2.180   5.711 -1.5599  1.0978  1.2241
  187MOL    H6037632   4.964   2.133   5.656 -0.7045  0.1379  0.7156
  187MOL    H6137633   4.809   2.143   5.590 -0.5067  1.4559 -0.5267
  187MOL    C6237634   4.640   2.329   5.855 -0.1523  0.2929 -0.7086
  187MOL    C6337635   4.671   2.439   5.754  0.0136 -0.1293  0.5064
  187MOL    C6437636   4.789   2.525   5.808  0.2321  0.3886  0.2546
  187MOL    O6537637   4.778   2.594   5.905 -0.3240  0.3284 -0.0915
  187MOL    N6637638   4.905   2.516   5.741  0.1214 -0.3142  0.1642
  187MOL    H6737639   4.694   2.333   5.950 -0.6960 -2.3766 -0.2527
  187MOL    H6837640   4.538   2.335   5.893 -0.1689  1.4136 -0.9250
  187MOL    H6937641   4.691   2.392   5.658  1.3123  0.1431  0.6278
  187MOL    H7037642   4.894   2.478   5.648 -2.3778  1.1253 -0.1727
  187MOL    H7137643   4.968   2.594   5.757 -0.4002  0.1462 -0.0314
  187MOL    C7237644   4.547   2.531   5.740 -0.5751  0.4341 -0.5142
  187MOL    C7337645   4.555   2.618   5.618  0.4932 -0.3049 -0.8587
  187MOL    C7437646   4.443   2.719   5.606 -0.4154  0.4223 -0.7986
  187MOL    O7537647   4.348   2.715   5.686  0.0989 -0.3952  0.7179
  187MOL    N7637648   4.448   2.796   5.495 -0.0791  0.2205 -0.1081
  187MOL    H7737649   4.522   2.592   5.826 -1.8264 -1.6461  0.6579
  187MOL    H7837650   4.455   2.472   5.735 -0.9037  0.9128 -0.2282
  187MOL    H7937651   4.639   2.685   5.636 -0.4804  0.6572  0.1920
  187MOL    H8037652   4.368   2.854   5.471 -0.1037  0.8710  1.4781
  187MOL    H8137653   4.526   2.788   5.432 -1.4012 -0.0186 -1.7474
  187MOL    C8237654   4.566   2.541   5.485  0.2970 -0.0636  0.3809
  187MOL    C8337655   4.706   2.539   5.415  0.5628  0.5874 -0.1189
  187MOL    C8437656   4.766   2.674   5.382  0.4932  0.7553 -0.4078
  187MOL    O8537657   4.703   2.771   5.340  0.5482  0.9683  0.7118
  187MOL    N8637658   4.900   2.686   5.404 -0.2984  0.6890  0.1430
  187MOL    H8737659   4.490   2.567   5.411  1.1071  2.5878  0.4449
  187MOL    H8837660   4.543   2.436   5.503 -2.4089  0.7913  2.1581
  187MOL    H8937661   4.765   2.483   5.487 -2.4886 -0.7059  1.5072
  187MOL    H9037662   4.939   2.605   5.449 -1.2888  0.6817  1.0155
  187MOL    H9137663   4.950   2.766   5.366 -1.3370  1.4788  0.3937
  187MOL    C9237664   4.707   2.447   5.288 -0.5598 -0.5285  0.5036
  187MOL    C9337665   4.597   2.453   5.176 -0.3760 -0.5800 -0.7187
  187MOL    C9437666   4.605   2.311   5.116  0.0479  0.1556 -0.5496
  187MOL    O9537667   4.699   2.279   5.047 -0.0498  0.4085  0.0423
  187MOL    N9637668   4.502   2.226   5.138 -0.0798 -0.2600  0.2588
  187MOL    H9737669   4.730   2.346   5.322  3.4241 -0.2916 -1.1660
  187MOL    H9837670   4.805   2.469   5.245 -0.0246 -2.0968  0.9003
  187MOL    H9937671   4.504   2.446   5.233  0.4774 -1.8070  0.5714
  187MOL   H10037672   4.512   2.130   5.110 -0.7101 -0.2150 -0.1102
  187MOL   H10137673   4.436   2.265   5.205 -0.3965  2.1312 -1.4007
  187MOL   C10237674   4.606   2.571   5.082  0.6483  0.8026 -0.5309
  187MOL   C10337675   4.475   2.613   5.017 -0.3140  0.2201 -0.2214
  187MOL   C10437676   4.411   2.505   4.923  0.3376  0.0015  0.0305
  187MOL   O10537677   4.469   2.465   4.819 -0.2656  0.1667 -0.4008
  187MOL   N10637678   4.293   2.457   4.962  0.4264  0.1080 -0.2280
  187MOL   H10737679   4.679   2.546   5.005  0.1094 -1.9517 -0.1922
  187MOL   H10837680   4.649   2.655   5.137 -2.0857  0.2567  2.5476
  187MOL   H10937681   4.400   2.625   5.095 -0.2012 -1.2572  0.1362
  187MOL   H11037682   4.243   2.396   4.898 -0.2155  0.3322  0.0646
  187MOL   H11137683   4.252   2.487   5.049  1.1496 -1.2673  0.6153
  187MOL   C11237684   4.506   2.742   4.930  0.3685  0.4726 -0.1703
  187MOL   C11337685   4.547   2.879   4.994  0.3464  0.4172  0.0622
  187MOL   C11437686   4.442   2.939   5.090  0.2939  0.5900 -0.1522
  187MOL   O11537687   4.339   2.983   5.049  0.0761 -0.0436  0.5285
  187MOL   N11637688   4.459   2.952   5.221  0.3315 -0.0849 -0.1875
  187MOL   H11737689   4.420   2.756   4.865 -2.5397 -2.3482  2.8753
  187MOL   H11837690   4.586   2.712   4.862  1.1622 -1.1653  1.4491
  187MOL   H11937691   4.637   2.870   5.054  0.5588 -0.3476 -0.3615
  187MOL   H12037692   4.389   2.988   5.283 -0.2989 -2.0671  0.3087
  187MOL   H12137693   4.550   2.934   5.262  0.0522  0.2106  0.5708
  187MOL   C12237694   4.581   2.979   4.876  0.4326  0.4576 -0.8034
  187MOL   C12337695   4.626   3.125   4.904  0.5688  0.4778  0.0531
  187MOL   C12437696   4.604   3.208   4.777  0.1019 -0.6655  0.5444
  187MOL   O12537697   4.623   3.157   4.668  0.0256  0.0916 -0.0283
  187MOL   N12637698   4.569   3.333   4.790  0.2926  0.2176 -0.1311
  187MOL   H12737699   4.498   2.967   4.806 -0.7135  1.3555  0.3949
  187MOL   H12837700   4.674   2.947   4.829  1.6770  1.3046  1.0175
  187MOL   H12937701   4.560   3.174   4.975 -2.2434 -0.7364 -1.6237
  187MOL   H13037702   4.560   3.398   4.714 -0.9167  0.6266  0.3579
  187MOL   H13137703   4.567   3.370   4.884 -0.0444 -2.6332  1.0555
  187MOL   C13237704   4.770   3.145   4.956 -0.6576  0.4775 -0.5892
  187MOL   C13337705   4.887   3.121   4.854 -0.3748 -0.5073  0.7189
  187MOL   C13437706   4.978   3.010   4.899 -0.7773  0.6248  0.0225
  187MOL   O13537707   4.998   2.982   5.014  0.5071 -0.4752  0.7444
  187MOL   N13637708   5.036   2.926   4.818  0.6624 -0.3039 -0.0071
  187MOL   H13737709   4.781   3.080   5.043  1.1607  0.3406 -0.8908
  187MOL   H13837710   4.784   3.240   5.008  1.0425 -0.2248  0.2755
  187MOL   H13937711   4.855   3.087   4.756  1.8527  0.3845 -0.3528
  187MOL   H14037712   5.028   2.935   4.718  0.3572  2.2671  0.2242
  187MOL   H14137713   5.071   2.839   4.856 -0.8966 -0.4282  1.1802
  187MOL   C14237714   4.957   3.257   4.843 -0.0140 -0.6572  0.4314
  187MOL   C14337715   5.062   3.278   4.725 -0.7325 -0.3778 -0.7676
  187MOL   C14437716   5.136   3.418   4.739  0.1461  0.2254  1.0161
  187MOL   O14537717   5.093   3.504   4.814 -0.3020  0.2249  0.3568
  187MOL   N14637718   5.243   3.431   4.662 -0.7104 -0.2286 -0.3004
  187MOL   H14737719   5.006   3.284   4.937  0.6836 -0.6810  0.0820
  187MOL   H14837720   4.882   3.334   4.824 -0.3669 -1.7100 -2.6657
  187MOL   H14937721   5.142   3.206   4.743 -0.9486 -0.4273  0.0103
  187MOL   H15037722   5.277   3.356   4.605 -0.1469 -0.3164  0.1487
  187MOL   H15137723   5.301   3.513   4.669 -1.4536  0.4945 -2.2260
  187MOL   C15237724   5.012   3.250   4.581  0.8316 -0.1036  0.0022
  187MOL   C15337725   4.886   3.312   4.519 -0.0186  0.1390  0.0039
  187MOL   C15437726   4.846   3.221   4.403 -0.0200  0.7254  0.1087
  187MOL   O15537727   4.894   3.229   4.290  0.1499  0.1321  0.2171
  187MOL   N15637728   4.752   3.131   4.426  0.9191  0.1574  0.1599
  187MOL   H15737729   5.003   3.141   4.574 -1.5058 -0.0495  1.7952
  187MOL   H15837730   5.085   3.282   4.507 -2.5329  2.2507 -2.4696
  187MOL   H15937731   4.802   3.313   4.588  0.3610 -0.7316  0.4786
  187MOL   H16037732   4.730   3.076   4.344  0.0625  1.3714 -0.4544
  187MOL   H16137733   4.704   3.124   4.515 -1.3974 -0.9101 -1.1282
  187MOL   C16237734   4.913   3.456   4.460 -0.2311  0.0333  0.0334
  187MOL   C16337735   4.846   3.570   4.542  0.6040  0.1967 -0.1895
  187MOL   C16437736   4.699   3.564   4.581  0.0398 -0.3931 -0.2395
  187MOL   O16537737   4.663   3.608   4.689  0.6013  0.0360  0.1930
  187MOL   N16637738   4.609   3.514   4.497 -0.3198  0.0319 -0.7714
  187MOL   H16737739   4.883   3.465   4.356  1.4722 -0.8037 -0.5551
  187MOL   H16837740   5.018   3.480   4.441 -0.5648 -0.7092 -2.8920
  187MOL   H16937741   4.892   3.570   4.641  0.4620  0.7739 -0.1231
  187MOL   H17037742   4.623   3.479   4.403 -0.1565 -0.3720 -0.5971
  187MOL   H17137743   4.516   3.513   4.537 -0.4236 -0.2848 -1.0237
  187MOL   C17237744   4.888   3.714   4.495  0.1043  0.3722  0.5020
  187MOL   C17337745   4.871   3.761   4.344  0.4242  0.4248  0.1460
  187MOL   C17437746   4.963   3.882   4.323  0.5748  0.9329  0.4728
  187MOL   O17537747   4.968   3.971   4.402  0.1703 -0.3333  0.1437
  187MOL   N17637748   5.045   3.878   4.217 -0.4746  1.1950 -0.5373
  187MOL   H17737749   4.993   3.721   4.522  0.4107  0.6124 -0.7249
  187MOL   H17837750   4.852   3.793   4.561  2.6306  0.1100  2.2380
  187MOL   H17937751   4.917   3.681   4.286 -3.6121 -1.8416 -0.1618
  187MOL   H18037752   5.117   3.949   4.208  0.9772 -0.0595  0.9217
  187MOL   H18137753   5.043   3.788   4.172  1.0472  0.5721  0.5831
  187MOL   C18237754   4.727   3.783   4.282 -0.2159  0.0293 -0.4158
  187MOL   C18337755   4.707   3.828   4.133 -0.3366 -0.1918  0.2048
  187MOL   C18437756   4.797   3.776   4.026  0.5684 -0.7199  0.6084
  187MOL   O18537757   4.898   3.714   4.051  0.1397  0.4876 -0.6934
  187MOL   N18637758   4.750   3.802   3.901 -0.3093  0.3481  0.2804
  187MOL   H18737759   4.667   3.849   4.345 -0.8043  1.9253 -2.9018
  187MOL   H18837760   4.680   3.686   4.299  0.0941 -0.6593 -3.2708
  187MOL   H18937761   4.610   3.782   4.118 -0.3904 -0.0606  0.1527
  187MOL   H19037762   4.810   3.781   3.823 -0.4149 -2.6802  0.9435
  187MOL   H19137763   4.659   3.844   3.896  0.2255  1.6113  0.8209
  187MOL   C19237764   4.704   3.989   4.127  0.2162  0.2792  0.5030
  187MOL   C19337765   4.563   4.046   4.155  0.5016  0.0202 -0.1405
  187MOL   C19437766   4.468   4.013   4.040 -0.2369 -0.2979 -0.4306
  187MOL   O19537767   4.492   3.935   3.948 -0.1132  0.7777  0.2053
  187MOL   N19637768   4.357   4.079   4.055  0.3367 -0.2871  0.5786
  187MOL   H19737769   4.745   4.023   4.032 -1.2712  0.4481 -0.0976
  187MOL   H19837770   4.760   4.034   4.210 -0.9045  0.8397  0.9637
  187MOL   H19937771   4.515   4.012   4.246 -0.4632  1.2098 -0.1911
  187MOL   H20037772   4.284   4.073   3.985  0.8644  1.0211 -0.1057
  187MOL   H20137773   4.336   4.125   4.143 -2.7213  0.8632 -0.6567
  187MOL   H20237774   4.568   4.155   4.165 -0.2672  0.3656 -2.9784
  188MOL     C137775   3.286   0.824   6.024  0.0804  0.0161  0.2839
  188MOL     C237776   3.306   0.674   5.989 -0.4353 -1.1721  1.1815
  188MOL     C337777   3.168   0.613   5.956 -0.2473  0.2995 -0.2799
  188MOL     O437778   3.080   0.619   6.039  0.0097 -0.3577 -0.0419
  188MOL     N537779   3.154   0.554   5.838  0.2085 -0.5400 -0.2565
  188MOL     H637780   3.195   0.878   5.994 -0.2886 -0.1022  1.1648
  188MOL     H737781   3.297   0.848   6.130 -0.4280  2.8156 -0.2563
  188MOL     H837782   3.369   0.659   5.902 -1.3274 -1.2675  0.5465
  188MOL     H937783   3.229   0.562   5.771 -0.2454  1.0968 -0.5830
  188MOL    H1037784   3.073   0.501   5.811  1.0624 -2.0358  0.0633
  188MOL    H1137785   3.365   0.881   5.976 -1.4457  1.3665 -0.7083
  188MOL    C1237786   3.366   0.606   6.114 -0.2477 -0.2566 -0.6300
  188MOL    C1337787   3.512   0.651   6.150  0.6757  0.0264  0.0856
  188MOL    C1437788   3.608   0.544   6.097 -0.3744 -0.5154  0.9220
  188MOL    O1537789   3.597   0.425   6.126  0.5702 -0.2036 -0.8786
  188MOL    N1637790   3.701   0.581   6.006  0.2046  0.9107 -0.2462
  188MOL    H1737791   3.373   0.498   6.100  4.2785 -0.3743  1.7249
  188MOL    H1837792   3.294   0.614   6.196  0.6961 -1.5555  0.3503
  188MOL    H1937793   3.545   0.739   6.096 -2.0856  0.7089 -0.5417
  188MOL    H2037794   3.753   0.512   5.954  1.0638  1.7151 -0.4773
  188MOL    H2137795   3.699   0.677   5.975 -1.3721  0.8073 -0.5024
  188MOL    C2237796   3.530   0.668   6.304 -0.2397  0.3339  0.0470
  188MOL    C2337797   3.462   0.792   6.373  0.2098  0.3854 -0.0515
  188MOL    C2437798   3.510   0.919   6.317 -0.5998  0.2703  0.6476
  188MOL    O2537799   3.626   0.934   6.274  0.1624 -0.6142 -0.1166
  188MOL    N2637800   3.417   1.016   6.309  0.4244 -0.0413 -0.4961
  188MOL    H2737801   3.637   0.662   6.325  0.1736 -3.3493 -2.5721
  188MOL    H2837802   3.481   0.582   6.350 -0.8318 -0.0384 -1.2617
  188MOL    H2937803   3.355   0.775   6.362  0.4122 -0.3841 -0.8868
  188MOL    H3037804   3.434   1.080   6.232 -1.2387  0.7721 -0.1874
  188MOL    H3137805   3.325   0.997   6.346  0.6946  0.8065  0.6164
  188MOL    C3237806   3.491   0.787   6.524  0.8437 -0.5069 -0.3934
  188MOL    C3337807   3.406   0.880   6.615  0.3690  0.1065 -0.4381
  188MOL    C3437808   3.485   0.924   6.745 -0.2450 -0.3226  0.6427
  188MOL    O3537809   3.527   0.846   6.828 -0.5800 -0.0499  0.0102
  188MOL    N3637810   3.511   1.050   6.762 -0.6234 -0.2324  0.1719
  188MOL    H3737811   3.593   0.822   6.544 -0.0696  1.3219  1.1887
  188MOL    H3837812   3.494   0.684   6.558  2.9157 -0.1413  0.5979
  188MOL    H3937813   3.395   0.973   6.561 -1.2365 -0.8247 -1.7557
  188MOL    H4037814   3.570   1.083   6.837  0.2164 -0.3343 -0.4343
  188MOL    H4137815   3.479   1.120   6.696 -0.5910  1.7034  2.1732
  188MOL    C4237816   3.268   0.825   6.649  0.3632  0.8193  0.2250
  188MOL    C4337817   3.150   0.926   6.669 -0.5906 -0.1848  0.7767
  188MOL    C4437818   3.147   0.974   6.815  0.7400 -0.7726  0.0256
  188MOL    O4537819   3.122   0.895   6.908 -0.4739 -0.0423 -0.2508
  188MOL    N4637820   3.175   1.104   6.832 -0.3132  0.2032  0.0443
  188MOL    H4737821   3.276   0.756   6.734 -1.5448  0.0282 -0.2115
  188MOL    H4837822   3.232   0.750   6.578 -0.6603  1.4659  0.0619
  188MOL    H4937823   3.179   1.006   6.601 -0.1702 -1.0689 -0.0967
  188MOL    H5037824   3.190   1.154   6.918 -1.4469  0.4594  0.0907
  188MOL    H5137825   3.189   1.159   6.749  0.4779 -0.7299 -0.4502
  188MOL    C5237826   3.008   0.865   6.636  0.2783 -0.1511  0.5715
  188MOL    C5337827   2.951   0.876   6.494 -0.4251 -0.0911 -0.4628
  188MOL    C5437828   3.060   0.850   6.382  0.3252  0.0029 -0.9352
  188MOL    O5537829   3.152   0.930   6.349 -0.0382 -0.3494 -0.1210
  188MOL    N5637830   3.037   0.733   6.319 -0.0090 -0.1935 -0.3653
  188MOL    H5737831   2.927   0.905   6.697  1.3191  0.1336  1.8139
  188MOL    H5837832   3.017   0.757   6.648  0.5866 -0.0107  1.6886
  188MOL    H5937833   2.874   0.800   6.494  1.3931 -2.0483  3.0382
  188MOL    H6037834   2.976   0.666   6.363 -0.6506  1.2123  0.9548
  188MOL    H6137835   3.079   0.717   6.229 -1.0112  0.6090 -1.0008
  188MOL    C6237836   2.878   1.014   6.468 -0.5948 -0.0716 -0.5366
  188MOL    C6337837   2.814   1.034   6.330 -0.8185  0.1590  0.0930
  188MOL    C6437838   2.787   1.184   6.310  0.1376 -0.6824 -0.3659
  188MOL    O6537839   2.679   1.234   6.341 -0.0273 -0.3564  0.2867
  188MOL    N6637840   2.886   1.258   6.257 -0.2122 -0.0190  0.3173
  188MOL    H6737841   2.952   1.093   6.478  1.0250 -1.5204 -0.9202
  188MOL    H6837842   2.799   1.029   6.541 -0.3215 -0.7365 -0.1000
  188MOL    H6937843   2.895   1.009   6.261  0.7059  0.8492  1.5832
  188MOL    H7037844   2.872   1.358   6.265  2.3125  0.2849  1.0942
  188MOL    H7137845   2.980   1.223   6.246 -0.0874  0.2381  0.5727
  188MOL    C7237846   2.686   0.949   6.300  0.1529 -0.1615  0.3128
  188MOL    C7337847   2.630   0.943   6.153 -0.0958 -0.1999 -0.2357
  188MOL    C7437848   2.520   1.045   6.126  0.5600  0.7272  0.3013
  188MOL    O7537849   2.405   1.042   6.175  0.2040  0.1457  0.0905
  188MOL    N7637850   2.548   1.146   6.046  0.5892 -0.4831 -0.0294
  188MOL    H7737851   2.599   0.981   6.357 -1.0039 -0.6410 -1.1442
  188MOL    H7837852   2.724   0.850   6.325  2.2998  0.8017  0.9544
  188MOL    H7937853   2.715   0.954   6.086  1.6867  2.2003  2.3071
  188MOL    H8037854   2.636   1.155   5.998  0.6718  2.9090  0.6375
  188MOL    H8137855   2.476   1.217   6.041  0.3838 -0.7152 -0.3222
  188MOL    C8237856   2.571   0.804   6.120  0.4155 -0.1129  0.3655
  188MOL    C8337857   2.678   0.695   6.089  0.2300 -0.8063 -0.0683
  188MOL    C8437858   2.731   0.710   5.944  0.3772 -0.4765  0.3767
  188MOL    O8537859   2.655   0.716   5.852 -0.3150  0.7778 -0.0584
  188MOL    N8637860   2.859   0.702   5.907  0.0404  0.1875  0.1623
  188MOL    H8737861   2.494   0.825   6.046  2.0377  0.5551 -1.1685
  188MOL    H8837862   2.519   0.773   6.211 -0.6553  1.1906  0.2039
  188MOL    H8937863   2.758   0.702   6.162 -0.5982  0.1309  0.7515
  188MOL    H9037864   2.881   0.695   5.809  1.9739  0.9561  0.5221
  188MOL    H9137865   2.931   0.679   5.974  0.9359  1.5797 -0.3172
  188MOL    C9237866   2.611   0.557   6.096  0.8801  0.0572  0.2173
  188MOL    C9337867   2.711   0.442   6.096  0.3097 -0.2317  0.2345
  188MOL    C9437868   2.638   0.310   6.087  0.1066  0.6119  0.6906
  188MOL    O9537869   2.562   0.279   6.172 -0.1952 -0.2952  0.1373
  188MOL    N9637870   2.674   0.229   5.990 -0.0585  0.6336  0.5902
  188MOL    H9737871   2.539   0.551   6.015  1.8943 -0.3492 -0.6625
  188MOL    H9837872   2.557   0.551   6.190  2.9724  2.1754  1.6147
  188MOL    H9937873   2.769   0.450   6.004 -1.1534  0.2500 -0.6611
  188MOL   H10037874   2.723   0.277   5.915 -2.9650  2.2773 -0.3284
  188MOL   H10137875   2.643   0.133   5.983  0.6424  0.4780 -0.4813
  188MOL   C10237876   2.813   0.451   6.217 -0.0908 -0.7690 -0.1869
  188MOL   C10337877   2.901   0.326   6.237  0.0945  0.8481 -0.4545
  188MOL   C10437878   2.975   0.359   6.365  0.6116  0.4108 -0.7389
  188MOL   O10537879   3.062   0.449   6.372 -0.2429 -0.0456  0.0761
  188MOL   N10637880   2.951   0.283   6.471 -0.7037  0.0526  0.0671
  188MOL   H10737881   2.769   0.487   6.310 -1.2800  0.3894 -1.1693
  188MOL   H10837882   2.879   0.533   6.189 -1.0062  0.8822  2.3426
  188MOL   H10937883   2.837   0.241   6.263  2.2594 -1.0942 -1.3474
  188MOL   H11037884   3.003   0.306   6.555  0.2631 -0.4361 -0.3941
  188MOL   H11137885   2.890   0.203   6.477 -0.0835 -0.5313 -1.3649
  188MOL   C11237886   3.008   0.299   6.123 -0.2439  0.3428 -0.0477
  188MOL   C11337887   3.087   0.168   6.134 -0.3146 -0.7124 -0.1299
  188MOL   C11437888   3.194   0.181   6.024 -0.2647 -0.5943  0.8143
  188MOL   O11537889   3.164   0.181   5.902 -0.4036 -0.1933 -0.1181
  188MOL   N11637890   3.324   0.181   6.063 -0.1802  0.1524 -0.4269
  188MOL   H11737891   3.076   0.384   6.135  1.8278 -1.1893 -0.6303
  188MOL   H11837892   2.960   0.312   6.027  0.2138 -1.6301 -0.5624
  188MOL   H11937893   3.128   0.172   6.235  1.9387 -1.5003 -0.9672
  188MOL   H12037894   3.342   0.181   6.162 -2.3925  0.3489  0.0004
  188MOL   H12137895   3.398   0.190   5.995  0.0527 -3.0429 -0.6842
  188MOL   C12237896   2.993   0.048   6.124 -0.9615 -0.2138 -0.4955
  188MOL   C12337897   3.023   7.594   6.226 -0.3013  0.2265 -0.0577
  188MOL   C12437898   3.151   7.516   6.178 -0.1187  0.1492 -0.0269
  188MOL   O12537899   3.139   7.427   6.093  0.1757  0.1520 -0.9894
  188MOL   N12637900   3.268   7.563   6.218  1.1873 -0.4509  0.7284
  188MOL   H12737901   2.997   0.003   6.025 -0.8131  0.8420 -0.9738
  188MOL   H12837902   2.894   0.091   6.137 -0.2797  0.9953  0.8536
  188MOL   H12937903   3.051   7.635   6.323  0.3706 -0.2844 -0.0327
  188MOL   H13037904   3.358   7.524   6.195  0.7760 -0.9778 -0.0298
  188MOL   H13137905   3.264   7.645   6.277 -1.0103  0.7402 -0.9903
  188MOL   C13237906   2.908   7.496   6.249 -0.1261 -0.7238  0.3609
  188MOL   C13337907   2.827   7.512   6.375  0.7302 -0.3481 -0.3046
  188MOL   C13437908   2.753   7.645   6.379  0.0477  0.2376  0.5493
  188MOL   O13537909   2.777   0.077   6.464  0.0252  0.1560  0.2852
  188MOL   N13637910   2.661   0.010   6.284  0.1061 -0.2475  0.0670
  188MOL   H13737911   2.930   7.390   6.235  0.9913 -0.0649 -3.6425
  188MOL   H13837912   2.845   7.504   6.160 -0.3527  1.5039  0.7077
  188MOL   H13937913   2.746   7.441   6.362 -1.3456  1.4927  2.1626
  188MOL   H14037914   2.665   7.609   6.202 -1.3445  2.6537 -2.1183
  188MOL   H14137915   2.605   0.091   6.305 -1.5977 -1.9092  2.1557
  188MOL   C14237916   2.903   7.488   6.513  0.4462 -0.5860  0.3030
  188MOL   C14337917   2.820   7.423   6.629 -0.1665  0.1172  0.6470
  188MOL   C14437918   2.716   7.510   6.701  0.5808  0.1850 -0.4802
  188MOL   O14537919   2.605   7.459   6.726 -0.2618 -0.0318 -0.5395
  188MOL   N14637920   2.751   7.625   6.748  0.2426  0.2231 -0.2022
  188MOL   H14737921   2.944   7.582   6.547 -0.4383 -0.1919  0.3109
  188MOL   H14837922   2.984   7.419   6.491  0.8612  0.4378 -1.4786
  188MOL   H14937923   2.778   7.337   6.577  1.1472  0.2468 -0.6539
  188MOL   H15037924   2.830   0.017   6.708  1.8038 -0.0827  2.3446
  188MOL   H15137925   2.710   0.016   6.827  0.2381 -0.2769  0.1020
  188MOL   C15237926   2.919   7.367   6.732  0.4543 -0.0427  0.3471
  188MOL   C15337927   2.863   7.265   6.843 -0.1140 -0.0695 -0.3621
  188MOL   C15437928   2.809   7.341   6.967 -0.0011 -0.3195  0.0818
  188MOL   O15537929   2.851   7.445   7.015  0.8927  0.3733 -0.1574
  188MOL   N15637930   2.708   7.280   7.029  0.2686  0.0549 -0.2990
  188MOL   H15737931   2.968   7.445   6.791 -1.3994  1.0396  0.4787
  188MOL   H15837932   3.001   7.315   6.683 -0.6292 -1.0387 -0.4394
  188MOL   H15937933   2.787   7.199   6.803  1.3082 -1.1689 -1.3142
  188MOL   H16037934   2.676   7.338   7.105 -0.8382 -1.0944  0.1267
  188MOL   H16137935   2.655   7.206   6.986 -1.8947  1.4684 -0.1089
  188MOL   C16237936   2.990   7.183   6.882 -0.2276 -0.7551  0.1213
  188MOL   C16337937   2.968   7.075   6.991 -0.1620  0.3736 -1.2785
  188MOL   C16437938   3.101   7.006   7.020 -0.2582  0.2773 -0.2672
  188MOL   O16537939   3.173   6.966   6.931  1.3327 -0.3494 -0.2604
  188MOL   N16637940   3.131   6.989   7.144  0.9936  0.4581 -0.1944
  188MOL   H16737941   3.081   7.239   6.903 -0.1125 -1.0361  0.3843
  188MOL   H16837942   3.024   7.124   6.797  0.0129 -0.0372 -0.2800
  188MOL   H16937943   2.931   7.141   7.069 -1.7474  0.0042 -1.7032
  188MOL   H17037944   3.069   7.024   7.215 -0.4429 -0.2262 -1.0867
  188MOL   H17137945   3.214   6.935   7.163 -0.3165 -1.7498 -0.5959
  188MOL   C17237946   2.848   6.978   6.941 -1.4040 -0.3411  0.6061
  188MOL   C17337947   2.866   6.821   6.953 -0.3438  0.2354 -0.2537
  188MOL   C17437948   2.909   6.749   6.827 -0.0136  0.4741 -0.2751
  188MOL   O17537949   2.823   6.690   6.766 -0.3125 -0.2780 -0.7621
  188MOL   N17637950   3.036   6.751   6.785  0.2952 -0.0174  0.1123
  188MOL   H17737951   2.823   7.000   6.837  0.6125 -3.3570 -0.5672
  188MOL   H17837952   2.761   7.006   7.001 -1.9808  1.0102 -0.8097
  188MOL   H17937953   2.940   6.781   7.023 -0.4408 -2.6659 -1.7339
  188MOL   H18037954   3.099   6.811   6.837  2.1121 -1.1927 -0.6666
  188MOL   H18137955   3.075   6.702   6.705  2.7510 -0.0502  1.2895
  188MOL   C18237956   2.739   6.753   7.017 -0.1114 -0.0022  0.2339
  188MOL   C18337957   2.682   6.800   7.151  0.3056  0.4066 -0.5999
  188MOL   C18437958   2.788   6.833   7.258  0.6953  0.0924  0.4588
  188MOL   O18537959   2.881   6.761   7.300  0.5839 -0.1121 -0.4049
  188MOL   N18637960   2.778   6.951   7.303 -0.4897 -0.3922  0.4212
  188MOL   H18737961   2.763   6.647   7.025  1.7052  0.4668  1.2853
  188MOL   H18837962   2.661   6.770   6.943 -1.6973  2.1749  2.3437
  188MOL   H18937963   2.625   6.892   7.137 -2.4356 -1.1585 -0.2212
  188MOL   H19037964   2.843   6.984   7.373 -2.2043  2.1075  0.8820
  188MOL   H19137965   2.719   7.014   7.251 -0.6085 -1.1862 -0.4149
  188MOL   C19237966   2.586   6.700   7.212 -0.1703  0.3653 -0.0769
  188MOL   C19337967   2.468   6.757   7.300 -0.1951 -0.3416 -0.1040
  188MOL   C19437968   2.404   6.645   7.380 -0.6413  0.9520  0.4595
  188MOL   O19537969   2.457   6.596   7.480 -0.5457  0.1776  0.0129
  188MOL   N19637970   2.288   6.600   7.328  0.0912  0.1842 -0.4278
  188MOL   H19737971   2.640   6.614   7.251 -1.6086  0.1735  1.5979
  188MOL   H19837972   2.531   6.652   7.132 -0.0086  0.8736 -0.4966
  188MOL   H19937973   2.496   6.825   7.380 -0.5339  1.9462 -1.8557
  188MOL   H20037974   2.233   6.537   7.384 -0.9414 -0.5416 -2.2244
  188MOL   H20137975   2.242   6.658   7.259  0.7842  0.0540 -1.0078
  188MOL   H20237976   2.393   6.813   7.244 -1.5912  0.2536  2.3270
  189MOL     C137977   7.623   5.562   4.697 -0.8742  0.3371  0.3950
  189MOL     C237978   7.553   5.670   4.607 -0.1820  0.4759  0.1569
  189MOL     C337979   7.443   5.728   4.689  0.1667  0.7009 -0.4322
  189MOL     O437980   7.341   5.658   4.712  0.1796 -0.6672  0.0485
  189MOL     N537981   7.460   5.840   4.754 -0.7644  0.5276  0.4343
  189MOL     H637982   0.041   5.498   4.649 -2.9523 -1.5582 -0.3931
  189MOL     H737983   0.030   5.613   4.770  0.2375  0.3951 -0.5932
  189MOL     H837984   7.630   5.743   4.582 -1.0047  1.3930  0.2774
  189MOL     H937985   7.544   5.895   4.759 -0.7085  0.4166  0.7372
  189MOL    H1037986   7.385   5.869   4.815 -1.6764 -0.0413 -0.4066
  189MOL    H1137987   7.554   5.490   4.739 -1.8163  1.1853  0.3174
  189MOL    C1237988   7.495   5.600   4.482 -0.0741 -0.5430 -0.4229
  189MOL    C1337989   7.583   5.582   4.362  0.5551  0.2054  0.0893
  189MOL    C1437990   7.631   5.716   4.316 -0.3476 -0.0190  0.5018
  189MOL    O1537991   7.551   5.807   4.302 -0.3234 -0.1776 -0.2322
  189MOL    N1637992   0.100   5.732   4.280 -0.0640  0.6359 -0.4777
  189MOL    H1737993   7.393   5.634   4.466 -0.8342 -1.5356  2.0957
  189MOL    H1837994   7.460   5.500   4.508  1.4656 -1.4030 -1.5047
  189MOL    H1937995   0.010   5.527   4.404  1.0695 -0.0049 -1.1905
  189MOL    H2037996   0.176   5.671   4.306 -1.0740 -0.3769  0.1291
  189MOL    H2137997   0.125   5.802   4.211  0.1795 -0.3543 -1.4085
  189MOL    C2237998   7.507   5.505   4.249  0.2081 -0.0067  0.2327
  189MOL    C2337999   7.590   5.444   4.133  0.0766 -0.2062 -0.3201
  189MOL    C2438000   7.590   5.542   4.013 -0.3324  0.5902  0.1673
  189MOL    O2538001   7.483   5.572   3.954  0.6178  0.7753 -0.0440
  189MOL    N2638002   0.049   5.594   3.978  0.4535 -0.5148 -0.1135
  189MOL    H2738003   7.431   5.569   4.204  0.6434 -1.6277 -2.9014
  189MOL    H2838004   7.443   5.427   4.290 -3.0399  2.5530  0.2507
  189MOL    H2938005   0.039   5.437   4.158 -0.0071 -1.5664 -0.3284
  189MOL    H3038006   0.055   5.639   3.888  0.1722 -0.8735 -0.3158
  189MOL    H3138007   0.132   5.552   4.017  0.1216 -0.6112  0.4916
  189MOL    C3238008   7.535   5.311   4.083  0.7321 -0.7141 -0.0892
  189MOL    C3338009   7.535   5.191   4.176 -0.3104  0.1950 -0.3786
  189MOL    C3438010   0.019   5.173   4.236  0.0963 -0.3115  0.5144
  189MOL    O3538011   0.114   5.137   4.166 -0.0929  0.7996 -0.0013
  189MOL    N3638012   0.025   5.195   4.364 -0.2439 -0.8053 -0.7022
  189MOL    H3738013   7.572   5.287   3.983 -1.7956 -1.6799 -0.8538
  189MOL    H3838014   7.430   5.321   4.055  0.6936  1.0666  0.6393
  189MOL    H3938015   7.466   5.231   4.250 -1.4605 -0.9614 -0.8109
  189MOL    H4038016   0.119   5.179   4.397  0.0355  1.7461 -0.1343
  189MOL    H4138017   7.600   5.201   4.423  1.4405 -0.5995  1.6813
  189MOL    C4238018   7.472   5.069   4.118  0.0738 -0.2945  0.8667
  189MOL    C4338019   7.426   4.958   4.217  0.1055 -0.5844 -0.3686
  189MOL    C4438020   7.548   4.866   4.248 -0.4786 -0.2501  0.1433
  189MOL    O4538021   7.606   4.883   4.357  0.2436 -0.0135  0.1634
  189MOL    N4638022   7.573   4.769   4.162  0.2219 -0.0811 -0.5588
  189MOL    H4738023   7.547   5.024   4.053  1.5006  0.4505  1.9612
  189MOL    H4838024   7.386   5.104   4.062  1.1343 -0.6459 -1.0169
  189MOL    H4938025   7.396   5.017   4.304  0.0096 -1.4069  0.1548
  189MOL    H5038026   7.509   4.765   4.084 -0.0559 -0.2384 -0.3268
  189MOL    H5138027   7.631   4.691   4.187  0.3665  0.1526 -0.1633
  189MOL    C5238028   7.301   4.875   4.196  0.2204 -0.2052 -0.4921
  189MOL    C5338029   7.172   4.929   4.272 -0.1449  0.9090 -0.2422
  189MOL    C5438030   7.158   4.852   4.408 -0.2947  1.1082  0.3449
  189MOL    O5538031   7.063   4.774   4.430 -0.2611 -0.3965 -0.0436
  189MOL    N5638032   7.241   4.891   4.500 -0.0300  0.3505  0.2758
  189MOL    H5738033   7.317   4.775   4.235  0.0282  0.2419  0.7405
  189MOL    H5838034   7.286   4.854   4.090 -2.1828  3.9849 -1.1118
  189MOL    H5938035   7.171   5.035   4.297  1.1481  1.2697 -1.6279
  189MOL    H6038036   7.232   4.848   4.591 -1.5935  1.1099  0.5034
  189MOL    H6138037   7.303   4.969   4.481  0.0347 -0.0277 -1.1320
  189MOL    C6238038   7.041   4.908   4.182  0.1296  0.5612 -0.5638
  189MOL    C6338039   7.020   4.992   4.049  0.0441  0.6915 -0.3524
  189MOL    C6438040   7.051   5.142   4.049 -0.9827 -0.2558 -0.1358
  189MOL    O6538041   7.166   5.181   4.042  0.3455  0.3726 -0.0188
  189MOL    N6638042   6.959   5.228   4.074 -0.1056  0.4215 -0.3984
  189MOL    H6738043   6.949   4.920   4.240 -0.2628 -0.9133 -0.8654
  189MOL    H6838044   7.049   4.802   4.158  1.7864  0.5548 -0.0320
  189MOL    H6938045   7.091   4.944   3.982 -0.5729 -0.9387  0.1281
  189MOL    H7038046   6.973   5.328   4.072 -2.3868  0.7674 -2.8741
  189MOL    H7138047   6.865   5.193   4.086  0.6501 -1.7558 -0.4858
  189MOL    C7238048   6.882   4.974   3.981  0.8467  0.0544  0.6142
  189MOL    C7338049   6.858   4.838   3.910  0.3227  0.6849 -0.0126
  189MOL    C7438050   6.750   4.858   3.810 -1.0296 -0.0938  0.8220
  189MOL    O7538051   6.653   4.929   3.833 -1.0363  0.2390 -0.1164
  189MOL    N7638052   6.756   4.793   3.696  0.6620 -0.4090  0.0413
  189MOL    H7738053   6.864   5.050   3.906  3.1065  0.7772  0.7708
  189MOL    H7838054   6.805   4.987   4.058 -1.6430  2.9977 -2.2033
  189MOL    H7938055   6.949   4.822   3.852 -0.1110  2.1736 -1.1246
  189MOL    H8038056   6.848   4.770   3.661  0.9100  0.3716  0.1645
  189MOL    H8138057   6.681   4.799   3.628  2.1718 -3.8486 -2.0735
  189MOL    C8238058   6.819   4.722   4.009  0.2341  0.0416 -0.0751
  189MOL    C8338059   6.917   4.603   3.998  0.3015  0.0302  0.2438
  189MOL    C8438060   6.872   4.509   3.880  0.7006 -0.6297 -0.4514
  189MOL    O8538061   6.771   4.444   3.881 -0.1358 -0.1293 -0.1041
  189MOL    N8638062   6.940   4.511   3.766  0.4878  0.8560 -0.8736
  189MOL    H8738063   6.717   4.689   3.989 -0.9053  2.1634  2.0652
  189MOL    H8838064   6.813   4.763   4.109 -4.0749  1.3421 -0.7593
  189MOL    H8938065   7.015   4.644   3.974  0.2973  1.2675  2.2114
  189MOL    H9038066   6.902   4.450   3.695 -0.8298 -2.2373  2.3307
  189MOL    H9138067   7.016   4.572   3.742  0.6539  0.6647 -0.8234
  189MOL    C9238068   6.914   4.522   4.131 -1.1031  0.8469  0.3536
  189MOL    C9338069   7.026   4.416   4.134 -0.0973  0.0001 -0.3014
  189MOL    C9438070   6.969   4.284   4.187  0.6091  0.8048  0.1732
  189MOL    O9538071   6.953   4.265   4.306 -0.2948 -0.0959 -0.0329
  189MOL    N9638072   6.963   4.186   4.096 -0.3422  0.8147  0.2386
  189MOL    H9738073   6.816   4.474   4.132  0.0308 -1.5497 -0.7936
  189MOL    H9838074   6.919   4.591   4.216 -0.8160 -0.6082  1.5229
  189MOL    H9938075   7.061   4.395   4.033  1.7624  1.1432  0.0782
  189MOL   H10038076   6.944   4.091   4.123  0.5972  0.9373  1.4068
  189MOL   H10138077   6.996   4.203   4.002  0.7781  2.4862  0.9086
  189MOL   C10238078   7.151   4.475   4.214 -0.2840 -0.5232  0.9023
  189MOL   C10338079   7.277   4.384   4.237  0.2761 -0.4487 -0.2184
  189MOL   C10438080   7.294   4.354   4.386  0.0090  1.3157 -0.3204
  189MOL   O10538081   7.400   4.385   4.443  0.6720 -0.6368 -0.2634
  189MOL   N10638082   7.197   4.292   4.453  0.2384 -0.0338 -0.2561
  189MOL   H10738083   7.115   4.518   4.307  0.4353  0.9282  0.5193
  189MOL   H10838084   7.188   4.560   4.156  0.5840 -0.5080  1.4646
  189MOL   H10938085   7.259   4.285   4.195 -0.0614 -1.1287  1.4896
  189MOL   H11038086   7.217   4.265   4.548  2.4440  0.4569 -0.5385
  189MOL   H11138087   7.113   4.275   4.401  1.0353 -2.3188 -0.8452
  189MOL   C11238088   7.401   4.458   4.174 -0.2894  0.2778  0.6915
  189MOL   C11338089   7.520   4.364   4.140  0.0743  0.8211 -0.1600
  189MOL   C11438090   7.634   4.398   4.236  0.0182  0.2686  0.5356
  189MOL   O11538091   0.022   4.508   4.246  0.5896  0.2022 -0.0634
  189MOL   N11638092   0.027   4.301   4.313  0.4557  0.5080  0.1970
  189MOL   H11738093   7.436   4.530   4.248 -2.7890  0.6529  1.5558
  189MOL   H11838094   7.376   4.510   4.082 -0.0409  0.0305  0.4835
  189MOL   H11938095   7.489   4.260   4.150  2.5295 -0.0355 -1.0121
  189MOL   H12038096   7.642   4.209   4.305 -1.2543  1.1884  1.0456
  189MOL   H12138097   0.103   4.325   4.375  1.0444 -1.1923  0.1540
  189MOL   C12238098   7.571   4.372   3.990  0.2244  0.0378 -0.0865
  189MOL   C12338099   7.516   4.257   3.908  0.5259  0.0473  0.0118
  189MOL   C12438100   7.594   4.247   3.771 -1.4390  0.0935  0.1291
  189MOL   O12538101   7.601   4.339   3.693  0.4462  0.0981 -0.0358
  189MOL   N12638102   0.004   4.138   3.746 -0.2024 -0.4070  0.0093
  189MOL   H12738103   0.021   4.357   3.997  0.6474  2.5649 -0.5272
  189MOL   H12838104   7.561   4.471   3.945  2.1569 -0.6453 -2.0650
  189MOL   H12938105   7.535   4.167   3.967 -0.0143 -1.1209 -1.5621
  189MOL   H13038106   0.066   4.140   3.667 -1.1308 -2.6291 -0.8206
  189MOL   H13138107   0.021   4.067   3.816  0.8048  0.3670  0.5637
  189MOL   C13238108   7.364   4.277   3.889  0.2974  0.5819 -0.0906
  189MOL   C13338109   7.286   4.163   3.830 -0.3497 -0.0809 -0.1008
  189MOL   C13438110   7.152   4.211   3.772  0.7130 -0.1243 -0.8844
  189MOL   O13538111   7.061   4.240   3.851 -0.9155 -0.1034  0.3107
  189MOL   N13638112   7.131   4.215   3.642  0.2250  0.0794  0.0902
  189MOL   H13738113   7.347   4.366   3.829  1.4964  0.7235 -0.2349
  189MOL   H13838114   7.311   4.289   3.983  0.3616  1.3407 -0.1519
  189MOL   H13938115   7.346   4.130   3.745 -0.2838 -1.3566  0.4267
  189MOL   H14038116   7.058   4.267   3.596  1.2035 -1.4750 -3.3442
  189MOL   H14138117   7.199   4.183   3.574 -0.5242  0.9268 -1.0889
  189MOL   C14238118   7.256   4.047   3.933  0.1204 -0.2570 -0.0072
  189MOL   C14338119   7.369   3.937   3.957  0.0487 -0.0325 -0.1394
  189MOL   C14438120   7.421   3.887   3.825 -0.1304  0.1636 -0.7292
  189MOL   O14538121   7.344   3.857   3.732 -0.2360 -0.4986 -0.2214
  189MOL   N14638122   7.548   3.890   3.809 -0.5890  0.3394  0.4219
  189MOL   H14738123   7.177   3.988   3.888 -0.4917 -0.5175  1.3739
  189MOL   H14838124   7.219   4.087   4.028  0.2587  1.5936 -0.7204
  189MOL   H14938125   7.455   3.976   4.012 -0.4058  1.3355 -0.3978
  189MOL   H15038126   7.596   3.862   3.726 -0.3723 -1.1890  1.0487
  189MOL   H15138127   7.605   3.912   3.890  2.3024  1.3188 -1.7994
  189MOL   C15238128   7.325   3.822   4.054 -0.8863  0.3201 -0.1063
  189MOL   C15338129   7.438   3.738   4.123 -0.3109  0.3235  0.0895
  189MOL   C15438130   7.471   3.625   4.027 -0.5430  0.4880 -0.3974
  189MOL   O15538131   7.380   3.561   3.979 -0.4393 -0.0648 -0.1647
  189MOL   N15638132   7.600   3.591   4.004 -0.2923 -0.0665  0.9451
  189MOL   H15738133   7.247   3.756   4.015 -0.7485 -0.8724  1.5942
  189MOL   H15838134   7.284   3.886   4.132  1.5165  1.0353  0.5939
  189MOL   H15938135   7.533   3.791   4.129 -0.0371 -0.2416  0.8821
  189MOL   H16038136   7.620   3.502   3.961 -1.1665 -0.0526  0.4907
  189MOL   H16138137   0.025   3.644   4.027  0.7771 -0.8639 -0.8990
  189MOL   C16238138   7.395   3.685   4.257 -0.3817  0.3201  0.0574
  189MOL   C16338139   7.505   3.667   4.356  0.6725 -0.5332 -0.7161
  189MOL   C16438140   7.468   3.574   4.472 -0.3604 -0.5207  0.4896
  189MOL   O16538141   7.394   3.613   4.559 -0.0393 -0.1767 -0.1985
  189MOL   N16638142   7.510   3.447   4.468  0.2980  0.3142  0.0610
  189MOL   H16738143   7.352   3.588   4.235  0.4547 -0.1918  0.6338
  189MOL   H16838144   7.317   3.749   4.299 -1.5465 -1.5620  0.7989
  189MOL   H16938145   7.586   3.620   4.301  0.8248  0.0836 -1.0248
  189MOL   H17038146   7.505   3.385   4.548 -1.3527 -0.7829 -0.8430
  189MOL   H17138147   7.575   3.433   4.393  0.1371 -0.9313  0.1421
  189MOL   C17238148   7.575   3.790   4.404  0.0041 -0.9991  0.4973
  189MOL   C17338149   7.513   3.901   4.482  0.2996 -0.0929  0.4375
  189MOL   C17438150   7.453   3.995   4.390  0.5128 -0.2535  0.5388
  189MOL   O17538151   7.525   4.065   4.320  0.2872 -0.0101  0.1012
  189MOL   N17638152   7.323   4.008   4.390 -0.5376  0.1658  0.8669
  189MOL   H17738153   7.628   3.843   4.325 -0.5212  1.4654  1.7566
  189MOL   H17838154   0.004   3.762   4.466  0.0588  0.0064  0.8862
  189MOL   H17938155   7.436   3.844   4.534  0.3158 -0.2544  0.2869
  189MOL   H18038156   7.266   3.936   4.432  1.5346 -1.4156  1.0654
  189MOL   H18138157   7.289   4.100   4.366 -1.9764 -0.8493 -1.1387
  189MOL   C18238158   7.608   3.975   4.585 -0.3384 -0.3619 -0.4168
  189MOL   C18338159   7.538   4.075   4.674 -0.4023  1.0782  0.6186
  189MOL   C18438160   7.615   4.212   4.687  0.0659  0.2960 -0.4283
  189MOL   O18538161   0.048   4.212   4.777 -0.0468 -0.5761  0.1119
  189MOL   N18638162   7.596   4.321   4.613  0.7975  0.5411 -0.1019
  189MOL   H18738163   0.032   4.027   4.533  0.1050 -0.7350 -0.0951
  189MOL   H18838164   7.652   3.893   4.640  1.1070  0.7065  0.0513
  189MOL   H18938165   7.447   4.115   4.628  1.2434  2.7079 -1.3208
  189MOL   H19038166   0.007   4.395   4.620  1.0371  0.3751 -0.5711
  189MOL   H19138167   7.535   4.319   4.532  0.2752 -1.0535  0.3062
  189MOL   C19238168   7.505   4.025   4.822  0.0936  0.5983  0.1054
  189MOL   C19338169   7.394   3.907   4.819  0.4233  0.1235  0.4961
  189MOL   C19438170   7.364   3.854   4.958  0.4374  0.7763  0.0551
  189MOL   O19538171   7.341   3.925   5.052 -0.5657 -0.3426  0.3298
  189MOL   N19638172   7.371   3.722   4.969  0.3045 -0.5424 -0.2606
  189MOL   H19738173   7.454   4.108   4.871 -3.3410 -1.6737  0.5432
  189MOL   H19838174   7.595   4.001   4.879  0.1218 -0.5396 -0.4080
  189MOL   H19938175   7.302   3.938   4.770  0.9858  0.7171 -0.2041
  189MOL   H20038176   7.373   3.683   5.062  2.1254 -1.1440 -0.5280
  189MOL   H20138177   7.387   3.655   4.895  0.2178  0.4990 -1.2371
  189MOL   H20238178   7.443   3.824   4.768 -0.7031 -0.7677  0.8420
  190MOL     C138179   2.892   6.099   1.474  0.5816  0.2158  0.5016
  190MOL     C238180   2.781   6.140   1.381 -0.1298  0.2178  0.3409
  190MOL     C338181   2.784   6.294   1.363 -0.0702  0.9381 -0.4395
  190MOL     O438182   2.807   6.366   1.461  0.7290  0.2534 -0.1602
  190MOL     N538183   2.746   6.340   1.248 -0.0570 -0.0032  0.1355
  190MOL     H638184   2.877   6.000   1.518 -0.5564  0.6816  1.1841
  190MOL     H738185   2.990   6.093   1.428  0.1588  2.3204 -0.7166
  190MOL     H838186   2.793   6.073   1.296 -0.8569 -0.0810  0.4726
  190MOL     H938187   2.710   6.276   1.179 -1.5676 -0.2815  1.1620
  190MOL    H1038188   2.728   6.439   1.241  1.3835  0.2137 -0.5436
  190MOL    H1138189   2.902   6.167   1.559  1.5040 -0.1666  0.7055
  190MOL    C1238190   2.647   6.101   1.450  0.2248 -0.3798  0.6637
  190MOL    C1338191   2.544   6.069   1.344 -0.0449  0.1380 -0.0082
  190MOL    C1438192   2.401   6.109   1.374  0.7085  0.2061  0.2567
  190MOL    O1538193   2.339   6.166   1.288 -0.1709  0.6994  0.2058
  190MOL    N1638194   2.347   6.087   1.492  0.2582 -0.2181 -0.1849
  190MOL    H1738195   2.616   6.176   1.523  3.3406  0.8051  0.8582
  190MOL    H1838196   2.657   6.012   1.513  0.6944 -0.3734  0.5959
  190MOL    H1938197   2.561   6.131   1.256  2.3354  1.8076  1.5753
  190MOL    H2038198   2.253   6.118   1.512  0.1224  0.2874 -1.5638
  190MOL    H2138199   2.393   6.047   1.573  1.2337  1.2747  0.0029
  190MOL    C2238200   2.549   5.924   1.301 -0.7639  0.5863 -0.0854
  190MOL    C2338201   2.474   5.889   1.168 -0.6826 -0.3384  0.2914
  190MOL    C2438202   2.350   5.805   1.192 -0.0467  0.1570  0.5308
  190MOL    O2538203   2.361   5.697   1.253 -0.6210  1.0330  0.3050
  190MOL    N2638204   2.237   5.860   1.155  0.4781  0.1534 -0.4918
  190MOL    H2738205   2.492   5.874   1.379 -1.9603 -0.5852 -1.6682
  190MOL    H2838206   2.647   5.876   1.302 -0.5160  1.0754  3.0680
  190MOL    H2938207   2.430   5.977   1.121 -1.1634  0.8993  2.9477
  190MOL    H3038208   2.149   5.821   1.183  0.2660 -0.0848 -1.4658
  190MOL    H3138209   2.240   5.955   1.120  2.2535  0.9038  1.5383
  190MOL    C3238210   2.556   5.821   1.053  0.6260  0.1114  0.3566
  190MOL    C3338211   2.688   5.895   1.014 -1.9048 -0.4374  0.5829
  190MOL    C3438212   2.682   6.047   0.985  0.3279 -0.0139 -0.3295
  190MOL    O3538213   2.573   6.097   0.952 -0.9960  0.5752  0.1382
  190MOL    N3638214   2.793   6.114   1.003 -0.0791 -0.2344 -0.3342
  190MOL    H3738215   2.495   5.799   0.966  0.7492  2.8168 -0.4737
  190MOL    H3838216   2.580   5.728   1.104  0.9155 -0.0493 -0.0660
  190MOL    H3938217   2.745   5.886   1.106 -0.1488  2.7331 -0.1285
  190MOL    H4038218   2.792   6.214   0.985  0.6672  0.0792  1.3356
  190MOL    H4138219   2.876   6.071   1.040 -0.2428 -0.1633  0.1090
  190MOL    C4238220   2.778   5.821   0.903 -0.0332 -0.5297 -0.0507
  190MOL    C4338221   2.704   5.759   0.781 -0.2240 -0.1854 -0.3266
  190MOL    C4438222   2.803   5.683   0.689  0.3014 -0.0694  1.1058
  190MOL    O4538223   2.912   5.727   0.658 -0.1837  0.1540  0.0564
  190MOL    N4638224   2.763   5.568   0.646 -0.1940  0.1786 -0.0741
  190MOL    H4738225   2.832   5.748   0.963  2.1190  1.1563  0.1174
  190MOL    H4838226   2.861   5.886   0.877 -1.0858  1.0931  0.5595
  190MOL    H4938227   2.637   5.680   0.814  0.1087 -1.3946 -2.4762
  190MOL    H5038228   2.668   5.539   0.665  0.2749 -1.1137  0.3003
  190MOL    H5138229   2.825   5.498   0.610 -0.3189  0.3564 -0.6376
  190MOL    C5238230   2.622   5.864   0.703  0.3805 -0.0239  0.1243
  190MOL    C5338231   2.511   5.804   0.612 -0.4858 -0.3043  0.1504
  190MOL    C5438232   2.566   5.755   0.477 -0.3421 -0.2010 -0.0013
  190MOL    O5538233   2.660   5.805   0.413 -0.0265  0.2879  1.0907
  190MOL    N5638234   2.501   5.653   0.424 -0.0533 -0.0863  0.2731
  190MOL    H5738235   2.692   5.919   0.641  1.7654 -2.0390 -0.1459
  190MOL    H5838236   2.581   5.943   0.766 -0.0657  1.1234 -1.5652
  190MOL    H5938237   2.463   5.720   0.663 -0.9335 -1.0294 -1.4302
  190MOL    H6038238   2.514   5.632   0.326 -2.1796 -1.5230  0.2773
  190MOL    H6138239   2.435   5.598   0.476 -1.0284  1.2379  0.4685
  190MOL    C6238240   2.400   5.907   0.579  0.0144 -0.0184 -0.1596
  190MOL    C6338241   2.293   5.915   0.686  0.2877  0.0714 -0.3203
  190MOL    C6438242   2.221   5.783   0.708  0.6651 -0.1736 -0.7325
  190MOL    O6538243   2.169   5.714   0.617  0.2730 -0.8862 -0.0010
  190MOL    N6638244   2.229   5.740   0.830  0.0162 -0.0969 -0.1443
  190MOL    H6738245   2.352   5.903   0.482  0.1241  3.0294 -0.4033
  190MOL    H6838246   2.452   6.003   0.578  0.9713 -0.5239  0.1148
  190MOL    H6938247   2.349   5.935   0.777 -2.3160 -1.5027  1.6867
  190MOL    H7038248   2.188   5.650   0.850  0.0196 -0.2372 -0.7612
  190MOL    H7138249   2.270   5.798   0.902 -1.8418  0.0065  0.8684
  190MOL    C7238250   2.191   6.030   0.673  0.1498 -0.1651 -0.0095
  190MOL    C7338251   2.235   6.162   0.751  0.2206  0.4748 -0.5542
  190MOL    C7438252   2.207   6.134   0.903  0.0629 -0.2421 -0.1309
  190MOL    O7538253   2.088   6.133   0.942 -0.3771 -0.3452  0.0300
  190MOL    N7638254   2.308   6.125   0.991 -0.5413  0.0256  0.2794
  190MOL    H7738255   2.092   5.999   0.707  0.4372 -0.7392  0.3088
  190MOL    H7838256   2.175   6.057   0.568  1.1006 -2.8703 -0.8979
  190MOL    H7938257   2.344   6.166   0.746  0.4545 -1.5602  1.8721
  190MOL    H8038258   2.404   6.132   0.963 -1.0182 -2.1889 -2.2035
  190MOL    H8138259   2.285   6.147   1.086 -1.6621 -0.9209  0.2482
  190MOL    C8238260   2.163   6.285   0.703 -0.3101  0.3906 -0.4412
  190MOL    C8338261   2.216   6.336   0.561 -0.3662  0.0239 -0.0726
  190MOL    C8438262   2.349   6.419   0.574 -0.0570  0.3650  0.2364
  190MOL    O8538263   2.379   6.466   0.679  0.3387  0.0045 -0.0517
  190MOL    N8638264   2.423   6.439   0.469 -0.1226 -0.0108 -0.4379
  190MOL    H8738265   2.171   6.360   0.782  1.5884 -1.0359  0.7460
  190MOL    H8838266   2.057   6.260   0.696  0.1519 -3.1028  3.6605
  190MOL    H8938267   2.250   6.250   0.504 -0.5304 -1.3800  1.8856
  190MOL    H9038268   2.393   6.408   0.377 -0.5032  0.2338 -0.3971
  190MOL    H9138269   2.500   6.504   0.473 -0.6746  0.5560  1.1230
  190MOL    C9238270   2.107   6.423   0.490 -0.1865 -0.4208 -0.0780
  190MOL    C9338271   1.977   6.346   0.447 -0.0036 -0.0958  0.1923
  190MOL    C9438272   2.010   6.215   0.379 -0.7296 -0.0592 -0.6750
  190MOL    O9538273   1.936   6.123   0.412 -0.1466  0.0059  0.0464
  190MOL    N9638274   2.117   6.212   0.294 -1.1078  1.0735  0.5550
  190MOL    H9738275   2.152   6.473   0.405 -0.6630 -0.1967 -0.1995
  190MOL    H9838276   2.093   6.497   0.569 -0.4258 -0.4678 -0.0766
  190MOL    H9938277   1.921   6.324   0.537 -2.6884  1.7892 -0.9575
  190MOL   H10038278   2.138   6.125   0.247 -0.4504  1.8526 -0.6286
  190MOL   H10138279   2.181   6.289   0.291  0.8804 -0.5340  0.3279
  190MOL   C10238280   1.893   6.432   0.355 -0.0785  0.0675 -0.4635
  190MOL   C10338281   1.745   6.395   0.346  0.2049 -0.2932  0.7895
  190MOL   C10438282   1.693   6.404   0.206 -0.0821  0.1626  0.0513
  190MOL   O10538283   1.700   6.512   0.148 -0.4402 -0.6052  0.1001
  190MOL   N10638284   1.631   6.299   0.152 -0.0591 -0.3970 -0.6246
  190MOL   H10738285   1.944   6.421   0.259 -0.3109 -1.6953 -0.3958
  190MOL   H10838286   1.904   6.533   0.395  1.7178  0.2798 -1.4515
  190MOL   H10938287   1.732   6.298   0.395  0.8513 -0.1168  1.3212
  190MOL   H11038288   1.600   6.225   0.213  2.5602 -2.5638 -1.8463
  190MOL   H11138289   1.582   6.316   0.066 -0.5128 -0.2694 -0.3409
  190MOL   C11238290   1.659   6.483   0.445  0.2265  0.1495  0.0584
  190MOL   C11338291   1.502   6.467   0.446 -0.3330 -0.5826  0.3200
  190MOL   C11438292   1.445   6.603   0.405 -0.5700  1.2607 -0.1787
  190MOL   O11538293   1.405   6.687   0.486  0.0630 -0.0742 -0.4203
  190MOL   N11638294   1.429   6.621   0.271 -0.2013  0.1192  0.3314
  190MOL   H11738295   1.684   6.583   0.409 -2.0166  0.4140 -0.8963
  190MOL   H11838296   1.700   6.460   0.543  1.4233  1.5124 -0.1139
  190MOL   H11938297   1.488   6.387   0.373  0.9055 -0.2121 -0.3414
  190MOL   H12038298   1.457   6.550   0.204 -2.2646  0.6360 -1.1206
  190MOL   H12138299   1.390   6.711   0.248 -0.8881 -0.3152 -0.2426
  190MOL   C12238300   1.446   6.406   0.572  0.2061  0.5218  0.4933
  190MOL   C12338301   1.305   6.338   0.565 -1.0216  0.1453 -0.2306
  190MOL   C12438302   1.240   6.288   0.697 -0.1089  1.0091  0.3521
  190MOL   O12538303   1.132   6.228   0.691  0.3641  0.4141 -0.8804
  190MOL   N12638304   1.309   6.290   0.809 -0.3637  0.8567  0.1489
  190MOL   H12738305   1.442   6.490   0.641 -0.2695  1.6419 -0.8765
  190MOL   H12838306   1.520   6.341   0.618  1.0830  1.3405  0.2477
  190MOL   H12938307   1.247   6.428   0.544 -0.8776  0.4585  0.7051
  190MOL   H13038308   1.407   6.314   0.808 -0.8300  2.8530 -2.3302
  190MOL   H13138309   1.256   6.261   0.890  0.0941  0.0182  0.1576
  190MOL   C13238310   1.293   6.222   0.453  0.0461  0.1076  0.2041
  190MOL   C13338311   1.369   6.089   0.476 -0.0818 -0.3061  0.1765
  190MOL   C13438312   1.510   6.091   0.435  0.5483  0.1921 -0.3890
  190MOL   O13538313   1.539   6.091   0.311  0.3280 -0.0532 -0.5860
  190MOL   N13638314   1.600   6.083   0.532  0.6976  0.3403  0.4721
  190MOL   H13738315   1.316   6.258   0.353  1.7402  0.5009  0.7218
  190MOL   H13838316   1.185   6.203   0.457 -0.0291  0.7001  1.0241
  190MOL   H13938317   1.366   6.084   0.585  0.7726 -0.7181  0.1878
  190MOL   H14038318   1.563   6.085   0.626  0.2372  0.3144  0.2934
  190MOL   H14138319   1.698   6.098   0.513  1.5292 -1.8924  2.7664
  190MOL   C14238320   1.298   5.959   0.433 -0.3363  0.3790 -0.3831
  190MOL   C14338321   1.286   5.916   0.282 -0.0100 -0.2301 -0.1320
  190MOL   C14438322   1.211   6.023   0.208 -0.2820  0.9256 -0.2213
  190MOL   O14538323   1.094   6.045   0.229 -0.4555 -0.1993 -0.1172
  190MOL   N14638324   1.276   6.085   0.112  0.6453  0.2783 -0.0377
  190MOL   H14738325   1.200   5.955   0.481  0.6512 -0.9947  1.5866
  190MOL   H14838326   1.349   5.881   0.489 -0.5611  2.7297  3.2342
  190MOL   H14938327   1.387   5.899   0.245  0.4189  1.9080  0.0168
  190MOL   H15038328   1.372   6.069   0.085  0.2292 -0.5775 -1.0667
  190MOL   H15138329   1.229   6.153   0.053  1.8137 -1.1155 -2.6751
  190MOL   C15238330   1.208   5.780   0.281 -0.8966  0.6377 -0.0138
  190MOL   C15338331   1.261   5.662   0.365 -0.1475  0.1925  0.7148
  190MOL   C15438332   1.248   5.535   0.284 -0.4036 -0.2706  0.7217
  190MOL   O15538333   1.138   5.486   0.272 -0.2478  0.7008 -0.9208
  190MOL   N15638334   1.343   5.502   0.196  0.2081 -0.8746 -0.5807
  190MOL   H15738335   1.206   5.752   0.176 -0.2072 -1.6242  0.5509
  190MOL   H15838336   1.102   5.802   0.295 -1.7453 -2.1965 -1.5990
  190MOL   H15938337   1.369   5.672   0.378  0.4233 -2.0926 -1.7917
  190MOL   H16038338   1.424   5.562   0.186  0.7055 -1.4509 -0.1111
  190MOL   H16138339   1.316   5.443   0.119 -2.5395 -0.0861 -0.2541
  190MOL   C16238340   1.191   5.652   0.499 -0.3166 -0.6302 -0.0574
  190MOL   C16338341   1.276   5.616   0.619  0.2815  0.5956 -0.2735
  190MOL   C16438342   1.323   5.473   0.617  0.4248 -1.0283 -0.5373
  190MOL   O16538343   1.248   5.383   0.635  0.1558  0.4200 -0.1789
  190MOL   N16638344   1.452   5.456   0.602  0.5214  0.0967 -0.5007
  190MOL   H16738345   1.119   5.570   0.498 -1.5700  0.4671 -0.0579
  190MOL   H16838346   1.131   5.742   0.511  0.1170 -0.3639  0.1142
  190MOL   H16938347   1.367   5.676   0.622 -0.1296  1.2274 -0.1671
  190MOL   H17038348   1.513   5.537   0.598  1.3340 -0.3498  2.2189
  190MOL   H17138349   1.491   5.366   0.626 -2.1954 -0.5725  1.6135
  190MOL   C17238350   1.201   5.644   0.748 -0.1692  0.7391 -0.1405
  190MOL   C17338351   1.182   5.792   0.785  0.3065  1.2665  0.1640
  190MOL   C17438352   1.316   5.849   0.828 -0.2564  0.0411  0.9968
  190MOL   O17538353   1.410   5.785   0.878 -0.1039 -0.3624  0.0155
  190MOL   N17638354   1.331   5.980   0.808  0.2981  0.2872 -0.1405
  190MOL   H17738355   1.241   5.583   0.829  0.3500 -0.2999 -1.1687
  190MOL   H17838356   1.105   5.599   0.725  0.6218 -0.5682 -0.9615
  190MOL   H17938357   1.141   5.845   0.699  0.1239  0.7036 -0.0923
  190MOL   H18038358   1.263   6.049   0.779  0.2137  0.6381  0.9061
  190MOL   H18138359   1.419   6.021   0.833  0.3829  0.5854 -0.8997
  190MOL   C18238360   1.072   5.807   0.890  1.0121 -0.0964 -0.0588
  190MOL   C18338361   0.923   5.795   0.854  0.0386  0.4271  0.4966
  190MOL   C18438362   0.861   5.661   0.880 -0.3872  0.5445  0.3436
  190MOL   O18538363   0.831   5.582   0.787 -0.1731 -0.0876 -0.4202
  190MOL   N18638364   0.847   5.627   1.011 -0.0400  1.2065 -0.6410
  190MOL   H18738365   1.076   5.906   0.936  2.6262 -0.3012  0.2603
  190MOL   H18838366   1.087   5.733   0.969 -0.5344  0.2902  0.6190
  190MOL   H18938367   0.878   5.857   0.931  0.7948  3.0420 -1.1295
  190MOL   H19038368   0.888   5.688   1.080  0.1891 -1.0589  1.2982
  190MOL   H19138369   0.810   5.538   1.041  0.2881  1.5772  0.9575
  190MOL   C19238370   0.886   5.843   0.710  0.3844  0.0610 -0.2101
  190MOL   C19338371   0.735   5.859   0.673 -0.0374  0.3512 -0.6420
  190MOL   C19438372   0.664   5.974   0.747  0.3456 -0.1573  0.2491
  190MOL   O19538373   0.722   6.043   0.829  0.3367 -0.7770  0.1962
  190MOL   N19638374   0.535   5.999   0.723 -0.6650 -0.1440 -0.5240
  190MOL   H19738375   0.924   5.770   0.639  2.4457  0.9304 -0.0222
  190MOL   H19838376   0.947   5.932   0.696  0.5923  0.2634  1.8799
  190MOL   H19938377   0.727   5.868   0.565  1.5041 -2.1624 -1.0044
  190MOL   H20038378   0.482   6.060   0.784 -0.8239 -2.2414  1.5159
  190MOL   H20138379   0.475   5.958   0.652  0.0859 -0.9189 -0.7167
  190MOL   H20238380   0.681   5.766   0.695  1.1072 -0.0256  0.6253
  191MOL     C138381   0.182   1.372   0.023 -0.1567 -0.5947 -0.2370
  191MOL     C238382   0.086   1.448   0.112  0.7634  0.3370 -1.0271
  191MOL     C338383   0.134   1.449   0.258  0.2787 -0.0265  0.3399
  191MOL     O438384   0.196   1.354   0.304 -0.4366  0.3121 -0.6704
  191MOL     N538385   0.117   1.560   0.330  0.3110  0.1502 -0.2880
  191MOL     H638386   0.278   1.422   0.008  0.3099 -2.3665 -3.4343
  191MOL     H738387   0.186   1.264   0.033  1.4409 -0.5155  0.3059
  191MOL     H838388   0.087   1.548   0.069  1.7075  0.8554  0.1960
  191MOL     H938389   0.149   1.566   0.426  0.9628 -0.0250 -0.4940
  191MOL    H1038390   0.072   1.642   0.292 -0.1493  0.3742  0.7179
  191MOL    H1138391   0.130   1.386   7.586 -0.8502 -2.0380 -0.0740
  191MOL    C1238392   7.594   1.395   0.111  0.4877  0.7648 -0.0500
  191MOL    C1338393   7.516   1.405   7.633  0.6584 -0.4405 -0.0638
  191MOL    C1438394   7.505   1.550   7.585  0.3607  0.3580 -0.1161
  191MOL    O1538395   7.438   1.622   7.652 -0.4390  0.0583  0.5452
  191MOL    N1638396   7.561   1.574   7.468  0.2189  0.5440 -0.5427
  191MOL    H1738397   7.536   1.459   0.178 -0.2076  0.7803 -0.6636
  191MOL    H1838398   7.588   1.295   0.155 -2.2269  0.5795 -0.7305
  191MOL    H1938399   7.560   1.344   7.554 -1.5004 -0.2520 -1.4413
  191MOL    H2038400   7.602   1.498   7.416 -0.1080  0.0489 -0.0797
  191MOL    H2138401   7.586   1.664   7.430  1.2488 -0.0627 -1.3176
  191MOL    C2238402   7.377   1.342   0.005 -0.9971 -0.1716  0.4939
  191MOL    C2338403   7.363   1.188   7.632 -0.0432  0.0082 -1.1430
  191MOL    C2438404   7.407   1.092   0.083  0.0933 -0.7819  0.1860
  191MOL    O2538405   7.523   1.057   0.094  0.1231 -0.7613  0.0143
  191MOL    N2638406   7.315   1.044   0.162  0.1807  0.4375  0.0968
  191MOL    H2738407   7.306   1.404   7.607  0.6224  0.1128 -1.3616
  191MOL    H2838408   7.355   1.360   0.110 -2.3936  2.5110 -0.1990
  191MOL    H2938409   7.255   1.174   7.636  0.2582 -2.3624 -0.4892
  191MOL    H3038410   7.217   1.057   0.142 -0.3481 -1.2908  1.5254
  191MOL    H3138411   7.337   0.970   0.227 -1.0830 -0.7510 -0.8213
  191MOL    C3238412   7.407   1.139   7.488  0.2318 -0.3462  0.1688
  191MOL    C3338413   7.356   1.011   7.445  0.1507 -0.2732 -1.0114
  191MOL    C3438414   7.422   0.963   7.316  0.3141  0.4549  0.6769
  191MOL    O3538415   7.430   1.043   7.219 -0.0969  0.2287 -0.2395
  191MOL    N3638416   7.469   0.842   7.303  0.1420  0.4792  0.2867
  191MOL    H3738417   7.515   1.129   7.484  0.1233 -2.0422  0.8489
  191MOL    H3838418   7.381   1.218   7.417 -0.8190 -0.6928  0.1462
  191MOL    H3938419   7.393   0.942   7.521 -1.9469 -0.9972 -0.6132
  191MOL    H4038420   7.514   0.824   7.214 -2.4911 -2.8372 -0.4675
  191MOL    H4138421   7.463   0.785   7.385 -1.2442 -0.5029 -0.4805
  191MOL    C4238422   7.202   0.996   7.432 -0.1569  0.0964 -0.5512
  191MOL    C4338423   7.133   0.875   7.489 -0.1987 -0.2263  0.7640
  191MOL    C4438424   7.185   0.741   7.437  0.2922 -0.6788  0.1372
  191MOL    O4538425   7.202   0.722   7.319 -0.5369  0.5818 -0.0473
  191MOL    N4638426   7.214   0.653   7.526 -0.1709 -0.6612  0.0629
  191MOL    H4738427   7.168   1.001   7.329 -0.3335 -2.1910 -0.6383
  191MOL    H4838428   7.165   1.089   7.474  0.8213 -0.4215  1.5369
  191MOL    H4938429   7.170   0.870   7.591 -2.0331  1.3420  1.5439
  191MOL    H5038430   7.251   0.561   7.508  1.3466  0.1211 -0.9778
  191MOL    H5138431   7.171   0.675   7.614 -1.2862  0.0655 -0.6515
  191MOL    C5238432   6.979   0.870   7.490 -0.6306  0.5888  0.0789
  191MOL    C5338433   6.908   0.988   7.569  0.0094 -0.2093 -0.2482
  191MOL    C5438434   6.951   1.008   0.060 -0.3280  0.0255  0.1172
  191MOL    O5538435   7.067   1.046   0.089 -0.1436  0.3311  0.1769
  191MOL    N5638436   6.865   0.980   0.154  0.0448  0.2063 -0.6575
  191MOL    H5738437   6.959   0.781   7.549  2.7279  0.7768  1.6028
  191MOL    H5838438   6.941   0.855   7.389 -0.1665  1.7954 -0.2926
  191MOL    H5938439   6.938   1.083   7.522  0.6453 -1.2956 -2.1039
  191MOL    H6038440   6.900   0.978   0.249  1.1193 -0.0286 -1.0523
  191MOL    H6138441   6.770   0.949   0.137  0.0200 -1.0702  1.6071
  191MOL    C6238442   6.750   0.994   7.546  0.1101  0.4425  0.4053
  191MOL    C6338443   6.674   0.862   7.548 -0.3987  0.3967 -0.2713
  191MOL    C6438444   6.616   0.829   7.408 -0.7363 -0.2776  0.5408
  191MOL    O6538445   6.685   0.845   7.305 -0.0677 -0.2580 -0.1510
  191MOL    N6638446   6.502   0.761   7.404 -0.2913  0.4069  0.5134
  191MOL    H6738447   6.718   1.046   7.455 -1.6594 -1.0217  0.1680
  191MOL    H6838448   6.705   1.049   7.628  1.1316 -0.1979  1.4063
  191MOL    H6938449   6.756   0.794   7.568 -1.0752  0.3760  2.6162
  191MOL    H7038450   6.471   0.743   7.309  0.6036  1.7889 -0.0709
  191MOL    H7138451   6.444   0.770   7.486  0.6380  3.0428  0.9243
  191MOL    C7238452   6.584   0.828   0.016  0.0201 -0.0783  0.7747
  191MOL    C7338453   6.571   0.678   0.052 -0.1714  0.3395  0.2085
  191MOL    C7438454   6.422   0.638   0.058 -0.0320  0.3003 -0.1613
  191MOL    O7538455   6.344   0.684   0.144  0.4332 -0.1236 -0.3978
  191MOL    N7638456   6.378   0.551   7.625 -0.4435 -0.5211  0.0883
  191MOL    H7738457   6.495   0.887   7.656  1.4822  2.4469  1.6619
  191MOL    H7838458   6.624   0.879   0.103 -0.1770  0.6683  0.4257
  191MOL    H7938459   6.600   0.619   7.622 -1.8340  0.8590 -0.7151
  191MOL    H8038460   6.282   0.521   7.618 -0.7693  0.6072 -0.2996
  191MOL    H8138461   6.437   0.514   7.552 -3.0634 -0.2766 -2.2434
  191MOL    C8238462   6.647   0.637   0.184 -0.2193  0.0440 -0.7324
  191MOL    C8338463   6.796   0.615   0.171 -0.2863  0.1307 -0.5405
  191MOL    C8438464   6.830   0.499   0.069 -0.0045  0.5123 -0.1116
  191MOL    O8538465   6.886   0.523   7.622  0.3533  0.0120  0.2050
  191MOL    N8638466   6.790   0.379   0.100 -0.5648 -0.2570  0.2358
  191MOL    H8738467   6.610   0.538   0.207 -0.5304 -0.1591 -2.0734
  191MOL    H8838468   6.617   0.701   0.268 -2.8721 -2.0199 -0.0569
  191MOL    H8938469   6.830   0.712   0.133 -0.1044 -0.2751 -1.4345
  191MOL    H9038470   6.844   0.311   0.049 -0.8046 -0.0848 -0.2490
  191MOL    H9138471   6.745   0.361   0.189 -0.8941 -0.6570 -0.0142
  191MOL    C9238472   6.871   0.600   0.308 -0.4741 -0.3975 -0.0262
  191MOL    C9338473   7.023   0.588   0.316 -0.1805  0.2756  0.4468
  191MOL    C9438474   7.097   0.704   0.242  0.0109  0.2274 -0.3361
  191MOL    O9538475   7.135   0.691   0.126 -0.4192  0.0849  0.6324
  191MOL    N9638476   7.107   0.824   0.292 -0.0934 -0.5019  0.5566
  191MOL    H9738477   6.833   0.512   0.359  0.2058 -1.7382 -1.7778
  191MOL    H9838478   6.861   0.691   0.367  1.6059 -0.3207  0.2450
  191MOL    H9938479   7.046   0.606   0.421  0.9548  3.3025 -0.2729
  191MOL   H10038480   7.113   0.905   0.231  1.4551 -0.6400  0.5113
  191MOL   H10138481   7.069   0.845   0.384 -0.7532 -0.3673  0.2540
  191MOL   C10238482   7.090   0.454   0.272  0.0101 -0.5701 -0.0124
  191MOL   C10338483   7.035   0.323   0.329 -0.2256  1.2425  0.1513
  191MOL   C10438484   7.021   0.310   0.482 -0.1950 -0.0518 -0.3183
  191MOL   O10538485   7.107   0.347   0.561  0.5098  0.3038  0.0331
  191MOL   N10638486   6.909   0.254   0.523  0.4058  0.4739 -0.3314
  191MOL   H10738487   7.192   0.454   0.312  0.9883  2.6908 -2.3115
  191MOL   H10838488   7.092   0.456   0.163  1.5429 -0.0487  0.0056
  191MOL   H10938489   6.933   0.319   0.290 -0.5246 -0.7140  1.0795
  191MOL   H11038490   6.891   0.251   0.622  2.5213  2.4224  0.1465
  191MOL   H11138491   6.838   0.225   0.457  1.1433 -2.0819 -0.0611
  191MOL   C11238492   7.117   0.194   0.274 -0.2188  0.5344 -0.5475
  191MOL   C11338493   7.085   0.170   0.125  0.0260  0.0851  0.2231
  191MOL   C11438494   6.962   0.073   0.110 -0.6925 -0.5159 -0.2856
  191MOL   O11538495   6.871   0.111   0.041 -0.4694  0.9883 -0.5041
  191MOL   N11638496   6.965   7.607   0.153  0.4744 -0.4519 -0.0728
  191MOL   H11738497   7.091   0.110   0.338  0.0561  0.5073 -0.4700
  191MOL   H11838498   7.224   0.209   0.286 -0.0948 -0.1374 -0.8224
  191MOL   H11938499   7.060   0.267   0.083 -1.1241  1.0350  2.9819
  191MOL   H12038500   7.047   7.583   0.206  1.1184  2.0777  0.1305
  191MOL   H12138501   6.888   7.549   0.122 -0.1181  0.5274 -0.4847
  191MOL   C12238502   7.204   0.115   0.042 -0.8100  0.4771 -0.1148
  191MOL   C12338503   7.345   0.182   0.049 -0.4422  0.2998  0.5621
  191MOL   C12438504   7.338   0.334   0.049 -0.4954  0.7603 -0.6738
  191MOL   O12538505   7.302   0.392   7.601  0.1435  0.2998 -0.8258
  191MOL   N12638506   7.385   0.404   0.149 -0.7451 -0.4141  0.0504
  191MOL   H12738507   7.176   0.134   7.595 -0.0559  1.9575 -0.0547
  191MOL   H12838508   7.219   0.008   0.057 -1.3944  0.2465 -1.0991
  191MOL   H12938509   7.399   0.151   0.138 -0.3778 -3.6419 -0.7155
  191MOL   H13038510   7.398   0.356   0.238  1.5195  0.8324  0.4369
  191MOL   H13138511   7.379   0.504   0.140 -0.6233 -0.2626  1.4559
  191MOL   C13238512   7.428   0.145   7.585 -0.2427  0.3937  0.3160
  191MOL   C13338513   7.484   0.000   7.591  0.4776 -0.2184 -0.2834
  191MOL   C13438514   7.591   7.645   0.045  0.3110  0.3203 -0.0472
  191MOL   O13538515   7.574   7.567   0.140  0.1671 -0.0908 -0.0110
  191MOL   N13638516   0.045   0.055   0.023  0.1540 -0.6373  0.0566
  191MOL   H13738517   7.509   0.216   7.567 -1.4893  1.9653  0.8708
  191MOL   H13838518   7.366   0.157   7.496  0.6636 -0.4108 -0.4393
  191MOL   H13938519   7.396   7.602   7.624 -0.9871  2.8646  1.1649
  191MOL   H14038520   0.075   0.113   7.603 -0.3208  1.3317  1.3159
  191MOL   H14138521   0.103   0.048   0.105 -0.8338 -1.0508  0.7386
  191MOL   C14238522   7.532   7.610   7.449 -1.1328  0.4060  0.2017
  191MOL   C14338523   7.507   7.458   7.414 -0.9621 -0.3536  0.2891
  191MOL   C14438524   7.557   7.431   7.272  0.5089  0.7424 -0.6590
  191MOL   O14538525   7.598   7.526   7.205  0.0075  0.1159  0.1616
  191MOL   N14638526   7.562   7.311   7.225 -0.0140  0.2899  0.4316
  191MOL   H14738527   7.638   7.632   7.434 -0.5941 -0.6066  2.3297
  191MOL   H14838528   7.501   0.017   7.366  0.0192  0.1114 -0.4659
  191MOL   H14938529   7.581   7.400   7.469  0.3898  0.0088 -1.1428
  191MOL   H15038530   7.510   7.241   7.276  0.9230 -1.1874 -0.5969
  191MOL   H15138531   7.592   7.292   7.130 -0.1122  1.6561  0.1256
  191MOL   C15238532   7.374   7.394   7.446  0.4187  0.4532  0.2684
  191MOL   C15338533   7.242   7.463   7.401 -0.5227 -0.2682 -0.4566
  191MOL   C15438534   7.118   7.429   7.482  0.0343  0.5809  0.4041
  191MOL   O15538535   7.106   7.314   7.531 -0.3602 -0.1333 -0.2403
  191MOL   N15638536   7.022   7.514   7.491  0.4034  0.0462  0.7382
  191MOL   H15738537   7.384   7.381   7.554  1.0041 -1.6272 -0.0130
  191MOL   H15838538   7.377   7.288   7.418  2.8422  0.3780  0.7228
  191MOL   H15938539   7.260   7.569   7.418 -0.7024  0.2407 -3.2089
  191MOL   H16038540   7.032   7.609   7.456  1.6441 -0.5213 -0.5114
  191MOL   H16138541   6.928   7.492   7.519 -0.8565  4.2628  0.2337
  191MOL   C16238542   7.213   7.444   7.247  0.5170  0.5471  0.1937
  191MOL   C16338543   7.131   7.317   7.196  0.5982  0.3456 -0.2967
  191MOL   C16438544   7.205   7.183   7.193  0.9514  0.8244  0.2639
  191MOL   O16538545   7.277   7.150   7.100  0.1106  0.0544 -0.0808
  191MOL   N16638546   7.190   7.106   7.299  0.2089 -0.4020  0.1040
  191MOL   H16738547   7.299   7.452   7.181 -0.6714 -3.6079 -2.0254
  191MOL   H16838548   7.156   7.530   7.210  0.7549 -0.1744 -1.9222
  191MOL   H16938549   7.037   7.310   7.251  0.2779 -0.1755 -0.9140
  191MOL   H17038550   7.214   7.008   7.297 -0.3151 -0.5719  1.1883
  191MOL   H17138551   7.146   7.153   7.377  0.1700  0.1897 -0.2796
  191MOL   C17238552   7.083   7.343   7.054  0.1303 -0.5679 -0.9516
  191MOL   C17338553   6.944   7.266   7.032 -0.2042 -0.5878 -0.0273
  191MOL   C17438554   6.941   7.202   6.896 -0.4421  0.4296  0.2918
  191MOL   O17538555   6.971   7.083   6.891  0.9230  0.0992  0.2714
  191MOL   N17638556   6.902   7.265   6.786 -0.0945 -0.4886 -0.0429
  191MOL   H17738557   7.158   7.315   6.981  2.0100 -1.1562  1.1433
  191MOL   H17838558   7.070   7.451   7.047  1.1347 -0.4971 -1.7319
  191MOL   H17938559   6.943   7.182   7.101 -1.5734 -0.0334  0.6418
  191MOL   H18038560   6.901   7.214   6.699  1.2369 -0.7594  0.0962
  191MOL   H18138561   6.832   7.336   6.798 -2.8613 -2.8367 -1.6653
  191MOL   C18238562   6.820   7.359   7.070 -0.3726 -0.0117  0.0739
  191MOL   C18338563   6.704   7.283   7.136  1.0294 -0.3191  0.2268
  191MOL   C18438564   6.625   7.202   7.029  0.3355 -0.4210  1.0750
  191MOL   O18538565   6.572   7.254   6.932  0.3838 -0.4827  0.5517
  191MOL   N18638566   6.630   7.072   7.031 -0.1808 -0.0828  0.1834
  191MOL   H18738567   6.791   7.423   6.986 -2.0443  1.3034  1.5794
  191MOL   H18838568   6.859   7.441   7.131  1.9474  0.3750 -1.8568
  191MOL   H18938569   6.730   7.206   7.208 -0.5948 -1.5937 -0.5275
  191MOL   H19038570   6.664   7.030   7.116 -0.6948 -0.5197  0.1763
  191MOL   H19138571   6.578   7.020   6.961 -0.7671  0.1203  0.4672
  191MOL   C19238572   6.602   7.372   7.208  0.1438  0.0982  0.5108
  191MOL   C19338573   6.648   7.447   7.338  0.0431 -0.1276 -0.1283
  191MOL   C19438574   6.663   7.353   7.464 -0.1515  0.3543 -0.3291
  191MOL   O19538575   6.772   7.346   7.527  0.5573  0.4222  0.0732
  191MOL   N19638576   6.551   7.289   7.501  0.1347  0.1228 -0.1157
  191MOL   H19738577   6.519   7.310   7.241  0.0972 -0.6260 -0.9317
  191MOL   H19838578   6.573   7.448   7.135 -0.2137 -0.9344 -0.4280
  191MOL   H19938579   6.734   7.513   7.332 -1.4300  2.1108  2.3429
  191MOL   H20038580   6.552   7.233   7.585 -3.0480 -0.3051 -0.2931
  191MOL   H20138581   6.457   7.301   7.465  0.1436 -1.5125 -0.7167
  191MOL   H20238582   6.577   7.524   7.369  0.5589 -0.8437  3.0322
  192MOL     C138583   0.497   3.072   3.792  0.1329  0.3421 -0.5536
  192MOL     C238584   0.491   2.974   3.674 -0.7973 -0.2072 -0.1712
  192MOL     C338585   0.361   2.994   3.604 -0.0427  0.1019  0.2063
  192MOL     O438586   0.252   3.001   3.663 -0.4178 -0.4151 -0.2561
  192MOL     N538587   0.366   2.990   3.476  0.2625 -0.4439  0.8271
  192MOL     H638588   0.410   3.056   3.857  0.3368 -1.5922 -0.7193
  192MOL     H738589   0.587   3.046   3.847 -0.2142 -1.7511 -0.9298
  192MOL     H838590   0.581   2.996   3.618 -0.4089 -0.1384  0.4732
  192MOL     H938591   0.452   2.973   3.425 -0.5850 -0.3391 -0.6645
  192MOL    H1038592   0.276   2.994   3.430 -0.0478  0.7404  1.5075
  192MOL    H1138593   0.513   3.177   3.769 -1.7015  0.9010  0.5973
  192MOL    C1238594   0.505   2.826   3.720 -1.0926  0.2438 -0.0013
  192MOL    C1338595   0.402   2.753   3.816  0.0773 -0.9647  0.0121
  192MOL    C1438596   0.401   2.810   3.961  0.4153 -1.2002 -0.1358
  192MOL    O1538597   0.498   2.855   4.021  0.2779  0.4554  0.0363
  192MOL    N1638598   0.281   2.792   4.018  0.3975  0.1248 -0.2171
  192MOL    H1738599   0.599   2.827   3.777 -1.2357  0.7336  0.2274
  192MOL    H1838600   0.521   2.772   3.626  1.3140  0.7018  0.1193
  192MOL    H1938601   0.301   2.761   3.775 -0.3288 -0.9367  0.9934
  192MOL    H2038602   0.203   2.758   3.965  1.6113 -0.2305 -1.8108
  192MOL    H2138603   0.269   2.802   4.118 -0.0204 -0.7222 -0.1830
  192MOL    C2238604   0.413   2.599   3.820  0.4272 -0.0979  0.5335
  192MOL    C2338605   0.285   2.512   3.799 -1.0029  0.0894  0.7081
  192MOL    C2438606   0.277   2.382   3.884 -0.0124  0.5049  0.4119
  192MOL    O2538607   0.173   2.369   3.950  0.8926 -0.4567 -0.3058
  192MOL    N2638608   0.381   2.298   3.890  0.3018 -0.3833  0.0600
  192MOL    H2738609   0.475   2.567   3.903 -1.5430  2.1654  2.9863
  192MOL    H2838610   0.486   2.557   3.751  0.6519  1.6355 -0.3161
  192MOL    H2938611   0.198   2.568   3.835 -1.2437  1.3727 -1.7922
  192MOL    H3038612   0.463   2.325   3.837 -0.3134 -0.4278 -0.9374
  192MOL    H3138613   0.387   2.216   3.949  0.2159 -1.0002 -0.7770
  192MOL    C3238614   0.257   2.483   3.656 -0.3760  0.2189  0.8501
  192MOL    C3338615   0.242   2.593   3.549  0.0393 -0.4935  0.2144
  192MOL    C3438616   0.101   2.650   3.547  0.3226 -0.5947 -0.4851
  192MOL    O3538617   0.004   2.590   3.497 -0.3511  0.1676 -0.3766
  192MOL    N3638618   0.083   2.779   3.592  0.1471  0.3849  0.0751
  192MOL    H3738619   0.171   2.416   3.649  0.6524 -0.9114 -1.7454
  192MOL    H3838620   0.328   2.410   3.617 -1.4628 -1.7141  2.4009
  192MOL    H3938621   0.310   2.673   3.580 -2.0903  0.9335  1.2932
  192MOL    H4038622   0.165   2.831   3.619  1.6250 -1.4906 -0.7516
  192MOL    H4138623   7.652   2.828   3.580  0.1154 -0.0052 -1.3107
  192MOL    C4238624   0.274   2.538   3.408 -0.1150  0.6971  0.3017
  192MOL    C4338625   0.419   2.498   3.363 -0.5150 -0.6217  0.0046
  192MOL    C4438626   0.497   2.627   3.318 -0.2240  0.6494  0.6320
  192MOL    O4538627   0.443   2.706   3.237 -0.2762  0.3311  0.1868
  192MOL    N4638628   0.617   2.642   3.364 -0.2097  0.0065 -0.1807
  192MOL    H4738629   0.235   2.598   3.326  2.6026  0.6344 -1.0808
  192MOL    H4838630   0.213   2.449   3.392  0.2972  0.9520 -2.8131
  192MOL    H4938631   0.465   2.445   3.447  1.1647 -1.2567 -1.2696
  192MOL    H5038632   0.665   2.729   3.347 -1.4633  0.7535  0.1093
  192MOL    H5138633   0.661   2.572   3.421 -0.9432 -2.1287 -2.1378
  192MOL    C5238634   0.417   2.398   3.245  0.6174  0.3472 -0.0675
  192MOL    C5338635   0.375   2.256   3.288 -0.5087  0.8776  0.2705
  192MOL    C5438636   0.478   2.182   3.368  0.0154  0.1834  0.4684
  192MOL    O5538637   0.585   2.160   3.313 -0.2949  0.2907  0.0610
  192MOL    N5638638   0.451   2.150   3.495 -0.1013 -0.6383  0.1778
  192MOL    H5738639   0.516   2.387   3.200 -0.0954  1.6110 -1.9890
  192MOL    H5838640   0.357   2.432   3.161  3.6586  2.2047 -1.6018
  192MOL    H5938641   0.290   2.262   3.355 -1.4446  0.6116 -0.8828
  192MOL    H6038642   0.360   2.164   3.535 -0.5257 -1.5153 -0.4554
  192MOL    H6138643   0.519   2.094   3.546 -0.4342  0.1898  1.5621
  192MOL    C6238644   0.333   2.162   3.173 -0.2388  0.1482  0.0219
  192MOL    C6338645   0.245   2.035   3.199 -0.5463 -0.0818  0.2290
  192MOL    C6438646   0.252   1.935   3.082 -0.5681 -1.1361 -0.0543
  192MOL    O6538647   0.178   1.946   2.982 -0.0954 -0.2211 -0.1007
  192MOL    N6638648   0.351   1.851   3.086  0.1876 -0.0808 -0.4281
  192MOL    H6738649   0.423   2.133   3.120  0.3009  0.5743  0.6950
  192MOL    H6838650   0.286   2.215   3.091 -0.6872 -0.1291  0.0931
  192MOL    H6938651   0.279   1.998   3.296  0.9396 -0.6941 -0.5117
  192MOL    H7038652   0.368   1.802   2.999 -1.8097 -0.7434 -0.4634
  192MOL    H7138653   0.412   1.832   3.164  0.0223  0.8126 -0.0855
  192MOL    C7238654   0.096   2.086   3.222  0.0896  0.0386  1.2733
  192MOL    C7338655   0.004   1.973   3.271 -0.0527  0.3356 -0.7436
  192MOL    C7438656   7.515   2.015   3.245 -0.3848 -0.5800  0.4668
  192MOL    O7538657   7.457   2.113   3.291  0.1540 -0.0245  0.0405
  192MOL    N7638658   7.452   1.936   3.157  0.0035  0.2961 -0.5480
  192MOL    H7738659   0.061   2.122   3.125  2.2599 -0.3919  0.3012
  192MOL    H7838660   0.075   2.178   3.277 -1.9040 -0.2001  0.9496
  192MOL    H7938661   0.021   1.879   3.219  0.9324 -0.0420  0.2426
  192MOL    H8038662   7.358   1.951   3.123  0.0929 -3.1071 -2.5464
  192MOL    H8138663   7.498   1.849   3.132  0.8770  0.6000 -0.0057
  192MOL    C8238664   0.021   1.937   3.420 -0.4846  0.1505 -0.7885
  192MOL    C8338665   7.633   2.034   3.535  0.1496  0.5786 -0.6231
  192MOL    C8438666   0.054   2.167   3.546 -0.6166  0.2305 -0.1789
  192MOL    O8538667   0.174   2.171   3.577 -0.1464  0.2168  0.0385
  192MOL    N8638668   7.638   2.282   3.534  0.2186  0.7604 -0.6362
  192MOL    H8738669   0.121   1.895   3.437 -0.7981  0.1792  1.2954
  192MOL    H8838670   7.633   1.838   3.429  2.5030 -1.2281 -0.3250
  192MOL    H8938671   7.530   2.059   3.511  0.2691  0.1251 -1.6388
  192MOL    H9038672   7.539   2.264   3.525  0.3311 -1.7735  2.3174
  192MOL    H9138673   0.015   2.376   3.541  0.7834  0.4192  1.5627
  192MOL    C9238674   7.634   1.962   3.675 -0.1489  0.2946  0.3155
  192MOL    C9338675   7.561   2.052   3.787 -0.5417 -0.4267 -0.5611
  192MOL    C9438676   7.617   2.027   3.924  0.1425 -1.0344 -0.1095
  192MOL    O9538677   7.606   1.916   3.979  0.1983 -0.5389 -0.3224
  192MOL    N9638678   0.021   2.119   3.993 -0.6925 -0.1751 -1.2932
  192MOL    H9738679   0.077   1.923   3.697  0.5012  1.1936 -0.9498
  192MOL    H9838680   7.583   1.867   3.657  0.7411 -0.3853  1.3305
  192MOL    H9938681   7.579   2.159   3.779 -4.0603  0.2857  0.4134
  192MOL   H10038682   0.030   2.212   3.955  4.6069 -0.8826 -2.2501
  192MOL   H10138683   0.060   2.092   4.082 -1.1013  1.8206 -0.4903
  192MOL   C10238684   7.407   2.053   3.792  0.1563 -0.8418  0.6199
  192MOL   C10338685   7.343   2.171   3.877  0.2567  0.3087  0.1405
  192MOL   C10438686   7.194   2.134   3.912  0.2148  0.8226 -0.7088
  192MOL   O10538687   7.145   2.215   3.989 -0.1544  0.0118  0.3721
  192MOL   N10638688   7.134   2.036   3.850  0.2323 -0.3985  0.7604
  192MOL   H10738689   7.378   1.957   3.835 -1.5833 -0.9341 -0.6805
  192MOL   H10838690   7.365   2.045   3.692  0.8624  2.0782  0.0429
  192MOL   H10938691   7.386   2.171   3.977 -2.0752  0.5710  1.1859
  192MOL   H11038692   7.035   2.024   3.869  0.0331 -0.2556 -0.1899
  192MOL   H11138693   7.178   1.980   3.779 -1.7883 -2.6341  1.2159
  192MOL   C11238694   7.346   2.308   3.799 -0.1724  0.3813  0.4801
  192MOL   C11338695   7.344   2.432   3.885 -0.5079  0.2791 -0.3292
  192MOL   C11438696   7.248   2.532   3.828  0.4193  0.0934  0.5140
  192MOL   O11538697   7.290   2.624   3.760  0.1700  0.3575  0.8257
  192MOL   N11638698   7.124   2.528   3.874 -0.1751  0.0462 -0.3915
  192MOL   H11738699   7.257   2.314   3.736  1.1630  0.4797 -1.4422
  192MOL   H11838700   7.425   2.312   3.724 -0.1904  1.9451  0.5357
  192MOL   H11938701   7.311   2.415   3.987  0.4873  0.7243  0.0762
  192MOL   H12038702   7.065   2.607   3.852  0.7144  1.2020  1.2653
  192MOL   H12138703   7.095   2.454   3.938  0.1835  2.6046  2.8671
  192MOL   C12238704   7.488   2.497   3.900 -0.3591  0.0298 -0.0605
  192MOL   C12338705   7.510   2.631   3.979 -0.2657  0.1777  0.4972
  192MOL   C12438706   7.567   2.740   3.898  0.0424 -0.1501  0.3588
  192MOL   O12538707   0.025   2.784   3.917 -0.0062 -0.0577 -0.1376
  192MOL   N12638708   7.488   2.793   3.812 -0.5093  0.1201  0.8894
  192MOL   H12738709   7.521   2.504   3.797 -0.0855 -0.0427  0.0206
  192MOL   H12838710   7.560   2.425   3.939  0.8104  1.2411  0.0732
  192MOL   H12938711   7.413   2.661   4.019  0.3014  0.0705  2.0031
  192MOL   H13038712   7.515   2.873   3.757 -0.9996 -0.1256  0.2844
  192MOL   H13138713   7.407   2.736   3.791 -0.7135 -0.8197  3.9939
  192MOL   C13238714   7.607   2.603   4.098 -0.1657 -0.1735 -0.2955
  192MOL   C13338715   7.550   2.519   4.215 -0.7411 -0.4327 -0.0417
  192MOL   C13438716   7.450   2.610   4.294  0.2699  0.5920  0.4791
  192MOL   O13538717   7.333   2.604   4.276  0.2348 -0.0453 -0.6755
  192MOL   N13638718   7.505   2.697   4.382 -0.6867  0.2967  0.1934
  192MOL   H13738719   7.636   2.699   4.141 -2.1827  0.5197 -0.4298
  192MOL   H13838720   0.045   2.579   4.050  0.7929 -2.3736  2.5475
  192MOL   H13938721   7.493   2.433   4.181  1.9426 -1.7093 -1.4669
  192MOL   H14038722   7.446   2.735   4.455 -1.6000 -2.1000  0.7534
  192MOL   H14138723   7.602   2.719   4.364  0.2001 -2.3154  1.4584
  192MOL   C14238724   0.006   2.454   4.293  0.2765 -0.4020  0.1188
  192MOL   C14338725   7.643   2.401   4.438 -0.1919  0.8149  0.1665
  192MOL   C14438726   0.129   2.356   4.491  0.0531 -0.8894 -0.8735
  192MOL   O14538727   0.209   2.429   4.558 -0.2986  0.3322 -0.3233
  192MOL   N14638728   0.158   2.236   4.448 -0.0405 -0.3886  0.0753
  192MOL   H14738729   0.083   2.528   4.313 -0.0066 -0.2603  0.6829
  192MOL   H14838730   0.044   2.369   4.236 -1.2175 -0.7229 -0.4172
  192MOL   H14938731   7.616   2.488   4.498  0.4747  1.5631 -0.6083
  192MOL   H15038732   0.089   2.179   4.401 -1.4740  2.0735 -0.9419
  192MOL   H15138733   0.238   2.189   4.488 -0.0546  0.2710  0.8976
  192MOL   C15238734   7.533   2.293   4.446 -0.4510  0.7544  0.6079
  192MOL   C15338735   7.524   2.200   4.576 -0.5802  0.0838 -0.0717
  192MOL   C15438736   7.422   2.092   4.554  0.8026  0.4083  0.6296
  192MOL   O15538737   7.349   2.081   4.456  0.4111  0.1072 -0.0725
  192MOL   N15638738   7.406   2.004   4.652  0.7453 -0.0523 -0.0057
  192MOL   H15738739   7.555   2.236   4.356  0.6053  1.3783  0.4604
  192MOL   H15838740   7.437   2.340   4.425 -1.6514 -2.0301 -0.2862
  192MOL   H15938741   7.617   2.144   4.573 -0.9564 -0.6809  1.7728
  192MOL   H16038742   7.335   1.932   4.644  2.2494 -1.3150 -2.5551
  192MOL   H16138743   7.476   1.997   4.725  0.1279 -0.0940  0.5925
  192MOL   C16238744   7.510   2.266   4.712 -0.0073 -0.5906 -0.1498
  192MOL   C16338745   7.372   2.338   4.733  0.1032 -0.0821  0.0748
  192MOL   C16438746   7.391   2.486   4.729 -0.0853  0.0056  0.1569
  192MOL   O16538747   7.462   2.539   4.813 -0.4499  0.3943 -0.7314
  192MOL   N16638748   7.326   2.556   4.641  0.5121  0.4651  0.3771
  192MOL   H16738749   7.587   2.338   4.740  0.6595 -1.2637 -0.2440
  192MOL   H16838750   7.525   2.185   4.784  0.2278  0.7590  1.3606
  192MOL   H16938751   7.314   2.327   4.642 -0.0999  0.5299  0.1293
  192MOL   H17038752   7.343   2.656   4.642 -0.2565  0.5993  1.0880
  192MOL   H17138753   7.267   2.511   4.573  0.1969 -0.2856  1.1301
  192MOL   C17238754   7.305   2.287   4.862 -0.2247  0.4902 -0.8676
  192MOL   C17338755   7.169   2.349   4.905 -0.1436 -0.5438  0.2451
  192MOL   C17438756   7.142   2.348   5.059 -0.3378 -0.5047 -0.0665
  192MOL   O17538757   7.100   2.448   5.105  0.3436 -0.3704  0.3906
  192MOL   N17638758   7.181   2.234   5.127  0.0506 -0.1656 -0.4807
  192MOL   H17738759   7.376   2.306   4.944  0.3540  1.2003 -1.5261
  192MOL   H17838760   7.294   2.179   4.854  0.8000  0.5259 -3.0888
  192MOL   H17938761   7.166   2.451   4.867 -0.9816 -0.5979  0.1438
  192MOL   H18038762   7.199   2.152   5.071  2.6288 -0.0520  0.1546
  192MOL   H18138763   7.193   2.238   5.228 -1.6856  0.2473 -0.2707
  192MOL   C18238764   7.059   2.264   4.834  0.2861  0.2651  0.0638
  192MOL   C18338765   6.908   2.312   4.825 -0.5093  0.7015 -0.5343
  192MOL   C18438766   6.826   2.267   4.952 -0.3645 -0.3963 -0.0267
  192MOL   O18538767   6.810   2.151   4.978 -0.4577  0.5446 -0.3855
  192MOL   N18638768   6.776   2.363   5.026  0.1915  0.0940  0.0589
  192MOL   H18738769   7.066   2.167   4.882 -3.1707 -0.2566 -0.3536
  192MOL   H18838770   7.094   2.251   4.732 -0.8409  0.2106 -0.3238
  192MOL   H18938771   6.920   2.420   4.835  0.4813  0.7200 -1.8023
  192MOL   H19038772   6.766   2.449   4.975 -1.1744  0.2494  0.5704
  192MOL   H19138773   6.739   2.343   5.118 -0.5195 -2.7219 -0.7794
  192MOL   C19238774   6.847   2.282   4.689 -0.2533 -0.2836  0.6262
  192MOL   C19338775   6.704   2.330   4.656 -0.2320  0.4387 -0.0578
  192MOL   C19438776   6.591   2.238   4.710 -0.0201  0.6469  0.5828
  192MOL   O19538777   6.589   2.114   4.718  0.1173 -0.0873  0.3857
  192MOL   N19638778   6.480   2.302   4.737 -0.2881  0.8500 -0.2188
  192MOL   H19738779   6.843   2.174   4.675  0.2513 -0.4469  1.7522
  192MOL   H19838780   6.914   2.305   4.606  0.7408 -0.4045  1.3941
  192MOL   H19938781   6.689   2.432   4.691  1.8676  1.1929 -1.2556
  192MOL   H20038782   6.476   2.398   4.708  0.0561  0.8856 -0.1447
  192MOL   H20138783   6.402   2.248   4.770 -0.0808 -1.4774 -3.2543
  192MOL   H20238784   6.691   2.334   4.548  1.8959 -0.3971 -0.3615
  193MOL     C138785   1.394   5.567   7.156  0.1874  0.2871 -0.9344
  193MOL     C238786   1.359   5.714   7.151  0.3365 -0.3355  0.2621
  193MOL     C338787   1.471   5.800   7.213 -0.5373  0.3418 -0.3799
  193MOL     O438788   1.447   5.868   7.312  0.1502  0.2351  0.7896
  193MOL     N538789   1.589   5.801   7.159  0.2337 -0.5953 -0.3833
  193MOL     H638790   1.354   5.522   7.065  0.4611 -1.4067 -0.2481
  193MOL     H738791   1.503   5.555   7.157  0.3018  1.0574 -2.1810
  193MOL     H838792   1.366   5.718   7.043  2.4890 -0.2626  0.3868
  193MOL     H938793   1.659   5.870   7.182 -0.2150 -0.2071 -0.2013
  193MOL    H1038794   1.611   5.730   7.090 -1.1507 -2.0085  0.5942
  193MOL    H1138795   1.349   5.523   7.245 -0.6972 -0.5923 -1.8116
  193MOL    C1238796   1.213   5.756   7.189  0.1463 -0.0374 -0.1059
  193MOL    C1338797   1.140   5.873   7.111 -0.0937  0.1977  0.3898
  193MOL    C1438798   1.209   6.003   7.112 -0.1412  0.4600  0.4681
  193MOL    O1538799   1.247   6.057   7.005  0.0971 -0.7324  0.0587
  193MOL    N1638800   1.211   6.064   7.230  0.1878 -0.2078 -0.0503
  193MOL    H1738801   1.203   5.775   7.296  2.6852 -1.1304  0.3504
  193MOL    H1838802   1.153   5.667   7.164 -1.2825  1.2222 -1.2586
  193MOL    H1938803   1.155   5.836   7.009  0.0973  0.3451  0.3651
  193MOL    H2038804   1.231   6.163   7.232  1.8627 -0.5146 -1.0377
  193MOL    H2138805   1.164   6.026   7.311  2.0131 -0.8699  0.7246
  193MOL    C2238806   0.989   5.898   7.138  0.0816 -0.1055  0.2766
  193MOL    C2338807   0.924   5.969   7.018  0.1785 -0.5047  0.6588
  193MOL    C2438808   0.897   6.112   7.059 -0.2385  0.4880  0.1191
  193MOL    O2538809   0.837   6.134   7.164 -0.7984  0.2129  0.1097
  193MOL    N2638810   0.949   6.210   6.980  0.0656 -0.2270  0.3761
  193MOL    H2738811   0.970   5.954   7.229 -2.0630  2.2284 -1.5364
  193MOL    H2838812   0.938   5.803   7.152 -0.4710  0.0733 -0.4543
  193MOL    H2938813   0.989   5.983   6.932 -1.2988 -0.8713 -0.5392
  193MOL    H3038814   1.008   6.180   6.903 -2.1097  3.3896 -2.8481
  193MOL    H3138815   0.969   6.304   7.010  1.3454 -1.1597  2.6359
  193MOL    C3238816   0.792   5.908   6.972 -0.1552 -0.0162 -0.1632
  193MOL    C3338817   0.789   5.765   6.938  0.2441  0.5393  0.0372
  193MOL    C3438818   0.920   5.722   6.856  0.5585 -0.2908 -0.3307
  193MOL    O3538819   0.944   5.781   6.746  0.4394 -0.2998  0.2808
  193MOL    N3638820   0.991   5.618   6.904  0.1883 -0.7967 -0.7272
  193MOL    H3738821   0.758   5.970   6.889 -2.2463  0.1506  0.8022
  193MOL    H3838822   0.708   5.917   7.040 -2.0244 -2.6469 -2.0390
  193MOL    H3938823   0.788   5.713   7.034  0.7438  2.3395  1.0463
  193MOL    H4038824   0.973   5.572   6.992  0.8623 -0.8345 -0.6020
  193MOL    H4138825   1.065   5.586   6.842 -0.0346  0.2199 -1.5234
  193MOL    C4238826   0.659   5.722   6.869 -0.2720 -0.8036  0.0071
  193MOL    C4338827   0.589   5.596   6.925 -0.3942  0.6948  0.1906
  193MOL    C4438828   0.627   5.463   6.852 -0.2240  1.2585  1.0537
  193MOL    O4538829   0.573   5.443   6.744  0.4919  0.0803  0.0949
  193MOL    N4638830   0.709   5.379   6.916  0.8558 -0.0467 -0.3027
  193MOL    H4738831   0.675   5.707   6.762 -2.6925 -0.8433 -0.3815
  193MOL    H4838832   0.588   5.805   6.871 -0.6022 -1.0343 -1.8305
  193MOL    H4938833   0.612   5.583   7.030 -3.9363 -0.7752  0.8792
  193MOL    H5038834   0.715   5.283   6.886  1.1169  0.3169 -1.4171
  193MOL    H5138835   0.742   5.406   7.008  0.1299  1.5152 -0.4898
  193MOL    C5238836   0.436   5.616   6.918  0.5148 -0.2191  0.1661
  193MOL    C5338837   0.373   5.662   7.057 -0.2995 -0.0868  0.1176
  193MOL    C5438838   0.414   5.801   7.106 -0.1944  0.0816 -0.3481
  193MOL    O5538839   0.532   5.812   7.144  0.0303 -0.0468  0.2248
  193MOL    N5638840   0.333   5.907   7.084 -0.5579  0.4906 -0.1491
  193MOL    H5738841   0.391   5.521   6.892  1.7488 -0.8325  0.2118
  193MOL    H5838842   0.414   5.676   6.830 -1.4844 -1.7016 -0.3731
  193MOL    H5938843   0.265   5.668   7.042 -0.1522 -3.0823 -2.5816
  193MOL    H6038844   0.368   6.001   7.086 -4.0696  1.8618  1.5532
  193MOL    H6138845   0.239   5.901   7.046 -0.7627 -1.7419  0.6045
  193MOL    C6238846   0.386   5.560   7.172  0.2361 -0.7738 -0.2229
  193MOL    C6338847   0.319   5.424   7.135 -0.0321 -0.5525 -0.2504
  193MOL    C6438848   0.166   5.449   7.150  0.2842 -0.4955 -0.2991
  193MOL    O6538849   0.118   5.466   7.261 -0.4592  0.0601 -0.1298
  193MOL    N6638850   0.100   5.443   7.037  0.1914 -0.1543  0.5522
  193MOL    H6738851   0.345   5.605   7.263 -1.7554 -2.4515 -0.2562
  193MOL    H6838852   0.490   5.537   7.195 -0.1808 -3.1840 -0.5573
  193MOL    H6938853   0.348   5.392   7.035 -2.1931 -0.4347 -0.9292
  193MOL    H7038854   0.010   5.486   7.021  0.2276 -0.6430 -1.0034
  193MOL    H7138855   0.157   5.411   6.961 -2.0241 -1.3263 -0.6820
  193MOL    C7238856   0.372   5.312   7.227  0.1173 -0.3836  0.5976
  193MOL    C7338857   0.352   5.165   7.170 -0.2844  0.0616  0.3199
  193MOL    C7438858   0.229   5.087   7.219  0.8376  0.7701 -0.2524
  193MOL    O7538859   0.210   4.968   7.222 -0.2835  0.1492  0.0175
  193MOL    N7638860   0.136   5.164   7.268 -0.0105  0.7387 -0.2937
  193MOL    H7738861   0.325   5.327   7.325 -0.1219 -0.9190  0.5669
  193MOL    H7838862   0.480   5.321   7.233  0.1460  0.3651 -0.8320
  193MOL    H7938863   0.339   5.166   7.062 -1.8371  3.1047  0.4999
  193MOL    H8038864   0.150   5.264   7.268 -2.0609  1.0561  1.0315
  193MOL    H8138865   0.063   5.116   7.319  1.3515 -0.2204  0.7945
  193MOL    C8238866   0.480   5.080   7.187 -0.3658 -0.0672 -0.6322
  193MOL    C8338867   0.514   5.006   7.324  0.4098  0.1159  0.3556
  193MOL    C8438868   0.508   5.088   7.453 -0.2444 -0.2772  0.1604
  193MOL    O8538869   0.557   5.201   7.449  0.7357  0.0095 -0.4401
  193MOL    N8638870   0.437   5.043   7.554  0.4597  0.5874 -0.5851
  193MOL    H8738871   0.565   5.140   7.155 -0.0364  0.0890  0.4978
  193MOL    H8838872   0.481   5.000   7.113  0.6348  2.0957 -3.0296
  193MOL    H8938873   0.431   4.938   7.342  0.0922  0.4734  0.2454
  193MOL    H9038874   0.401   4.948   7.557  3.3137 -0.5154  1.8429
  193MOL    H9138875   0.425   5.101   7.636  3.0562 -0.3134  0.4828
  193MOL    C9238876   0.642   4.931   7.312 -0.1075  0.1246 -0.3493
  193MOL    C9338877   0.640   4.783   7.339  0.4096  0.5899 -0.2866
  193MOL    C9438878   0.628   4.751   7.490  0.3678  0.1917  0.5675
  193MOL    O9538879   0.724   4.787   7.553 -0.0575 -0.2011  0.1049
  193MOL    N9638880   0.529   4.672   7.533  0.1495 -0.2982 -0.0450
  193MOL    H9738881   0.722   4.976   7.370 -2.3874  2.0934  1.3669
  193MOL    H9838882   0.669   4.940   7.207  1.7626  2.0279  0.2797
  193MOL    H9938883   0.548   4.739   7.299  0.6512 -1.5131  1.3942
  193MOL   H10038884   0.542   4.635   7.626 -0.0894  0.5390  0.3345
  193MOL   H10138885   0.454   4.645   7.471 -0.2260  1.8711 -0.5875
  193MOL   C10238886   0.760   4.707   7.286  0.2948  0.2111 -0.9855
  193MOL   C10338887   0.749   4.555   7.295  0.5443 -0.5997 -0.2042
  193MOL   C10438888   0.818   4.472   7.407 -0.0455 -0.7518 -0.5165
  193MOL   O10538889   0.821   4.348   7.402  0.1839 -0.2546  0.0399
  193MOL   N10638890   0.873   4.536   7.505  0.3804  0.0842  0.0381
  193MOL   H10738891   0.856   4.742   7.325  0.2033 -0.3877 -0.2301
  193MOL   H10838892   0.769   4.722   7.178  0.7037  0.2821 -0.9445
  193MOL   H10938893   0.651   4.531   7.336  0.9186 -1.7179  0.0637
  193MOL   H11038894   0.870   4.635   7.527  2.9665  0.0158  0.9330
  193MOL   H11138895   0.913   4.474   7.574 -0.9901 -0.6308  0.1946
  193MOL   C11238896   0.771   4.484   7.158 -0.0610 -0.8668  0.2117
  193MOL   C11338897   0.650   4.412   7.100  0.5618  0.5839 -0.1409
  193MOL   C11438898   0.672   4.327   6.971 -0.0880  0.3111 -0.9249
  193MOL   O11538899   0.763   4.366   6.900  0.0170  0.0028 -0.3504
  193MOL   N11638900   0.585   4.233   6.936 -0.3503  0.5312 -0.0093
  193MOL   H11738901   0.851   4.410   7.149  0.4919  0.0120 -2.4956
  193MOL   H11838902   0.797   4.542   7.070 -4.1139 -0.3938 -0.7434
  193MOL   H11938903   0.618   4.349   7.183 -2.8796  1.0588 -1.0244
  193MOL   H12038904   0.611   4.207   6.843 -1.2902 -1.3880  0.2535
  193MOL   H12138905   0.503   4.217   6.993 -0.4785 -0.8576 -0.5902
  193MOL   C12238906   0.523   4.500   7.077 -0.3955  0.1682  0.7855
  193MOL   C12338907   0.512   4.589   6.948  0.3493 -0.1821 -0.4475
  193MOL   C12438908   0.608   4.712   6.950 -0.4478 -0.5186  0.7711
  193MOL   O12538909   0.572   4.833   6.963  0.4747 -0.2298  0.4769
  193MOL   N12638910   0.728   4.688   6.904  0.0462  0.4013  0.3932
  193MOL   H12738911   0.496   4.564   7.161 -2.7750  1.2020 -0.6949
  193MOL   H12838912   0.438   4.432   7.088  0.5636 -1.1619  0.0091
  193MOL   H12938913   0.540   4.541   6.854  0.6468  1.0679 -1.0011
  193MOL   H13038914   0.795   4.762   6.909 -2.2201  2.5968 -0.4146
  193MOL   H13138915   0.755   4.592   6.886 -0.1033  0.3072  0.6781
  193MOL   C13238916   0.362   4.640   6.919 -0.3974  0.1597 -0.4516
  193MOL   C13338917   0.256   4.540   6.872 -0.2919 -0.3572  0.1683
  193MOL   C13438918   0.311   4.467   6.752 -0.6651 -0.0857  0.4289
  193MOL   O13538919   0.302   4.512   6.641  0.6389  0.0330  0.3682
  193MOL   N13638920   0.364   4.353   6.777  0.8844 -0.1037 -0.4143
  193MOL   H13738921   0.378   4.725   6.853  0.9274 -0.8667 -1.4765
  193MOL   H13838922   0.328   4.685   7.012  3.5605 -0.2380  1.3172
  193MOL   H13938923   0.249   4.472   6.957 -1.5321 -0.0394  0.3367
  193MOL   H14038924   0.356   4.309   6.868  0.7594  0.0283 -0.3600
  193MOL   H14138925   0.395   4.295   6.701  0.4196 -0.5212 -0.2945
  193MOL   C14238926   0.120   4.610   6.836 -0.1535  0.0984 -0.5859
  193MOL   C14338927   7.645   4.528   6.841  0.0530 -0.6201  0.4575
  193MOL   C14438928   7.544   4.595   6.736  0.0207  0.5736 -0.5569
  193MOL   O14538929   7.430   4.628   6.765 -0.2788 -0.9079 -0.2363
  193MOL   N14638930   7.578   4.602   6.608  0.3408  0.0814 -0.1628
  193MOL   H14738931   0.137   4.654   6.738  1.0663 -0.0237 -0.4338
  193MOL   H14838932   0.113   4.706   6.886 -1.5738 -1.3258  2.0325
  193MOL   H14938933   0.011   4.429   6.802 -0.7756 -0.8794  0.6314
  193MOL   H15038934   7.512   4.636   6.540  0.5412 -0.3723 -0.5884
  193MOL   H15138935   0.013   4.568   6.584 -0.3226 -1.9665  0.0875
  193MOL   C15238936   7.589   4.520   6.987  0.5586  0.1750  0.1289
  193MOL   C15338937   7.472   4.426   7.014 -0.0873  0.2937 -0.4896
  193MOL   C15438938   7.439   4.435   7.164 -0.3101  0.2304 -0.1551
  193MOL   O15538939   7.476   4.352   7.243 -0.4015 -0.2317  0.0999
  193MOL   N15638940   7.370   4.540   7.212 -0.6629  0.4528  0.3279
  193MOL   H15738941   7.557   4.623   7.005  1.2316  0.2669  0.8182
  193MOL   H15838942   0.014   4.498   7.055  0.6777 -0.0800 -0.0976
  193MOL   H15938943   7.395   4.475   6.953 -1.4043  1.6013  2.1354
  193MOL   H16038944   7.306   4.550   7.290 -1.2188  3.5763 -0.4434
  193MOL   H16138945   7.337   4.604   7.141  0.9587 -1.3246 -2.1205
  193MOL   C16238946   7.486   4.278   6.970  0.3728 -0.6266 -0.0568
  193MOL   C16338947   7.362   4.187   6.958 -0.1202  0.5332 -0.6430
  193MOL   C16438948   7.398   4.037   6.968  0.2497  0.2654 -0.1642
  193MOL   O16538949   7.476   3.984   6.892 -0.6294  0.2392 -0.1147
  193MOL   N16638950   7.329   3.969   7.057 -0.1554 -0.1306 -0.4284
  193MOL   H16738951   7.559   4.229   7.035  1.7196  0.0791 -1.0244
  193MOL   H16838952   7.533   4.292   6.872 -1.7213 -0.2474 -1.0296
  193MOL   H16938953   7.313   4.209   7.052  0.7688  0.5648 -0.1839
  193MOL   H17038954   7.270   4.011   7.128  0.9459 -0.1330  0.4941
  193MOL   H17138955   7.347   3.870   7.065  0.8094  0.2166  2.1702
  193MOL   C17238956   7.265   4.212   6.845 -0.1928  0.1624 -0.1549
  193MOL   C17338957   7.128   4.266   6.903  0.6265 -0.3883 -0.2172
  193MOL   C17438958   7.029   4.157   6.947  0.0193  0.0212 -0.0961
  193MOL   O17538959   7.002   4.149   7.070 -0.0696 -0.0001  0.0065
  193MOL   N17638960   6.978   4.077   6.854  0.3373  0.0284  0.2776
  193MOL   H17738961   7.239   4.120   6.793  1.7206 -0.7210  0.4256
  193MOL   H17838962   7.307   4.290   6.782 -0.9935  0.8124  0.1115
  193MOL   H17938963   7.135   4.328   6.992 -1.5097 -0.2401 -0.1180
  193MOL   H18038964   6.910   4.012   6.892  0.1704 -0.2375 -0.4671
  193MOL   H18138965   7.002   4.077   6.756 -1.2714  2.3806 -0.1612
  193MOL   C18238966   7.047   4.373   6.813  0.1221  0.0018 -0.3908
  193MOL   C18338967   7.104   4.514   6.797 -0.3136 -0.7966  0.3328
  193MOL   C18438968   7.118   4.599   6.924 -1.0347 -0.5417  0.1758
  193MOL   O18538969   7.042   4.587   7.023  0.6174  0.0558  0.7302
  193MOL   N18638970   7.218   4.691   6.925  0.4762 -0.9152 -0.5847
  193MOL   H18738971   6.943   4.375   6.847 -0.3580  1.2075 -1.8705
  193MOL   H18838972   7.033   4.326   6.716 -0.7118 -2.4357  0.8654
  193MOL   H18938973   7.200   4.503   6.747  0.9844  2.5921  1.9285
  193MOL   H19038974   7.275   4.700   6.842  0.6807  3.2817 -0.0660
  193MOL   H19138975   7.243   4.755   6.999  0.3589 -0.5441 -0.8669
  193MOL   C19238976   7.022   4.588   6.695 -0.7460 -0.0021 -0.1566
  193MOL   C19338977   6.866   4.588   6.713 -0.3386  0.0475 -0.1754
  193MOL   C19438978   6.793   4.683   6.619 -0.1965 -0.0274 -0.1789
  193MOL   O19538979   6.857   4.782   6.572  0.7945 -0.0928 -0.4853
  193MOL   N19638980   6.667   4.654   6.584 -0.4228  0.5015 -0.0540
  193MOL   H19738981   7.032   4.541   6.597 -1.2456 -1.6714  0.5630
  193MOL   H19838982   7.064   4.688   6.698  3.2394 -1.6050  0.5136
  193MOL   H19938983   6.834   4.484   6.723  0.0999 -0.2135 -1.4158
  193MOL   H20038984   6.624   4.575   6.629 -0.3957  0.8875  0.6585
  193MOL   H20138985   6.617   4.722   6.528 -0.6250  0.9574  0.6744
  193MOL   H20238986   6.846   4.628   6.813 -1.1361  1.0102 -0.7141
  194MOL     C138987   6.888   1.503   5.411  0.0195 -0.5980  0.6316
  194MOL     C238988   6.773   1.524   5.303 -1.0604  0.0992 -0.2982
  194MOL     C338989   6.705   1.397   5.252  0.9577  0.0726  0.3521
  194MOL     O438990   6.587   1.375   5.274 -0.0562  0.6436  0.0494
  194MOL     N538991   6.778   1.314   5.182  0.2133 -0.5100 -0.0030
  194MOL     H638992   6.866   1.415   5.472  2.9528 -0.1327  2.4752
  194MOL     H738993   6.983   1.483   5.361  0.1216  0.3653  0.4192
  194MOL     H838994   6.691   1.570   5.358 -0.9708  0.2408 -0.2836
  194MOL     H938995   6.873   1.339   5.160  0.6426 -0.0649  2.1756
  194MOL    H1038996   6.734   1.226   5.159 -0.0936 -0.7581  1.4561
  194MOL    H1138997   6.891   1.590   5.478 -1.3193  1.1289 -1.4878
  194MOL    C1238998   6.815   1.616   5.187 -0.0834  0.8923 -0.2075
  194MOL    C1338999   6.840   1.767   5.228  0.7218  0.4140 -0.0960
  194MOL    C1439000   6.710   1.851   5.222  0.2845  0.3351  0.1013
  194MOL    O1539001   6.623   1.825   5.141  0.0294 -0.3448  0.4066
  194MOL    N1639002   6.676   1.930   5.318 -0.2275 -0.7048 -0.1143
  194MOL    H1739003   6.738   1.603   5.111 -0.0034 -1.4108  0.0630
  194MOL    H1839004   6.898   1.562   5.140 -0.6416 -1.2242  1.1407
  194MOL    H1939005   6.873   1.778   5.331  0.0339  0.3326  0.1331
  194MOL    H2039006   6.595   1.989   5.317  0.9901  0.9849 -0.5646
  194MOL    H2139007   6.746   1.946   5.389 -1.2526  1.9064  0.3706
  194MOL    C2239008   6.945   1.829   5.141  0.0243  0.0682 -0.6719
  194MOL    C2339009   7.091   1.791   5.170 -0.8839 -0.3449  0.3087
  194MOL    C2439010   7.188   1.917   5.170 -0.6482  0.2259  0.1687
  194MOL    O2539011   7.226   1.971   5.062 -0.1328  0.3041 -1.3087
  194MOL    N2639012   7.225   1.968   5.285 -0.1048  0.4285  0.4693
  194MOL    H2739013   6.948   1.937   5.151 -0.7782  0.0904 -0.5972
  194MOL    H2839014   6.915   1.800   5.040 -0.2792  0.3255 -0.6544
  194MOL    H2939015   7.101   1.746   5.269  0.2386 -1.2682 -0.2079
  194MOL    H3039016   7.296   2.040   5.288  0.3205 -0.0313  1.6727
  194MOL    H3139017   7.201   1.922   5.371  0.1828 -2.7397 -1.0831
  194MOL    C3239018   7.144   1.676   5.072  0.2839 -0.5528  0.4590
  194MOL    C3339019   7.197   1.549   5.146  0.0902  0.2788 -0.0517
  194MOL    C3439020   7.325   1.580   5.223  0.0482  0.3601  0.1034
  194MOL    O3539021   7.405   1.673   5.185 -0.4418  0.3989 -0.0406
  194MOL    N3639022   7.352   1.515   5.339  0.3073 -0.2376 -0.2583
  194MOL    H3739023   7.220   1.724   5.010  0.3897 -0.2502  0.8258
  194MOL    H3839024   7.063   1.644   5.007  0.6286 -0.9385  0.2098
  194MOL    H3939025   7.132   1.522   5.228 -1.5999  1.6370 -0.9109
  194MOL    H4039026   7.283   1.454   5.382 -0.9817  0.7452 -0.8837
  194MOL    H4139027   7.443   1.523   5.381  0.2789  1.4712 -0.5123
  194MOL    C4239028   7.194   1.420   5.059  0.1998 -0.3713  0.1352
  194MOL    C4339029   7.330   1.375   4.999  0.5569 -0.3944  0.1525
  194MOL    C4439030   7.323   1.319   4.856 -0.1502 -0.1673 -0.0536
  194MOL    O4539031   7.283   1.204   4.840 -0.1047  0.5036  0.0772
  194MOL    N4639032   7.370   1.394   4.756  0.0219  0.4607 -0.0008
  194MOL    H4739033   7.122   1.430   4.978  2.1205 -2.5444 -1.9187
  194MOL    H4839034   7.144   1.346   5.120  2.1967 -0.9872  1.0777
  194MOL    H4939035   7.398   1.460   4.989 -0.2268  0.2781  0.4195
  194MOL    H5039036   7.386   1.494   4.767  0.0492  0.8088 -2.8588
  194MOL    H5139037   7.392   1.354   4.666 -2.8361 -1.8147  0.2214
  194MOL    C5239038   7.409   1.281   5.092 -0.3746 -0.1630  0.0180
  194MOL    C5339039   7.563   1.256   5.060  0.2580  0.0946  0.2487
  194MOL    C5439040   7.627   1.147   5.154 -0.0693  0.4556  0.5932
  194MOL    O5539041   7.612   1.157   5.272 -0.0001 -0.4717  0.0594
  194MOL    N5639042   0.038   1.044   5.101  0.5765 -0.1658  0.3116
  194MOL    H5739043   7.361   1.185   5.111 -0.8168 -0.0191 -0.3912
  194MOL    H5839044   7.415   1.324   5.192 -1.1206  0.9807 -0.4167
  194MOL    H5939045   7.569   1.209   4.962 -1.0569  0.3200  0.0459
  194MOL    H6039046   0.100   0.993   5.162  0.7834 -0.4295 -0.1185
  194MOL    H6139047   0.022   1.011   5.007  2.5066  1.8031 -0.7364
  194MOL    C6239048   7.654   1.380   5.056  0.4321 -0.2854 -0.3092
  194MOL    C6339049   0.149   1.360   5.028  0.3552 -0.0162 -0.2321
  194MOL    C6439050   0.242   1.437   5.117 -0.0035  0.3823 -0.4550
  194MOL    O6539051   0.209   1.532   5.186 -0.6362 -0.0517  0.3139
  194MOL    N6639052   0.363   1.385   5.127 -0.0051  0.1301  0.1170
  194MOL    H6739053   7.643   1.420   5.157  0.4385  0.0221 -0.4296
  194MOL    H6839054   7.622   1.457   4.986  0.7382 -1.8140 -2.1930
  194MOL    H6939055   0.172   1.261   5.067  0.3964  0.6044  1.3374
  194MOL    H7039056   0.378   1.300   5.074 -1.4722 -0.4877  0.6386
  194MOL    H7139057   0.432   1.438   5.178 -1.1740  1.0975  0.7288
  194MOL    C7239058   0.181   1.375   4.878 -0.0487 -0.3143  0.4640
  194MOL    C7339059   0.307   1.296   4.836  0.4662  0.5805 -0.7530
  194MOL    C7439060   0.335   1.322   4.682 -0.2331 -0.0025  0.3889
  194MOL    O7539061   0.280   1.266   4.596  0.0338  0.1650  0.6378
  194MOL    N7639062   0.434   1.405   4.656  0.3235 -0.1809 -0.4850
  194MOL    H7739063   0.195   1.482   4.860  0.4110 -0.2761  1.0360
  194MOL    H7839064   0.106   1.329   4.815  0.2844  0.1967 -0.3200
  194MOL    H7939065   0.391   1.351   4.880  1.4385 -1.7147  0.3576
  194MOL    H8039066   0.470   1.458   4.733 -0.1181  0.9486 -1.0424
  194MOL    H8139067   0.457   1.423   4.559 -1.7703 -0.8577 -1.1422
  194MOL    C8239068   0.313   1.141   4.878  0.0197 -0.0499  0.1041
  194MOL    C8339069   0.447   1.086   4.840  0.0384 -0.0466  0.2319
  194MOL    C8439070   0.417   0.944   4.805 -0.8300 -0.2194  0.3842
  194MOL    O8539071   0.417   0.851   4.885  0.7148 -0.2920 -0.2741
  194MOL    N8639072   0.409   0.913   4.676  0.1693  0.1045  0.4706
  194MOL    H8739073   0.224   1.102   4.828  0.5098 -0.5588 -0.3819
  194MOL    H8839074   0.284   1.119   4.981 -2.2213  1.7833 -0.0911
  194MOL    H8939075   0.481   1.138   4.751 -3.8112  1.5160 -0.4353
  194MOL    H9039076   0.393   0.815   4.655 -0.8631 -0.0587  1.8908
  194MOL    H9139077   0.407   0.986   4.606 -0.7159 -1.2148 -0.9121
  194MOL    C9239078   0.542   1.103   4.954 -0.6179 -0.0662 -0.1323
  194MOL    C9339079   0.694   1.073   4.923 -0.4240  0.7962  0.5066
  194MOL    C9439080   0.726   0.919   4.912 -0.7778  0.5243 -0.5005
  194MOL    O9539081   0.707   0.840   5.004  0.0822 -0.4778  0.7421
  194MOL    N9639082   0.780   0.882   4.796  0.1143  0.3335  0.1959
  194MOL    H9739083   0.515   1.042   5.040 -0.5746 -0.6967 -0.5623
  194MOL    H9839084   0.538   1.204   4.995  4.8036 -0.3565  1.4914
  194MOL    H9939085   0.711   1.101   4.819 -0.7883  1.2334  0.5636
  194MOL   H10039086   0.799   0.946   4.720  0.5008  1.0956  0.9234
  194MOL   H10139087   0.793   0.782   4.790 -0.4115  0.2590  0.2105
  194MOL   C10239088   0.789   1.157   5.007  0.1426 -0.2542 -0.3335
  194MOL   C10339089   0.835   1.099   5.143  0.2603  0.3716 -0.0905
  194MOL   C10439090   0.713   1.101   5.240 -0.7109  0.7423 -0.6834
  194MOL   O10539091   0.642   1.206   5.246  0.8019  0.9584  0.0138
  194MOL   N10639092   0.700   1.008   5.333  0.1465  0.0635  0.9547
  194MOL   H10739093   0.741   1.254   5.023  0.4900  0.0378 -1.0628
  194MOL   H10839094   0.873   1.179   4.941 -0.5901 -2.0540 -1.8983
  194MOL   H10939095   0.871   0.998   5.130  0.4809  0.3450  0.7405
  194MOL   H11039096   0.632   1.027   5.406  0.9374  0.4577  1.5963
  194MOL   H11139097   0.742   0.917   5.318 -2.3648 -0.8480 -0.8197
  194MOL   C11239098   0.939   1.191   5.215  0.2106 -0.4785 -0.2541
  194MOL   C11339099   1.020   1.122   5.326  0.0701  0.3295  0.2699
  194MOL   C11439100   1.085   1.215   5.426 -0.6101  0.8532  0.0846
  194MOL   O11539101   1.145   1.320   5.388 -0.5981 -0.4401 -0.6065
  194MOL   N11639102   1.098   1.180   5.554  0.1064  0.1219  0.3208
  194MOL   H11739103   0.892   1.286   5.238  0.8040  0.0845 -1.3331
  194MOL   H11839104   1.019   1.214   5.145 -0.4035 -0.8419 -1.0881
  194MOL   H11939105   0.940   1.073   5.381  0.4378 -0.8110 -0.2042
  194MOL   H12039106   1.072   1.088   5.587 -0.8964  0.0075 -0.7673
  194MOL   H12139107   1.142   1.244   5.619 -0.5836  1.6348 -0.6791
  194MOL   C12239108   1.132   1.023   5.283  0.0909  0.6800  0.6724
  194MOL   C12339109   1.090   0.879   5.290 -0.0392  0.1031  0.3590
  194MOL   C12439110   1.048   0.846   5.435  0.6169  0.2532 -0.2944
  194MOL   O12539111   1.116   0.887   5.532 -0.0183  0.2209 -0.1001
  194MOL   N12639112   0.952   0.754   5.456  0.2975 -1.0944  0.1520
  194MOL   H12739113   1.217   1.033   5.350  0.5036 -0.8416  0.3864
  194MOL   H12839114   1.165   1.039   5.180 -0.7689 -0.6193  0.1813
  194MOL   H12939115   1.001   0.859   5.230  1.0992  1.0089 -1.6705
  194MOL   H13039116   0.905   0.716   5.375 -0.4297 -2.2186  1.0803
  194MOL   H13139117   0.927   0.722   5.549  1.2617 -0.4206  0.6480
  194MOL   C13239118   1.202   0.784   5.249 -0.4549  0.5860  0.3971
  194MOL   C13339119   1.192   0.763   5.102  0.5371 -0.6459  0.1158
  194MOL   C13439120   1.066   0.674   5.062  0.0879  0.2621 -0.1567
  194MOL   O13539121   1.011   0.602   5.144 -0.1387  0.2071  0.1555
  194MOL   N13639122   1.023   0.679   4.936 -0.6229 -0.4181  0.3686
  194MOL   H13739123   1.182   0.687   5.294 -0.0348  1.4865  2.5911
  194MOL   H13839124   1.295   0.830   5.284 -1.2309  0.5796  2.5029
  194MOL   H13939125   1.193   0.859   5.051  0.6388 -1.2667 -1.0775
  194MOL   H14039126   1.058   0.759   4.886 -0.0008  0.4973  2.1883
  194MOL   H14139127   0.965   0.609   4.893 -1.3054  1.3073 -1.5756
  194MOL   C14239128   1.320   0.687   5.060  0.1683  0.8994 -0.9288
  194MOL   C14339129   1.458   0.745   5.059 -0.1259  0.6503 -0.3759
  194MOL   C14439130   1.462   0.870   4.969 -0.3693  0.3189 -0.3258
  194MOL   O14539131   1.464   0.848   4.848  0.3014 -0.1454  0.4501
  194MOL   N14639132   1.475   0.992   5.018  0.5773 -0.4696  0.2256
  194MOL   H14739133   1.305   0.657   4.956 -0.6517 -1.9406 -0.0409
  194MOL   H14839134   1.320   0.589   5.107  0.5606  1.0955 -0.5175
  194MOL   H14939135   1.482   0.788   5.156 -1.7670  2.4011 -0.7127
  194MOL   H15039136   1.464   1.078   4.966 -0.7769 -0.3891  0.6314
  194MOL   H15139137   1.469   1.004   5.118 -0.7102  2.5207 -0.1869
  194MOL   C15239138   1.561   0.632   5.030 -0.0525 -0.7648 -0.1143
  194MOL   C15339139   1.552   0.544   4.907  0.1498 -0.4545  0.0356
  194MOL   C15439140   1.444   0.433   4.916  0.2948  0.8193  0.1543
  194MOL   O15539141   1.457   0.339   4.994  0.1954 -0.2856 -0.0765
  194MOL   N15639142   1.337   0.434   4.844  0.1090 -0.4809  0.6148
  194MOL   H15739143   1.569   0.558   5.110  0.6110  0.9061  1.4182
  194MOL   H15839144   1.658   0.681   5.020  0.0332 -1.2696 -1.8479
  194MOL   H15939145   1.515   0.611   4.829  0.4943 -2.0780 -1.5529
  194MOL   H16039146   1.315   0.512   4.784 -3.1023 -2.0279 -0.3413
  194MOL   H16139147   1.285   0.348   4.831  0.4423 -0.4479 -1.0069
  194MOL   C16239148   1.682   0.474   4.867 -0.5314  0.0930 -0.3956
  194MOL   C16339149   1.671   0.377   4.748  0.1085  0.0049 -0.2187
  194MOL   C16439150   1.797   0.291   4.723  0.3798 -0.5389  0.0643
  194MOL   O16539151   1.914   0.338   4.726 -0.1340  0.4761  0.0133
  194MOL   N16639152   1.780   0.158   4.726 -0.2187  0.7848  0.2433
  194MOL   H16739153   1.716   0.421   4.956 -3.0058  1.6404  1.5367
  194MOL   H16839154   1.767   0.539   4.844  0.9780 -2.0130 -0.8487
  194MOL   H16939155   1.594   0.302   4.764 -1.8360  1.6045 -1.8298
  194MOL   H17039156   1.868   0.109   4.715 -0.8940 -0.3967  0.0117
  194MOL   H17139157   1.693   0.110   4.740 -0.0843  0.0581 -1.2579
  194MOL   C17239158   1.645   0.467   4.621 -0.0158 -0.4340 -0.3769
  194MOL   C17339159   1.595   0.405   4.494 -0.0494  1.1109  0.0432
  194MOL   C17439160   1.626   0.494   4.375 -0.2651 -0.6729 -0.7197
  194MOL   O17539161   1.590   0.609   4.382 -0.0272 -0.4048  0.6577
  194MOL   N17639162   1.700   0.441   4.277  0.0520 -0.7008 -0.3469
  194MOL   H17739163   1.747   0.498   4.600  0.3652 -2.1873 -1.2568
  194MOL   H17839164   1.589   0.560   4.628 -0.1691 -0.1191 -4.7610
  194MOL   H17939165   1.636   0.307   4.470  1.4608  2.0229 -1.2660
  194MOL   H18039166   1.710   0.501   4.196 -0.1593  1.4986  1.2130
  194MOL   H18139167   1.733   0.345   4.283  1.9953 -0.2220 -2.6765
  194MOL   C18239168   1.442   0.382   4.510  0.1188 -0.2215 -0.5475
  194MOL   C18339169   1.375   0.285   4.409 -0.7529  0.1543 -0.8019
  194MOL   C18439170   1.317   0.367   4.290 -0.1205 -0.0229  0.3020
  194MOL   O18539171   1.238   0.457   4.311 -0.2157 -0.4988  0.2237
  194MOL   N18639172   1.338   0.339   4.165  0.2996 -0.0370 -0.5153
  194MOL   H18739173   1.373   0.465   4.525 -0.4584 -1.2908  2.9520
  194MOL   H18839174   1.434   0.330   4.605 -1.1405  0.7792 -0.0942
  194MOL   H18939175   1.455   0.220   4.376 -0.9873 -0.0585 -0.9494
  194MOL   H19039176   1.313   0.397   4.086 -3.7836 -1.1655 -0.1499
  194MOL   H19139177   1.407   0.267   4.147 -0.5913 -1.2395  0.7980
  194MOL   C19239178   1.265   0.194   4.480 -0.4282  0.0495 -0.2096
  194MOL   C19339179   1.236   0.069   4.402 -0.2602 -0.6485  0.2958
  194MOL   C19439180   1.095   0.017   4.438  0.5586  0.4018 -0.0044
  194MOL   O19539181   0.994   0.077   4.415 -0.2260  0.1440 -0.3111
  194MOL   N19639182   1.075   7.547   4.480 -0.0882 -0.0232 -0.2553
  194MOL   H19739183   1.173   0.251   4.494 -0.5042 -0.4644  1.5066
  194MOL   H19839184   1.292   0.168   4.582 -0.3379  0.6959 -0.0633
  194MOL   H19939185   1.240   0.088   4.295  1.4670 -3.1223 -0.1312
  194MOL   H20039186   0.986   7.502   4.491 -0.5773  0.8938 -0.4068
  194MOL   H20139187   1.144   7.474   4.473 -0.5811 -0.7829  2.2525
  194MOL   H20239188   1.312   7.652   4.429  1.9620  2.1663  2.1108
  195MOL     C139189   3.740   4.231   5.902 -0.3705 -0.8867 -0.0797
  195MOL     C239190   3.714   4.105   5.986 -0.1553  0.0288  0.5330
  195MOL     C339191   3.562   4.096   5.999 -0.0777 -0.2564  0.3388
  195MOL     O439192   3.513   3.994   6.034 -0.2935 -0.1673  0.0835
  195MOL     N539193   3.484   4.200   5.971  0.2448  0.4278 -0.4353
  195MOL     H639194   3.682   4.232   5.810 -0.9876 -0.6807  0.3068
  195MOL     H739195   3.725   4.315   5.970  0.3558  0.3193 -1.3829
  195MOL     H839196   3.744   4.017   5.929  3.8229  0.5599  1.6594
  195MOL     H939197   3.391   4.199   6.011  0.1374  0.1387 -0.6891
  195MOL    H1039198   3.527   4.286   5.942 -0.1417 -0.0331 -2.4771
  195MOL    H1139199   3.842   4.225   5.865 -0.3785  0.5868 -0.3636
  195MOL    C1239200   3.787   4.101   6.130 -0.2831  0.6380 -0.0317
  195MOL    C1339201   3.764   3.963   6.212  0.3962 -0.5216 -0.5219
  195MOL    C1439202   3.749   3.996   6.365  0.1992 -0.3334 -0.2009
  195MOL    O1539203   3.840   4.031   6.440  0.3217  0.2818  0.3258
  195MOL    N1639204   3.625   3.984   6.403 -0.9087  0.3137  0.1996
  195MOL    H1739205   3.756   4.192   6.182 -0.1098  2.4858 -3.0699
  195MOL    H1839206   3.895   4.106   6.120 -0.1823 -1.0404  0.0964
  195MOL    H1939207   3.670   3.917   6.182 -0.0775 -0.9171  1.4621
  195MOL    H2039208   3.606   3.994   6.502  2.5929  1.4645  0.8373
  195MOL    H2139209   3.556   3.965   6.333 -1.2977 -0.5122  0.7887
  195MOL    C2239210   3.886   3.861   6.207 -0.2486 -0.4943 -0.5545
  195MOL    C2339211   3.860   3.711   6.249 -0.5773  0.3141  0.1233
  195MOL    C2439212   3.993   3.640   6.283 -0.0593 -0.0283  0.2851
  195MOL    O2539213   4.100   3.689   6.247  0.5192  0.3582 -0.1671
  195MOL    N2639214   3.990   3.533   6.363 -0.3149 -0.2934 -0.7744
  195MOL    H2739215   3.970   3.910   6.255 -1.8519  0.2956  1.5285
  195MOL    H2839216   3.920   3.854   6.104  0.5881 -0.4615 -0.2831
  195MOL    H2939217   3.802   3.711   6.341  2.4750 -0.6631  2.1379
  195MOL    H3039218   4.076   3.485   6.383 -0.5355 -0.1318  0.6515
  195MOL    H3139219   3.899   3.496   6.388 -0.6114  0.9990  0.1773
  195MOL    C3239220   3.780   3.629   6.146  0.6482 -0.2926 -0.2068
  195MOL    C3339221   3.638   3.604   6.202  0.6829  0.4608  0.2404
  195MOL    C3439222   3.639   3.528   6.340  0.6560  0.0514  0.5148
  195MOL    O3539223   3.717   3.441   6.361  0.3778 -0.0607  0.2751
  195MOL    N3639224   3.549   3.573   6.427 -0.0864 -0.1928  0.3752
  195MOL    H3739225   3.838   3.541   6.118  3.2048  1.2248  0.1382
  195MOL    H3839226   3.768   3.678   6.049 -0.5685 -1.1188 -0.4795
  195MOL    H3939227   3.593   3.702   6.217  0.3306 -0.0386  2.6980
  195MOL    H4039228   3.550   3.529   6.518  0.8068 -0.4710  0.2329
  195MOL    H4139229   3.492   3.655   6.414  1.0038  0.7197  1.2878
  195MOL    C4239230   3.560   3.517   6.094  0.0970 -0.4720 -0.5448
  195MOL    C4339231   3.511   3.600   5.971 -0.2574  0.2842 -0.2085
  195MOL    C4439232   3.377   3.656   6.008 -0.5592 -0.5178 -0.0138
  195MOL    O4539233   3.279   3.586   6.007 -0.0191 -0.5454  0.3901
  195MOL    N4639234   3.363   3.781   6.042  0.4596  0.2528  0.3093
  195MOL    H4739235   3.473   3.466   6.135 -0.7631  0.5568 -1.0666
  195MOL    H4839236   3.626   3.433   6.070 -0.9073 -2.0690  2.0153
  195MOL    H4939237   3.577   3.686   5.961 -0.5071  0.5624  0.5453
  195MOL    H5039238   3.431   3.855   6.035 -1.6906  2.1084 -2.2912
  195MOL    H5139239   3.266   3.803   6.062  0.1140  0.8115 -1.7738
  195MOL    C5239240   3.497   3.522   5.838  0.1358 -0.2938  0.1141
  195MOL    C5339241   3.524   3.604   5.714  0.0233  0.5559 -0.1331
  195MOL    C5439242   3.475   3.519   5.588 -0.2573  0.3037  0.0022
  195MOL    O5539243   3.499   3.398   5.571 -0.2213  0.0911 -0.6189
  195MOL    N5639244   3.407   3.592   5.496  0.6442  0.3923  0.0217
  195MOL    H5739245   3.403   3.466   5.831 -0.0447 -0.1300  1.1075
  195MOL    H5839246   3.570   3.442   5.840 -1.9950 -2.2689  0.2059
  195MOL    H5939247   3.455   3.688   5.719  2.6231  2.8006 -0.7190
  195MOL    H6039248   3.388   3.543   5.409  0.1981 -0.8467  0.8059
  195MOL    H6139249   3.381   3.688   5.512 -0.2374 -0.0681  1.4053
  195MOL    C6239250   3.676   3.639   5.703 -0.4363 -0.0413  0.4753
  195MOL    C6339251   3.725   3.714   5.581 -0.8355  0.0960 -0.2895
  195MOL    C6439252   3.872   3.687   5.583 -1.5257 -0.2488 -0.1857
  195MOL    O6539253   3.948   3.757   5.650 -0.0727 -0.5957 -0.4120
  195MOL    N6639254   3.911   3.585   5.506  0.6738  0.4015  0.6706
  195MOL    H6739255   3.734   3.549   5.722 -3.6382 -2.1294  0.6584
  195MOL    H6839256   3.709   3.696   5.790 -0.2076 -2.1989  1.8399
  195MOL    H6939257   3.673   3.679   5.491 -1.8236  0.9654 -0.0709
  195MOL    H7039258   3.838   3.532   5.459  0.5081  2.0809 -1.0790
  195MOL    H7139259   4.004   3.549   5.516  0.8358  0.7016  0.2875
  195MOL    C7239260   3.696   3.865   5.591  0.2784 -0.3149 -0.0707
  195MOL    C7339261   3.742   3.950   5.466 -0.1976  0.5654  1.3143
  195MOL    C7439262   3.748   4.102   5.494 -0.3976 -0.6371 -0.9258
  195MOL    O7539263   3.652   4.161   5.537 -0.2437 -0.2556 -0.2105
  195MOL    N7639264   3.861   4.168   5.469 -0.2992 -0.3172 -0.1870
  195MOL    H7739265   3.743   3.901   5.682  1.1049 -1.5183 -0.0085
  195MOL    H7839266   3.593   3.884   5.621  0.1694 -1.5898  0.3989
  195MOL    H7939267   3.842   3.922   5.435 -1.2115 -1.2841 -0.3988
  195MOL    H8039268   3.949   4.135   5.431 -0.0135  0.8584 -0.5713
  195MOL    H8139269   3.852   4.268   5.485  0.2851 -0.2903 -0.0174
  195MOL    C8239270   3.648   3.941   5.339 -0.6531 -0.0511 -0.3943
  195MOL    C8339271   3.726   3.923   5.205  0.0375 -0.1908 -0.1962
  195MOL    C8439272   3.779   3.781   5.196  0.1465  0.8441 -1.0041
  195MOL    O8539273   3.900   3.762   5.207 -0.7249 -0.4255 -0.5365
  195MOL    N8639274   3.688   3.682   5.192  0.6283  0.1529 -0.5290
  195MOL    H8739275   3.573   4.019   5.333  0.1965  1.2507  4.1906
  195MOL    H8839276   3.585   3.853   5.353 -1.0386  0.3484  0.4205
  195MOL    H8939277   3.643   3.921   5.134 -1.9358 -0.6256  2.0637
  195MOL    H9039278   3.589   3.700   5.190  0.4055 -0.5139  2.4463
  195MOL    H9139279   3.718   3.592   5.226  0.1852 -0.6552 -2.2640
  195MOL    C9239280   3.818   4.043   5.167  0.2859  0.6019 -0.4446
  195MOL    C9339281   3.860   4.047   5.017  0.2109 -0.6166 -0.3290
  195MOL    C9439282   4.006   4.011   4.997 -0.4053 -0.2929 -0.1980
  195MOL    O9539283   4.092   4.094   5.026 -0.0099 -0.9005  0.0009
  195MOL    N9639284   4.045   3.892   4.953  0.1415  0.0841 -0.1237
  195MOL    H9739285   3.905   4.036   5.233  0.4155  0.8800 -0.5825
  195MOL    H9839286   3.774   4.139   5.194  0.5091  1.0822 -1.7552
  195MOL    H9939287   3.808   3.962   4.973 -0.0749 -1.7366  2.1054
  195MOL   H10039288   3.974   3.820   4.941 -0.5018  0.1997  2.5452
  195MOL   H10139289   4.141   3.866   4.938 -0.0916 -0.0485 -1.4529
  195MOL   C10239290   3.818   4.177   4.945 -0.5754  0.0405 -0.0607
  195MOL   C10339291   3.831   4.184   4.793 -0.3277 -0.7620 -0.2178
  195MOL   C10439292   3.844   4.332   4.750  0.2496 -0.0752 -0.1331
  195MOL   O10539293   3.742   4.400   4.730  0.5206  0.0853 -0.0105
  195MOL   N10639294   3.966   4.374   4.754 -0.1618 -0.3711  0.0457
  195MOL   H10739295   3.884   4.256   4.982  0.5921 -0.8557 -0.1772
  195MOL   H10839296   3.718   4.213   4.971 -0.5722 -0.4786  0.7185
  195MOL   H10939297   3.926   4.137   4.766  0.3740 -1.3228  2.9943
  195MOL   H11039298   4.048   4.317   4.771 -0.3740 -0.4334  0.8926
  195MOL   H11139299   3.981   4.473   4.750 -1.3317 -0.1947 -0.0081
  195MOL   C11239300   3.728   4.100   4.717 -0.2105  0.2263 -0.0492
  195MOL   C11339301   3.753   4.075   4.564  0.3890  0.2021  0.6495
  195MOL   C11439302   3.631   3.989   4.513 -0.4013 -0.0411 -0.3815
  195MOL   O11539303   3.552   4.024   4.424 -0.5051 -0.0504  0.7178
  195MOL   N11639304   3.627   3.867   4.568  0.0070  0.5350  0.0419
  195MOL   H11739305   3.628   4.144   4.721  0.6091  2.1737 -0.2030
  195MOL   H11839306   3.725   4.010   4.777  1.6736  0.2291  0.0981
  195MOL   H11939307   3.734   4.167   4.508 -0.8599 -0.1092  0.5465
  195MOL   H12039308   3.698   3.856   4.639 -0.5595 -0.1665  0.5013
  195MOL   H12139309   3.556   3.800   4.544  1.0950 -0.8873  0.7445
  195MOL   C12239310   3.886   4.010   4.513  0.8474  0.3351 -0.3473
  195MOL   C12339311   3.981   4.107   4.447 -0.6398 -0.8993  0.4412
  195MOL   C12439312   3.929   4.134   4.308  0.6589 -0.1938  0.9608
  195MOL   O12539313   3.886   4.046   4.232  0.0257  0.0851  0.1427
  195MOL   N12639314   3.951   4.259   4.269  0.2297  0.1594 -0.0427
  195MOL   H12739315   3.871   3.928   4.443 -0.5829  3.0247 -3.2943
  195MOL   H12839316   3.944   3.980   4.601  1.1272  2.3264  0.1754
  195MOL   H12939317   3.980   4.200   4.505  0.2020  0.3473 -1.5078
  195MOL   H13039318   3.936   4.286   4.172 -0.0906 -0.1291 -0.0784
  195MOL   H13139319   3.992   4.316   4.340 -1.4650  0.2680  0.8867
  195MOL   C13239320   4.123   4.058   4.447 -0.8361  0.0718 -0.3019
  195MOL   C13339321   4.208   4.049   4.580  1.2639 -0.0906  0.5126
  195MOL   C13439322   4.225   4.182   4.654  0.2488  0.8297  0.4514
  195MOL   O13539323   4.251   4.284   4.592  0.7521  0.3762 -0.6928
  195MOL   N13639324   4.196   4.184   4.781  0.2306  0.1663  0.0618
  195MOL   H13739325   4.182   4.121   4.381  0.4168 -2.6121 -1.8219
  195MOL   H13839326   4.129   3.965   4.389  0.3038 -1.5708  2.3784
  195MOL   H13939327   4.155   3.982   4.648  1.2804 -1.2322 -0.5739
  195MOL   H14039328   4.188   4.092   4.823  0.2923  0.0214 -0.2328
  195MOL   H14139329   4.209   4.270   4.831 -0.1423  0.4943 -0.4127
  195MOL   C14239330   4.350   3.986   4.546 -0.4314  0.4020  0.8168
  195MOL   C14339331   4.451   3.947   4.660  0.0051  0.7520  0.4739
  195MOL   C14439332   4.389   3.849   4.757 -0.0743 -0.0723  0.0615
  195MOL   O14539333   4.319   3.890   4.850  0.3961  0.0606 -0.4805
  195MOL   N14639334   4.397   3.717   4.731  0.0356 -0.0515 -0.4870
  195MOL   H14739335   4.406   4.037   4.467  0.9950 -0.2086  1.4196
  195MOL   H14839336   4.338   3.888   4.500  0.0327  0.3379  0.8304
  195MOL   H14939337   4.522   3.888   4.602  0.6687  0.8001  1.2240
  195MOL   H15039338   4.482   3.700   4.679  0.5866  0.0202  0.3746
  195MOL   H15139339   4.355   3.640   4.782 -0.3813 -0.3505 -1.2769
  195MOL   C15239340   4.525   4.054   4.745  0.0774  0.1081 -0.3401
  195MOL   C15339341   4.601   4.170   4.665  0.1539  0.6859 -0.2747
  195MOL   C15439342   4.728   4.123   4.594  0.2514 -0.2958  0.2237
  195MOL   O15539343   4.815   4.073   4.665 -0.5687 -0.3305 -0.0953
  195MOL   N15639344   4.739   4.128   4.465  0.4150  0.2773 -0.6233
  195MOL   H15739345   4.603   4.006   4.804  1.5375  2.0034 -0.6967
  195MOL   H15839346   4.457   4.099   4.817  1.6611 -2.7467  3.0755
  195MOL   H15939347   4.532   4.202   4.586  0.0202  0.0439 -0.4189
  195MOL   H16039348   4.679   4.177   4.400 -0.8967 -2.2565 -1.3835
  195MOL   H16139349   4.830   4.094   4.437  0.2973  1.3316 -2.4163
  195MOL   C16239350   4.629   4.283   4.768  0.3580  0.4357 -0.4079
  195MOL   C16339351   4.522   4.390   4.780  0.1378  0.4426 -0.4073
  195MOL   C16439352   4.527   4.483   4.659 -0.0577  0.0672  0.3469
  195MOL   O16539353   4.633   4.536   4.630  0.8858 -0.1917 -0.3816
  195MOL   N16639354   4.419   4.502   4.591  0.5906  0.0162  0.3678
  195MOL   H16739355   4.724   4.326   4.736  1.4004 -0.0436  1.9754
  195MOL   H16839356   4.654   4.241   4.865 -1.1607  1.6452  0.5289
  195MOL   H16939357   4.427   4.337   4.790  0.7813 -0.2037  2.8358
  195MOL   H17039358   4.346   4.433   4.590  1.0367 -0.4628  0.2446
  195MOL   H17139359   4.422   4.572   4.517 -1.6148 -2.1905 -1.8860
  195MOL   C17239360   4.531   4.472   4.908 -0.1408 -0.4999 -0.2579
  195MOL   C17339361   4.434   4.588   4.955 -0.9044 -0.5270 -0.3405
  195MOL   C17439362   4.496   4.719   4.924  0.2531 -0.6240 -0.0663
  195MOL   O17539363   4.456   4.795   4.833  0.1618 -0.2233 -0.3012
  195MOL   N17639364   4.590   4.755   5.010 -0.3575  0.8078  0.1942
  195MOL   H17739365   4.632   4.512   4.917 -0.2631 -0.2578  0.0556
  195MOL   H17839366   4.519   4.386   4.974 -1.2344 -0.3790 -0.2991
  195MOL   H17939367   4.350   4.575   4.887 -0.8478  2.2291 -1.0078
  195MOL   H18039368   4.636   4.843   4.992 -1.7781  1.6852  0.8027
  195MOL   H18139369   4.604   4.695   5.089  1.5160 -0.4373 -1.0379
  195MOL   C18239370   4.382   4.580   5.099  0.1370 -0.2829 -0.4720
  195MOL   C18339371   4.233   4.540   5.123  0.2043 -0.0266  0.6543
  195MOL   C18439372   4.188   4.401   5.066 -0.2552  0.0640  0.4173
  195MOL   O18539373   4.228   4.365   4.958  0.3898 -0.0712  0.7592
  195MOL   N18639374   4.117   4.320   5.145  0.5361  0.2241  0.1598
  195MOL   H18739375   4.414   4.658   5.168  1.7660  1.8760 -3.5715
  195MOL   H18839376   4.426   4.497   5.155 -2.1773 -0.2101  1.6016
  195MOL   H18939377   4.215   4.545   5.231  0.1509 -4.9914  0.9805
  195MOL   H19039378   4.098   4.230   5.104 -2.1384  1.2748 -1.0471
  195MOL   H19139379   4.082   4.356   5.233  0.8425 -0.1180  0.4251
  195MOL   C19239380   4.148   4.646   5.053  0.2332 -0.2959 -0.0615
  195MOL   C19339381   4.183   4.791   5.101  0.0459  1.1335  0.5593
  195MOL   C19439382   4.067   4.885   5.081 -0.0633  0.1032  0.4868
  195MOL   O19539383   4.037   4.929   4.967 -0.1713 -0.3122  0.8682
  195MOL   N19639384   4.008   4.929   5.196 -0.4758  0.5858 -0.0958
  195MOL   H19739385   4.044   4.634   5.085 -0.3678  0.9107 -1.4947
  195MOL   H19839386   4.143   4.634   4.945 -0.0758  0.4546 -0.1381
  195MOL   H19939387   4.215   4.799   5.204  0.0315 -1.8093  0.8514
  195MOL   H20039388   4.065   4.923   5.278 -0.3846  0.8854 -0.1390
  195MOL   H20139389   3.929   4.991   5.189 -1.4771 -0.5375  1.2316
  195MOL   H20239390   4.264   4.830   5.040  1.1297  1.8507  2.4437
  196MOL     C139391   1.812   0.218   2.284  0.2516  0.2105 -0.0973
  196MOL     C239392   1.757   0.357   2.259 -0.4569 -0.3083 -0.6515
  196MOL     C339393   1.828   0.419   2.149  0.0990  0.1282  0.4191
  196MOL     O439394   1.778   0.413   2.038 -0.0200  0.2694 -0.1348
  196MOL     N539395   1.940   0.489   2.178  0.0513 -0.7452 -0.0170
  196MOL     H639396   1.917   0.229   2.310  0.4489  1.8947 -1.4714
  196MOL     H739397   1.750   0.176   2.363 -1.1869  0.5285 -1.0368
  196MOL     H839398   1.656   0.344   2.220 -0.6495 -1.4976  0.2175
  196MOL     H939399   1.979   0.538   2.099 -1.2912 -1.2540 -1.0201
  196MOL    H1039400   1.985   0.498   2.267 -0.9927  2.7117  0.2264
  196MOL    H1139401   1.806   0.154   2.195  2.6263 -0.0800 -0.0838
  196MOL    C1239402   1.741   0.425   2.398 -0.1322  0.3426  0.1862
  196MOL    C1339403   1.661   0.554   2.394  0.0404 -0.3660  0.1670
  196MOL    C1439404   1.651   0.607   2.542 -0.2577  0.5551 -0.0675
  196MOL    O1539405   1.689   0.720   2.569  0.1909  0.2618  0.1771
  196MOL    N1639406   1.588   0.532   2.631  0.2637  0.5476  0.2017
  196MOL    H1739407   1.836   0.450   2.444 -0.9863  1.9305  1.1139
  196MOL    H1839408   1.696   0.349   2.462 -1.3386  0.3235 -0.6588
  196MOL    H1939409   1.727   0.626   2.347  0.0399 -0.5831 -0.1628
  196MOL    H2039410   1.549   0.569   2.716 -3.2674 -2.0218 -0.1896
  196MOL    H2139411   1.564   0.435   2.615 -0.8574  1.0125 -1.0391
  196MOL    C2239412   1.528   0.549   2.318 -0.7827  0.3348  0.3211
  196MOL    C2339413   1.422   0.661   2.338 -0.9067 -0.4084  0.0332
  196MOL    C2439414   1.295   0.630   2.255  0.2803  0.2305 -0.3920
  196MOL    O2539415   1.306   0.536   2.174 -0.0568 -0.0068 -0.3540
  196MOL    N2639416   1.193   0.714   2.266 -1.7229  0.1177 -0.4818
  196MOL    H2739417   1.484   0.452   2.343  0.5755 -0.6366 -0.9809
  196MOL    H2839418   1.566   0.552   2.216  1.2859 -2.5939  0.9233
  196MOL    H2939419   1.379   0.655   2.438  0.2730  0.8416  0.6238
  196MOL    H3039420   1.118   0.695   2.201 -0.0314 -0.4034 -2.3420
  196MOL    H3139421   1.202   0.796   2.324  1.2333 -0.2383 -0.3385
  196MOL    C3239422   1.481   0.807   2.331  0.1881 -1.0710 -0.8320
  196MOL    C3339423   1.487   0.881   2.193 -0.2901 -0.3312 -0.4275
  196MOL    C3439424   1.543   0.805   2.073 -0.1303 -0.4646 -0.3388
  196MOL    O3539425   1.651   0.748   2.082 -0.2937  0.0909 -0.2844
  196MOL    N3639426   1.469   0.796   1.966 -0.2286  0.1691 -0.7221
  196MOL    H3739427   1.582   0.813   2.371 -0.3724 -3.8383  1.1345
  196MOL    H3839428   1.422   0.864   2.403 -0.3954 -1.2140 -1.1882
  196MOL    H3939429   1.390   0.914   2.155 -0.4788 -2.3706 -1.7797
  196MOL    H4039430   1.489   0.728   1.894  3.8107  2.7915 -2.2382
  196MOL    H4139431   1.389   0.854   1.947 -0.6612 -0.5665 -1.1624
  196MOL    C4239432   1.575   1.007   2.210  0.4434  0.0737 -0.1366
  196MOL    C4339433   1.523   1.127   2.131 -0.0585 -0.0671 -0.0315
  196MOL    C4439434   1.556   1.123   1.983  0.9309 -0.1368  0.3483
  196MOL    O4539435   1.672   1.129   1.948 -0.4550 -0.6862 -0.0627
  196MOL    N4639436   1.466   1.126   1.886  0.2573  0.2694 -0.1217
  196MOL    H4739437   1.680   0.997   2.185  0.6523  1.8602 -0.0788
  196MOL    H4839438   1.582   1.031   2.316 -3.2500 -0.5394  0.3091
  196MOL    H4939439   1.415   1.126   2.146 -0.1439  0.5570 -0.5929
  196MOL    H5039440   1.367   1.139   1.897  0.2339 -0.1032  0.1176
  196MOL    H5139441   1.505   1.126   1.793  0.3727  0.0486 -0.0763
  196MOL    C5239442   1.570   1.255   2.205  0.1864  0.3835 -0.4690
  196MOL    C5339443   1.490   1.281   2.338  0.1527 -0.5124  0.5083
  196MOL    C5439444   1.364   1.375   2.314  0.1781  0.6480 -0.8704
  196MOL    O5539445   1.351   1.460   2.227 -0.2915  0.0791 -0.4450
  196MOL    N5639446   1.268   1.359   2.404  0.2844 -0.9185 -0.8063
  196MOL    H5739447   1.544   1.344   2.147  0.6710  2.1827  1.9815
  196MOL    H5839448   1.679   1.242   2.207  0.3965  1.9009 -1.0742
  196MOL    H5939449   1.445   1.185   2.364  2.2594 -0.6846  3.8513
  196MOL    H6039450   1.181   1.406   2.386  0.9638  0.3833 -0.7990
  196MOL    H6139451   1.281   1.305   2.488  0.9213  0.5777  0.0908
  196MOL    C6239452   1.573   1.341   2.450 -0.8036  0.3867  0.2845
  196MOL    C6339453   1.673   1.259   2.533 -0.0676 -0.4792 -0.3051
  196MOL    C6439454   1.631   1.118   2.580  0.5097 -0.0128 -0.1369
  196MOL    O6539455   1.543   1.111   2.659 -0.0132  0.0827  0.0104
  196MOL    N6639456   1.693   1.006   2.548 -0.1436 -0.4852 -0.0743
  196MOL    H6739457   1.508   1.382   2.527  1.2701 -0.7612  2.7158
  196MOL    H6839458   1.632   1.426   2.414 -0.0272  0.6958  2.2381
  196MOL    H6939459   1.753   1.241   2.461  0.1586  0.2722 -0.2407
  196MOL    H7039460   1.766   1.020   2.479 -1.1611 -2.7630 -1.6836
  196MOL    H7139461   1.672   0.911   2.575  3.0221 -1.7404 -1.7151
  196MOL    C7239462   1.735   1.334   2.657 -0.4045 -0.3209 -0.1663
  196MOL    C7339463   1.875   1.278   2.710 -0.2495  0.4047 -0.1482
  196MOL    C7439464   1.896   1.304   2.860 -0.1936 -0.4973  0.3083
  196MOL    O7539465   1.857   1.410   2.908 -0.5331 -0.3677  0.3016
  196MOL    N7639466   1.931   1.199   2.936  0.6824 -0.4415  0.5861
  196MOL    H7739467   1.666   1.326   2.741 -1.0049  0.7657 -0.5445
  196MOL    H7839468   1.735   1.440   2.632  0.6925 -0.0389  1.0139
  196MOL    H7939469   1.871   1.170   2.695  0.0463  0.5401 -1.2236
  196MOL    H8039470   1.925   1.198   3.037  1.3049  0.4291  0.6332
  196MOL    H8139471   1.958   1.111   2.894  0.0108  0.0968 -1.0089
  196MOL    C8239472   1.995   1.318   2.623  0.1114  0.7375 -0.3373
  196MOL    C8339473   2.031   1.475   2.620 -1.0974  0.2794  0.1130
  196MOL    C8439474   1.970   1.537   2.491  0.6114  0.0415  0.0410
  196MOL    O8539475   2.016   1.509   2.381 -0.1454 -0.4822 -0.0305
  196MOL    N8639476   1.867   1.619   2.495 -0.0539  0.2416 -0.0928
  196MOL    H8739477   1.972   1.285   2.522  3.4732  0.6207 -1.1340
  196MOL    H8839478   2.073   1.253   2.662  1.0156  1.6826 -0.5654
  196MOL    H8939479   1.996   1.521   2.712 -2.0199 -0.4671  0.1439
  196MOL    H9039480   1.831   1.657   2.582  0.6132 -2.0662  1.2310
  196MOL    H9139481   1.835   1.656   2.406 -0.9702  0.7510  0.4413
  196MOL    C9239482   2.184   1.490   2.613  0.4780 -0.0649 -1.0869
  196MOL    C9339483   2.259   1.449   2.738 -0.3285  0.2831 -0.2828
  196MOL    C9439484   2.224   1.530   2.861 -0.4696 -0.8892 -0.0183
  196MOL    O9539485   2.196   1.648   2.858 -0.1139 -0.1577 -0.2156
  196MOL    N9639486   2.211   1.467   2.973 -0.0082  0.3791  0.3782
  196MOL    H9739487   2.205   1.594   2.589 -0.4553  0.1662 -0.9252
  196MOL    H9839488   2.219   1.427   2.531  0.1504 -1.7820  0.0593
  196MOL    H9939489   2.227   1.351   2.774 -0.6613  1.1177  1.7305
  196MOL   H10039490   2.214   1.522   3.058 -0.9675  1.8435 -0.5182
  196MOL   H10139491   2.227   1.367   2.970  2.2361  0.7534 -0.8530
  196MOL   C10239492   2.406   1.429   2.720 -0.1299  0.4904 -0.0039
  196MOL   C10339493   2.446   1.310   2.626  0.2607  0.3800  1.1272
  196MOL   C10439494   2.547   1.215   2.684 -0.0630  0.4607  0.3362
  196MOL   O10539495   2.661   1.205   2.638  0.4292  0.2262 -0.3002
  196MOL   N10639496   2.509   1.155   2.799  0.4081 -1.0355  0.3257
  196MOL   H10739497   2.461   1.433   2.814  0.2840 -0.0663 -0.2136
  196MOL   H10839498   2.440   1.521   2.673  1.2203 -1.2945 -2.6809
  196MOL   H10939499   2.359   1.247   2.614  1.2031 -0.7915  0.2915
  196MOL   H11039500   2.415   1.145   2.834 -0.8954 -0.7671 -2.8669
  196MOL   H11139501   2.583   1.117   2.855  1.1559 -1.3978 -0.8729
  196MOL   C11239502   2.491   1.364   2.489  0.8085 -0.7743 -0.6468
  196MOL   C11339503   2.477   1.268   2.364 -0.3079  0.7057 -0.5290
  196MOL   C11439504   2.552   1.334   2.245 -0.2323 -0.3845  0.2222
  196MOL   O11539505   2.575   1.456   2.247 -0.8043  0.2564 -0.4224
  196MOL   N11639506   2.589   1.259   2.147 -0.1088  0.0231  0.2993
  196MOL   H11739507   2.595   1.395   2.490 -0.0037  2.1950 -1.5862
  196MOL   H11839508   2.433   1.456   2.476 -0.1387 -1.4470 -1.3221
  196MOL   H11939509   2.522   1.172   2.388  2.1787  1.5161 -1.7142
  196MOL   H12039510   2.617   1.294   2.057 -1.6669  1.1118  0.2272
  196MOL   H12139511   2.546   1.168   2.142 -0.5035  0.1844  0.7195
  196MOL   C12239512   2.327   1.235   2.322 -0.4036 -1.0784  0.5961
  196MOL   C12339513   2.291   1.086   2.341 -0.3968 -0.5785 -0.0484
  196MOL   C12439514   2.358   0.985   2.246  0.6483 -0.4383  1.3395
  196MOL   O12539515   2.402   0.879   2.301  0.5268 -0.0243  0.3402
  196MOL   N12639516   2.355   1.021   2.121 -0.3964 -0.0481  0.3945
  196MOL   H12739517   2.320   1.258   2.216 -0.3706 -2.6274  0.2349
  196MOL   H12839518   2.251   1.305   2.356 -0.4362 -0.5470 -0.5285
  196MOL   H12939519   2.318   1.065   2.445  2.1296 -1.3536 -0.8452
  196MOL   H13039520   2.385   0.946   2.061  0.4270  0.6852 -0.1260
  196MOL   H13139521   2.293   1.097   2.094  0.8821  0.8964  0.0667
  196MOL   C13239522   2.137   1.077   2.330  0.4872  0.0825 -0.2654
  196MOL   C13339523   2.073   0.942   2.360 -0.4134 -0.0125 -0.1569
  196MOL   C13439524   1.927   0.952   2.307 -0.4121 -0.3554  0.1130
  196MOL   O13539525   1.862   1.052   2.323  0.6437  0.1085  0.1828
  196MOL   N13639526   1.887   0.838   2.249  0.2554 -0.9918 -0.0234
  196MOL   H13739527   2.104   1.118   2.235 -0.3467  0.2363  0.0843
  196MOL   H13839528   2.095   1.145   2.404 -1.3644 -1.0875 -0.2132
  196MOL   H13939529   2.123   0.868   2.298  0.3039 -0.0102  0.4103
  196MOL   H14039530   1.797   0.838   2.203 -0.1269 -1.1146  0.7051
  196MOL   H14139531   1.951   0.763   2.229  2.6440  1.0973 -0.5162
  196MOL   C14239532   2.078   0.885   2.504  0.0412  0.2260  0.0135
  196MOL   C14339533   2.181   0.761   2.524 -0.2072  0.2222 -0.5111
  196MOL   C14439534   2.158   0.643   2.432  0.1923  0.8607 -0.2838
  196MOL   O14539535   2.059   0.567   2.436 -0.6479  0.0755 -0.3970
  196MOL   N14639536   2.252   0.626   2.342  0.0037  0.4215  0.2861
  196MOL   H14739537   1.977   0.853   2.529  0.4869 -1.4157 -0.2123
  196MOL   H14839538   2.105   0.959   2.580  0.3208 -2.8671  3.0800
  196MOL   H14939539   2.279   0.804   2.504  0.0259  0.3348  0.8474
  196MOL   H15039540   2.257   0.550   2.275  3.1021  0.2720  0.6074
  196MOL   H15139541   2.328   0.692   2.345 -0.7580  1.2401  1.9947
  196MOL   C15239542   2.198   0.710   2.669 -0.5445  0.4555 -0.6764
  196MOL   C15339543   2.064   0.682   2.744  0.2722  0.4383  0.0937
  196MOL   C15439544   1.988   0.804   2.800  0.4919  0.3029  0.0389
  196MOL   O15539545   2.050   0.884   2.872  0.4785 -0.6806 -0.3497
  196MOL   N15639546   1.860   0.830   2.766  0.2326 -0.0848  0.1631
  196MOL   H15739547   2.252   0.781   2.732 -3.2611  0.5906  1.5891
  196MOL   H15839548   2.266   0.625   2.668 -0.1006  0.7987  0.0710
  196MOL   H15939549   2.001   0.635   2.668  0.4285  2.6095 -1.4502
  196MOL   H16039550   1.817   0.907   2.814  0.1969  2.2686 -3.4347
  196MOL   H16139551   1.818   0.774   2.693  0.0001  0.8361 -0.4171
  196MOL   C16239552   2.089   0.583   2.865  0.3783  0.1443 -0.0423
  196MOL   C16339553   2.092   0.434   2.829  0.3422  0.0642  0.0590
  196MOL   C16439554   1.959   0.400   2.762 -0.1409 -0.1888  0.3355
  196MOL   O16539555   1.848   0.430   2.805  0.1616  0.0452  0.1038
  196MOL   N16639556   1.966   0.344   2.646  0.2357 -0.3623  0.0566
  196MOL   H16739557   2.009   0.585   2.939 -0.1387 -2.2614 -0.5102
  196MOL   H16839558   2.182   0.614   2.912  1.6508 -1.3463 -1.5136
  196MOL   H16939559   2.177   0.407   2.767 -0.2211 -1.9478  0.1291
  196MOL   H17039560   1.879   0.306   2.612  0.3741 -0.2059 -0.4790
  196MOL   H17139561   2.058   0.330   2.607  1.2261  1.1490  1.7750
  196MOL   C17239562   2.120   0.347   2.953  0.9318 -0.0362 -0.7927
  196MOL   C17339563   2.120   0.193   2.928 -0.0576  0.0662 -0.3529
  196MOL   C17439564   2.136   0.124   3.070 -0.2200 -0.4081  0.0306
  196MOL   O17539565   2.241   0.099   3.121 -0.3648 -0.5742 -0.1280
  196MOL   N17639566   2.026   0.080   3.129  0.1530 -0.1891  0.3815
  196MOL   H17739567   2.043   0.377   3.023  0.1306 -2.3844 -0.6297
  196MOL   H17839568   2.223   0.363   2.985  0.0677 -0.8235  2.5068
  196MOL   H17939569   2.026   0.166   2.880 -0.4758  0.4093  0.2654
  196MOL   H18039570   1.937   0.109   3.092  1.5315 -0.4451 -3.3601
  196MOL   H18139571   2.029   0.024   3.214 -1.3503  0.2698  0.7550
  196MOL   C18239572   2.232   0.143   2.836  0.2209 -0.9003 -0.5351
  196MOL   C18339573   2.217   7.654   2.780  0.4701 -0.3320  0.2750
  196MOL   C18439574   2.360   7.595   2.753 -0.1199  0.3018  0.0428
  196MOL   O18539575   2.394   7.490   2.815  0.2178 -0.4207 -0.5185
  196MOL   N18639576   2.444   0.002   2.669 -0.0817 -0.5666 -0.0123
  196MOL   H18739577   2.325   0.151   2.892  0.7799  0.2794 -1.6010
  196MOL   H18839578   2.230   0.209   2.749  1.8043 -0.9666 -0.6392
  196MOL   H18939579   2.169   7.591   2.854 -0.4459 -1.4601 -1.2530
  196MOL   H19039580   2.536   7.625   2.643 -0.0356  0.2357 -0.9462
  196MOL   H19139581   2.402   0.077   2.615  1.2175 -0.2297 -0.5835
  196MOL   C19239582   2.122   7.653   2.653  0.9184  0.1640 -0.1243
  196MOL   C19339583   2.122   7.513   2.585  0.3931 -0.3395  0.0999
  196MOL   C19439584   2.077   7.398   2.680  0.6141 -0.0004  0.0376
  196MOL   O19539585   2.020   7.420   2.793 -0.6899 -0.7674  0.2185
  196MOL   N19639586   2.081   7.269   2.636 -0.5061 -0.4998  0.1309
  196MOL   H19739587   2.150   0.070   2.578 -2.2119  2.7947  1.2094
  196MOL   H19839588   2.018   0.016   2.679  0.3778 -2.1133 -0.4310
  196MOL   H19939589   2.056   7.517   2.499  0.4505 -0.8012  0.0328
  196MOL   H20039590   2.132   7.247   2.552  0.2054  0.5300  0.2921
  196MOL   H20139591   2.047   7.194   2.695 -1.1312  0.3409  0.8605
  196MOL   H20239592   2.223   7.499   2.546 -0.5391  0.3689 -2.6382
  197MOL     C139593   5.140   1.715   4.319 -0.6303  0.5480 -0.4469
  197MOL     C239594   5.121   1.789   4.454 -0.6621  0.4564  0.2286
  197MOL     C339595   5.202   1.727   4.572 -0.0796  0.3716  0.3375
  197MOL     O439596   5.152   1.628   4.631 -0.5362 -0.2326 -0.0050
  197MOL     N539597   5.310   1.792   4.615  0.0290  0.2398 -0.1205
  197MOL     H639598   5.122   1.607   4.313  0.7711  0.0971  2.2900
  197MOL     H739599   5.104   1.767   4.231 -3.3039  0.0997  0.3373
  197MOL     H839600   5.175   1.882   4.434 -2.5915  1.5144 -0.2250
  197MOL     H939601   5.376   1.827   4.548 -0.5428 -0.3717 -1.0074
  197MOL    H1039602   5.351   1.754   4.699 -0.1048 -0.1734 -0.2400
  197MOL    H1139603   5.247   1.718   4.299 -0.2696 -0.9759  1.0190
  197MOL    C1239604   4.976   1.819   4.483  0.3320 -0.1854 -0.6646
  197MOL    C1339605   4.946   1.913   4.600 -0.3067  0.3460 -0.0557
  197MOL    C1439606   4.797   1.928   4.630  0.4089  0.5726 -0.0254
  197MOL    O1539607   4.761   1.940   4.747  0.0508 -0.1436 -0.3431
  197MOL    N1639608   4.710   1.920   4.531 -0.0985  0.4623 -0.7812
  197MOL    H1739609   4.922   1.725   4.494 -2.0530  1.3337  1.2861
  197MOL    H1839610   4.938   1.857   4.388  1.4244 -0.9174 -1.4077
  197MOL    H1939611   4.994   1.866   4.686  0.2652  1.1995  0.0969
  197MOL    H2039612   4.742   1.911   4.435 -1.4028 -0.5008 -1.1349
  197MOL    H2139613   4.614   1.937   4.555  0.1169 -1.2860  1.4575
  197MOL    C2239614   5.028   2.044   4.618  0.0080 -0.0594 -0.1516
  197MOL    C2339615   4.965   2.169   4.545 -0.4681 -0.4279  0.2268
  197MOL    C2439616   4.956   2.150   4.392  0.2069 -0.5233  0.7621
  197MOL    O2539617   5.054   2.105   4.327 -0.5658 -0.2474 -0.2773
  197MOL    N2639618   4.845   2.193   4.336 -0.0837 -0.2324 -0.3558
  197MOL    H2739619   5.130   2.026   4.585  0.5656  0.4343  1.2556
  197MOL    H2839620   5.048   2.081   4.719 -0.9986 -0.3807  0.1733
  197MOL    H2939621   4.865   2.177   4.587 -0.9157 -1.2168 -0.6702
  197MOL    H3039622   4.773   2.230   4.395  0.3244  0.8374 -0.5234
  197MOL    H3139623   4.823   2.175   4.239  1.8508 -2.7937 -0.3777
  197MOL    C3239624   5.033   2.298   4.587  0.6913 -0.3404  0.1312
  197MOL    C3339625   4.965   2.438   4.578  0.5448  0.4885  0.2017
  197MOL    C3439626   4.817   2.431   4.615  0.0720 -0.5802 -0.1944
  197MOL    O3539627   4.729   2.372   4.547 -0.5383 -0.5244 -0.3250
  197MOL    N3639628   4.786   2.489   4.732  0.1721 -0.1344 -0.2529
  197MOL    H3739629   5.134   2.316   4.552  0.4141  2.1500  0.5565
  197MOL    H3839630   5.042   2.282   4.695  0.6882  0.0461  0.1862
  197MOL    H3939631   5.026   2.496   4.647 -2.3469  2.5823  1.0801
  197MOL    H4039632   4.860   2.525   4.791  0.0173  0.0453 -0.1661
  197MOL    H4139633   4.689   2.502   4.759  0.7405  1.9021  0.9451
  197MOL    C4239634   4.992   2.489   4.425 -0.2256  0.2489  0.3307
  197MOL    C4339635   5.012   2.644   4.409  0.5248 -0.3934  0.0853
  197MOL    C4439636   5.141   2.715   4.472  0.3690  0.1904  1.2248
  197MOL    O4539637   5.158   2.725   4.594  0.7637 -0.2793  0.7183
  197MOL    N4639638   5.230   2.768   4.391 -0.5283 -0.5381 -0.6693
  197MOL    H4739639   4.904   2.465   4.366 -1.1184  1.0063  1.3184
  197MOL    H4839640   5.067   2.434   4.369 -0.0294 -0.9827  1.7664
  197MOL    H4939641   5.018   2.659   4.301 -0.9024  0.9426  0.1752
  197MOL    H5039642   5.228   2.749   4.292 -1.9807 -2.1370 -0.3509
  197MOL    H5139643   5.309   2.810   4.439 -3.7343  1.6642  2.9343
  197MOL    C5239644   4.889   2.730   4.460 -0.2128  0.3666  0.1728
  197MOL    C5339645   4.757   2.708   4.386  0.7921 -0.0795  0.2628
  197MOL    C5439646   4.763   2.762   4.238  0.1286 -0.3784 -0.3335
  197MOL    O5539647   4.762   2.886   4.228  0.6065  0.0389 -0.3468
  197MOL    N5639648   4.768   2.679   4.138 -0.1476 -0.1133  0.5572
  197MOL    H5739649   4.920   2.835   4.463 -0.5951  0.4679  0.6535
  197MOL    H5839650   4.886   2.724   4.568 -0.0244  1.5025  0.2509
  197MOL    H5939651   4.731   2.603   4.375 -0.9598  0.2898  0.5976
  197MOL    H6039652   4.781   2.715   4.045 -0.6193  1.5236  1.0949
  197MOL    H6139653   4.768   2.578   4.143 -0.4363 -0.1184  0.4340
  197MOL    C6239654   4.624   2.754   4.457 -0.7850 -0.5883 -0.3687
  197MOL    C6339655   4.483   2.726   4.392  0.7281  0.0553 -0.2164
  197MOL    C6439656   4.463   2.576   4.356  0.3906  0.8448 -0.1237
  197MOL    O6539657   4.520   2.524   4.258  0.4927  0.0516 -0.0169
  197MOL    N6639658   4.378   2.505   4.426  0.0828  0.6256  0.0767
  197MOL    H6739659   4.632   2.862   4.468  0.3519 -0.6480 -0.5252
  197MOL    H6839660   4.635   2.701   4.552 -0.5271 -2.5049 -1.4399
  197MOL    H6939661   4.410   2.753   4.469 -2.0847 -1.5212 -2.2143
  197MOL    H7039662   4.369   2.408   4.399 -0.3270  0.8141 -0.4931
  197MOL    H7139663   4.317   2.555   4.489 -0.6572  1.5218 -1.3167
  197MOL    C7239664   4.451   2.831   4.279  0.0923  0.3951 -0.2998
  197MOL    C7339665   4.302   2.859   4.263 -0.1542 -0.0216 -0.2550
  197MOL    C7439666   4.229   2.753   4.180 -0.2413 -0.3745  0.6802
  197MOL    O7539667   4.148   2.679   4.233  0.2945 -0.6444  0.2524
  197MOL    N7639668   4.239   2.754   4.045  0.6058 -0.4560 -0.3446
  197MOL    H7739669   4.491   2.790   4.187 -1.7663  1.0172 -1.4033
  197MOL    H7839670   4.502   2.925   4.301 -1.1486  0.4591  2.4990
  197MOL    H7939671   4.253   2.863   4.361 -1.9870  1.0385 -1.2043
  197MOL    H8039672   4.307   2.820   4.010 -1.3032  3.0632  2.2316
  197MOL    H8139673   4.182   2.693   3.988  0.9254 -0.1799 -0.9627
  197MOL    C8239674   4.274   2.995   4.201  0.0367 -0.1478  0.5365
  197MOL    C8339675   4.328   3.129   4.269 -0.0345  0.5896  0.2138
  197MOL    C8439676   4.329   3.135   4.425 -0.6149  0.1251  0.3946
  197MOL    O8539677   4.249   3.080   4.493  0.1567  0.2083 -0.4417
  197MOL    N8639678   4.430   3.211   4.467  0.1756  0.3096  0.1630
  197MOL    H8739679   4.165   2.997   4.202  0.0455  2.0784  0.4078
  197MOL    H8839680   4.295   3.000   4.094 -0.0559 -2.5025  0.3720
  197MOL    H8939681   4.432   3.121   4.238  0.0696  1.5284  0.3197
  197MOL    H9039682   4.455   3.212   4.565  2.6676  1.0574 -0.4383
  197MOL    H9139683   4.504   3.255   4.414 -1.7144  1.9880 -1.1817
  197MOL    C9239684   4.252   3.245   4.195 -0.2666 -0.0605 -0.1598
  197MOL    C9339685   4.321   3.388   4.198 -0.2483  0.0313  0.2495
  197MOL    C9439686   4.471   3.375   4.174 -0.1078  0.4351  0.0448
  197MOL    O9539687   4.557   3.403   4.252  0.0053  0.4044 -0.3707
  197MOL    N9639688   4.512   3.327   4.058  0.3243 -0.1482 -0.2935
  197MOL    H9739689   4.152   3.257   4.237 -1.1017  1.1031 -2.3463
  197MOL    H9839690   4.225   3.219   4.092 -0.3916 -3.4351  0.6684
  197MOL    H9939691   4.296   3.444   4.108  0.6244 -1.8251 -1.1918
  197MOL   H10039692   4.456   3.313   3.975 -0.1214 -2.0754  0.3180
  197MOL   H10139693   4.611   3.312   4.046  0.3440 -1.0185  0.8230
  197MOL   C10239694   4.277   3.484   4.308  0.6473  0.1791 -0.0167
  197MOL   C10339695   4.126   3.531   4.303  0.2442  0.2147 -0.0645
  197MOL   C10439696   4.117   3.630   4.189  0.2842 -0.3261 -0.1978
  197MOL   O10539697   4.190   3.732   4.201 -0.9463  0.5546 -0.7368
  197MOL   N10639698   4.049   3.599   4.077 -0.5216 -0.1522 -0.4600
  197MOL   H10739699   4.351   3.564   4.314 -0.3406  1.1072  0.0517
  197MOL   H10839700   4.297   3.426   4.398 -0.4263  1.2318  0.9199
  197MOL   H10939701   4.070   3.437   4.294 -2.9475  2.2528 -2.5321
  197MOL   H11039702   4.003   3.509   4.075 -1.9850  0.4721  2.7446
  197MOL   H11139703   4.027   3.665   4.004  2.2229  0.0660 -1.1682
  197MOL   C11239704   4.079   3.597   4.435  0.1210  0.2322  0.0257
  197MOL   C11339705   3.938   3.550   4.494 -0.3070 -0.5733  0.9421
  197MOL   C11439706   3.820   3.529   4.393 -0.7957  0.0240  0.3921
  197MOL   O11539707   3.775   3.416   4.370  0.5706 -0.1146 -0.7789
  197MOL   N11639708   3.785   3.640   4.328  0.1032  0.7185  0.6221
  197MOL   H11739709   4.077   3.706   4.438  0.1991  0.2174  0.7368
  197MOL   H11839710   4.154   3.563   4.506 -1.1462  0.7175  1.6450
  197MOL   H11939711   3.953   3.452   4.540 -0.3977 -0.3019  1.5609
  197MOL   H12039712   3.713   3.632   4.257 -0.9526 -0.1030  1.7454
  197MOL   H12139713   3.818   3.733   4.348 -0.7550  0.9201  1.1348
  197MOL   C12239714   3.888   3.644   4.608 -0.5921  0.4347 -0.1827
  197MOL   C12339715   3.892   3.579   4.743  0.2802  0.4596 -0.6625
  197MOL   C12439716   3.798   3.657   4.829 -0.1263  0.7983  0.0388
  197MOL   O12539717   3.797   3.773   4.838 -0.0309  0.0839  0.4203
  197MOL   N12639718   3.720   3.583   4.902 -0.0014  0.1828 -0.1587
  197MOL   H12739719   3.786   3.679   4.592 -0.3588  1.8238  1.1937
  197MOL   H12839720   3.952   3.733   4.614 -0.0062 -0.0173  0.2981
  197MOL   H12939721   3.846   3.480   4.730 -0.8848  0.9399 -0.2982
  197MOL   H13039722   3.708   3.483   4.897 -0.4315  0.1934  0.5944
  197MOL   H13139723   3.677   3.619   4.986  1.0754 -0.5262  0.7243
  197MOL   C13239724   4.037   3.571   4.810 -0.3754 -0.1181 -0.0903
  197MOL   C13339725   4.094   3.435   4.849 -1.0888  0.2386  0.0207
  197MOL   C13439726   4.161   3.356   4.742  0.2618 -0.0739 -0.1236
  197MOL   O13539727   4.252   3.407   4.680  0.1845  0.3380 -0.4294
  197MOL   N13639728   4.132   3.224   4.721 -0.4296  0.5515 -0.2307
  197MOL   H13739729   4.045   3.642   4.892  0.4426 -0.2292 -0.0656
  197MOL   H13839730   4.100   3.620   4.736  0.2423 -2.6684 -1.3030
  197MOL   H13939731   4.177   3.461   4.915 -0.3126  0.0061 -0.8543
  197MOL   H14039732   4.065   3.166   4.767  0.5823 -0.9406 -0.6131
  197MOL   H14139733   4.173   3.183   4.638 -0.5641 -1.2686  0.5973
  197MOL   C14239734   3.988   3.359   4.937 -1.0198 -0.3215 -0.1258
  197MOL   C14339735   4.036   3.250   5.034  0.6114 -0.2862  0.1026
  197MOL   C14439736   3.992   3.105   4.985 -0.2103 -0.3044 -0.2759
  197MOL   O14539737   3.951   3.091   4.870 -0.1494 -0.0090 -0.6732
  197MOL   N14639738   4.017   2.997   5.058  0.2234  0.1425 -0.6916
  197MOL   H14739739   3.907   3.326   4.871 -0.1355 -1.3522 -0.7150
  197MOL   H14839740   3.941   3.437   4.997  1.0856  1.3400 -0.5903
  197MOL   H14939741   4.145   3.243   5.031  0.7834  1.3918  1.3100
  197MOL   H15039742   4.062   2.988   5.148  0.6368 -1.4829 -1.0388
  197MOL   H15139743   3.993   2.916   5.002  1.1284 -0.9617  0.4832
  197MOL   C15239744   3.999   3.273   5.184  0.5031  0.2053  0.5265
  197MOL   C15339745   3.851   3.239   5.229 -0.1603  0.4874 -0.6526
  197MOL   C15439746   3.772   3.366   5.218 -0.6054  0.3020 -0.2794
  197MOL   O15539747   3.789   3.450   5.300 -0.3082  0.6807 -0.0588
  197MOL   N15639748   3.680   3.373   5.125  0.0921  0.6035  0.5612
  197MOL   H15739749   4.024   3.375   5.212  0.7917  0.4667 -0.6766
  197MOL   H15839750   4.066   3.207   5.238  0.2463 -1.7148 -1.4359
  197MOL   H15939751   3.802   3.158   5.175 -1.0339  0.9718 -0.5907
  197MOL   H16039752   3.679   3.303   5.052  0.0298  0.4285  0.7327
  197MOL   H16139753   3.594   3.424   5.135  0.4090  2.0210 -3.0463
  197MOL   C16239754   3.858   3.190   5.374 -0.4124 -0.3362 -0.0894
  197MOL   C16339755   3.725   3.171   5.451 -0.4483  0.5405 -0.4360
  197MOL   C16439756   3.759   3.164   5.601  0.5923  0.5758  0.4953
  197MOL   O16539757   3.858   3.099   5.642 -0.3728  0.1500  0.1820
  197MOL   N16639758   3.687   3.227   5.689  0.1143  0.6733  0.0071
  197MOL   H16739759   3.934   3.253   5.420  0.6710 -0.5231 -1.6008
  197MOL   H16839760   3.906   3.093   5.368 -0.3240 -0.2718 -0.4766
  197MOL   H16939761   3.657   3.256   5.447 -0.8892  0.2498  0.4697
  197MOL   H17039762   3.606   3.280   5.660 -0.7790 -0.7210 -0.0607
  197MOL   H17139763   3.710   3.223   5.787 -0.3488 -0.5030  0.0676
  197MOL   C17239764   3.652   3.034   5.419  0.2861 -0.3042  0.0076
  197MOL   C17339765   3.497   3.057   5.421 -0.5891  0.0174 -0.1050
  197MOL   C17439766   3.427   2.927   5.450 -0.3303 -0.1981  0.1750
  197MOL   O17539767   3.406   2.844   5.366 -0.4576 -0.3833  0.5556
  197MOL   N17639768   3.375   2.910   5.568  0.0277 -0.2407  0.3067
  197MOL   H17739769   3.674   2.952   5.487 -1.6754 -0.6002  0.3023
  197MOL   H17839770   3.677   3.004   5.317 -0.1814 -1.6362  0.2815
  197MOL   H17939771   3.477   3.131   5.498  0.1512 -1.2193  1.3228
  197MOL   H18039772   3.329   2.824   5.594  1.4928 -1.7383 -1.8960
  197MOL   H18139773   3.396   2.983   5.635 -1.1498  1.2717 -0.9525
  197MOL   C18239774   3.461   3.125   5.287  0.6232 -0.2415  0.3606
  197MOL   C18339775   3.367   3.252   5.299  1.0931 -0.2212  0.2004
  197MOL   C18439776   3.242   3.226   5.376  0.4103  0.0470 -0.1244
  197MOL   O18539777   3.152   3.160   5.327  0.1653  0.1861  0.0229
  197MOL   N18639778   3.230   3.262   5.502 -0.4173 -0.6919  0.0051
  197MOL   H18739779   3.429   3.057   5.207  1.4787 -1.1983  0.8294
  197MOL   H18839780   3.552   3.161   5.240  0.8735  0.2118  1.1980
  197MOL   H18939781   3.423   3.330   5.351  2.1446 -1.1827  0.5362
  197MOL   H19039782   3.311   3.307   5.542 -0.6015  1.6444 -2.1375
  197MOL   H19139783   3.161   3.205   5.550 -2.1024  0.5291 -0.8889
  197MOL   C19239784   3.334   3.309   5.149  0.4125  0.7379  0.0358
  197MOL   C19339785   3.232   3.433   5.130 -0.3546  0.3221  0.0287
  197MOL   C19439786   3.316   3.558   5.148 -0.2590  0.0891 -0.5777
  197MOL   O19539787   3.426   3.556   5.210 -0.1808  0.4133 -0.5426
  197MOL   N19639788   3.281   3.673   5.081  0.1796  0.1641 -0.5769
  197MOL   H19739789   3.307   3.218   5.095 -1.4573  1.1558  0.2411
  197MOL   H19839790   3.429   3.319   5.097 -0.8428 -0.5853 -2.5880
  197MOL   H19939791   3.193   3.433   5.029 -0.4007 -0.7586  0.0437
  197MOL   H20039792   3.344   3.751   5.076  0.2507  0.1650  0.2551
  197MOL   H20139793   3.197   3.672   5.025 -0.3861  2.9838  0.1455
  197MOL   H20239794   3.151   3.436   5.203  0.9140 -0.7439  1.5193
  198MOL     C139795   1.086   1.462   5.133 -0.1493  0.2156  0.0293
  198MOL     C239796   1.139   1.606   5.099  0.1725  0.0712 -0.0266
  198MOL     C339797   1.039   1.711   5.140 -0.1100 -0.2275  0.0350
  198MOL     O439798   0.917   1.690   5.127  0.0630  0.0464 -0.3977
  198MOL     N539799   1.080   1.824   5.191 -0.1794 -0.3135 -0.3070
  198MOL     H639800   1.023   1.424   5.053  0.7660  0.0451 -0.6315
  198MOL     H739801   1.168   1.390   5.135  1.4863  2.0229 -0.5594
  198MOL     H839802   1.221   1.617   5.170 -0.0589 -1.1611  0.4393
  198MOL     H939803   1.020   1.906   5.189 -3.0565 -2.2757  1.4758
  198MOL    H1039804   1.176   1.836   5.219 -0.6790 -0.9286  1.7183
  198MOL    H1139805   1.035   1.460   5.229  1.5267 -3.9186  0.9536
  198MOL    C1239806   1.187   1.628   4.962  0.2590  0.2736 -0.5806
  198MOL    C1339807   1.315   1.543   4.930 -0.1524 -0.0073 -0.2565
  198MOL    C1439808   1.432   1.645   4.940  0.1305 -0.2447 -0.1712
  198MOL    O1539809   1.479   1.706   4.846 -0.1841  0.1966  0.6981
  198MOL    N1639810   1.485   1.659   5.058 -0.1847 -0.2988 -0.6045
  198MOL    H1739811   1.199   1.732   4.931  0.3784 -0.2515 -2.3614
  198MOL    H1839812   1.109   1.596   4.892 -0.0184  0.8675 -0.5542
  198MOL    H1939813   1.333   1.475   5.013 -0.0043  1.3743  0.8564
  198MOL    H2039814   1.473   1.585   5.125 -2.7231  0.0233 -0.6551
  198MOL    H2139815   1.558   1.728   5.069 -0.1912 -0.8043  2.9844
  198MOL    C2239816   1.303   1.479   4.794  0.0137  0.0513 -0.0259
  198MOL    C2339817   1.206   1.362   4.779  0.4305  0.1811 -0.4186
  198MOL    C2439818   1.270   1.241   4.846 -0.0689  0.6421  0.2138
  198MOL    O2539819   1.353   1.244   4.939  0.4730  0.2960 -0.5476
  198MOL    N2639820   1.210   1.122   4.822 -0.1685 -0.8585 -0.2531
  198MOL    H2739821   1.400   1.446   4.758 -0.8349 -1.2518 -1.1438
  198MOL    H2839822   1.269   1.558   4.727 -1.6087 -1.8627 -1.5171
  198MOL    H2939823   1.110   1.378   4.829 -0.3220  0.0118 -1.7959
  198MOL    H3039824   1.149   1.107   4.742  1.6267 -4.0647 -1.1103
  198MOL    H3139825   1.236   1.035   4.867 -2.2748 -1.4570 -0.1521
  198MOL    C3239826   1.174   1.336   4.626 -0.7490 -0.3690 -0.0558
  198MOL    C3339827   1.021   1.371   4.595  0.2374  0.5352 -0.5914
  198MOL    C3439828   0.918   1.271   4.648  0.3250  0.0936  0.9237
  198MOL    O3539829   0.932   1.150   4.631  0.3295  0.4113  0.7741
  198MOL    N3639830   0.819   1.327   4.712  1.1489  0.1596 -0.2638
  198MOL    H3739831   1.198   1.235   4.592 -0.6901 -0.2506 -0.3681
  198MOL    H3839832   1.231   1.399   4.558 -1.8213 -0.0449 -0.6675
  198MOL    H3939833   1.000   1.451   4.666  1.1065  0.2464  0.0051
  198MOL    H4039834   0.825   1.426   4.732  0.8874  0.2670 -0.7206
  198MOL    H4139835   0.744   1.277   4.756  0.7114  0.1640 -0.9963
  198MOL    C4239836   0.987   1.414   4.450  0.5598  0.3291 -0.4272
  198MOL    C4339837   0.905   1.541   4.438 -0.7666  0.2480 -0.5034
  198MOL    C4439838   0.855   1.563   4.294 -0.6921 -0.0598  0.9216
  198MOL    O4539839   0.924   1.629   4.213  0.4362 -0.3940  0.7618
  198MOL    N4639840   0.731   1.525   4.271  0.6689 -0.4852 -0.1135
  198MOL    H4739841   0.930   1.331   4.408 -0.1414  0.2230  0.7033
  198MOL    H4839842   1.079   1.427   4.393  1.6069  1.6730  1.5030
  198MOL    H4939843   0.815   1.527   4.499 -0.1114 -0.8505  0.2217
  198MOL    H5039844   0.693   1.543   4.180  0.0405 -0.2549  0.1916
  198MOL    H5139845   0.668   1.493   4.343 -1.1951  0.5457 -1.2406
  198MOL    C5239846   0.968   1.679   4.501  0.7136  0.3457  0.0468
  198MOL    C5339847   0.881   1.774   4.588  0.0177  0.2437 -0.6984
  198MOL    C5439848   0.849   1.708   4.729  0.7288 -0.3789  0.0545
  198MOL    O5539849   0.793   1.604   4.737  0.2287 -0.3174  0.1482
  198MOL    N5639850   0.885   1.768   4.845 -0.0911 -0.8925  0.0962
  198MOL    H5739851   1.012   1.738   4.420  1.5589 -1.0434 -0.5355
  198MOL    H5839852   1.055   1.646   4.558 -0.2037  2.2425  2.6131
  198MOL    H5939853   0.950   1.858   4.602  1.8490 -1.0744 -1.6237
  198MOL    H6039854   0.876   1.728   4.938  1.1313  1.8787  1.4681
  198MOL    H6139855   0.938   1.852   4.829 -1.3120 -0.3006 -0.9727
  198MOL    C6239856   0.752   1.832   4.527  0.3317 -0.4975  0.4042
  198MOL    C6339857   0.751   1.892   4.389  0.0076 -0.0053 -0.1894
  198MOL    C6439858   0.874   1.988   4.374 -0.0068 -0.1489 -0.8570
  198MOL    O6539859   0.972   1.962   4.306 -0.1448  0.0564 -0.4123
  198MOL    N6639860   0.871   2.111   4.428  0.4088 -0.2870 -0.4115
  198MOL    H6739861   0.723   1.912   4.595  0.0717  0.3942 -0.7251
  198MOL    H6839862   0.675   1.755   4.534  1.5735 -1.7921  0.1421
  198MOL    H6939863   0.765   1.813   4.316 -1.3479  0.7786 -1.3353
  198MOL    H7039864   0.954   2.169   4.421 -0.8221  1.9064  2.2513
  198MOL    H7139865   0.782   2.143   4.461  1.6946  1.5136  1.4373
  198MOL    C7239866   0.613   1.947   4.340 -0.9390 -0.1865  0.4214
  198MOL    C7339867   0.622   2.023   4.199 -0.2845 -0.1695 -0.1657
  198MOL    C7439868   0.489   2.081   4.165 -0.1526 -0.2085  0.2113
  198MOL    O7539869   0.434   2.048   4.058  0.0487  0.0619  0.0467
  198MOL    N7639870   0.437   2.178   4.235  0.5598  0.1705 -0.1142
  198MOL    H7739871   0.568   2.013   4.414  1.3937  1.4663  0.4393
  198MOL    H7839872   0.542   1.866   4.327 -0.7448  0.0032 -2.0228
  198MOL    H7939873   0.688   2.107   4.217 -0.8753  0.2858 -0.1071
  198MOL    H8039874   0.340   2.206   4.228  0.5766  0.0254 -0.8847
  198MOL    H8139875   0.490   2.217   4.311 -0.9035  1.0466  0.4842
  198MOL    C8239876   0.683   1.942   4.081 -0.4908 -0.1007 -0.5583
  198MOL    C8339877   0.737   2.037   3.974  0.2403  0.3855 -0.5473
  198MOL    C8439878   0.746   1.960   3.841  0.0526  0.0307 -0.3143
  198MOL    O8539879   0.805   1.853   3.834  0.6749  0.5419 -0.2309
  198MOL    N8639880   0.699   2.012   3.732  0.4698 -0.0020 -0.1934
  198MOL    H8739881   0.624   1.864   4.032 -2.8380  1.3568 -0.0603
  198MOL    H8839882   0.768   1.882   4.114  1.0622  1.9836 -0.6856
  198MOL    H8939883   0.658   2.108   3.950 -0.0361  0.2332 -0.0946
  198MOL    H9039884   0.665   2.107   3.740 -1.9897 -0.9429  0.9525
  198MOL    H9139885   0.674   1.950   3.656 -0.4154 -0.8151  0.7490
  198MOL    C9239886   0.876   2.090   4.009 -0.3845 -0.1057  0.4524
  198MOL    C9339887   0.909   2.210   3.916  0.3541 -0.6810 -0.2756
  198MOL    C9439888   1.059   2.243   3.937 -0.1120 -0.4774 -0.5144
  198MOL    O9539889   1.113   2.285   4.041 -0.3644 -0.3429 -0.3810
  198MOL    N9639890   1.141   2.242   3.828  0.1982  0.0317 -0.0715
  198MOL    H9739891   0.944   2.006   4.000  0.2322  0.0803  2.9728
  198MOL    H9839892   0.879   2.130   4.110  2.5742 -0.0871  0.3756
  198MOL    H9939893   0.905   2.182   3.810  0.6007 -0.6422 -0.2955
  198MOL   H10039894   1.234   2.280   3.838  0.1696 -0.1585  0.9655
  198MOL   H10139895   1.130   2.189   3.742  0.1417 -2.5510  1.4619
  198MOL   C10239896   0.830   2.348   3.939  0.0788  0.4131 -0.4439
  198MOL   C10339897   0.804   2.438   3.813 -0.0136  0.0999 -0.1873
  198MOL   C10439898   0.726   2.352   3.709 -0.3960  0.0933 -0.5491
  198MOL   O10539899   0.627   2.292   3.746  0.2618  0.0522 -0.1051
  198MOL   N10639900   0.755   2.356   3.581 -0.1604 -0.1072  0.1814
  198MOL   H10739901   0.868   2.413   4.018 -0.6973 -0.4746  0.6817
  198MOL   H10839902   0.728   2.323   3.969  1.1409 -0.9195  2.1882
  198MOL   H10939903   0.730   2.516   3.834  0.7494  0.4335  1.3046
  198MOL   H11039904   0.715   2.305   3.504  0.8035  0.5797 -0.8063
  198MOL   H11139905   0.821   2.427   3.551  0.6918 -1.6066 -1.6420
  198MOL   C11239906   0.929   2.524   3.758  0.1197 -0.0667  0.9172
  198MOL   C11339907   0.977   2.634   3.858 -0.5489  0.0685 -0.9991
  198MOL   C11439908   0.871   2.744   3.869 -0.1450 -0.3813  0.0400
  198MOL   O11539909   0.858   2.820   3.771  0.2336 -0.3209 -0.1383
  198MOL   N11639910   0.790   2.748   3.966 -0.2070  0.3929 -0.7432
  198MOL   H11739911   0.907   2.570   3.662 -1.0427 -2.6775 -0.1218
  198MOL   H11839912   1.008   2.453   3.735 -0.2983 -1.0406  2.4200
  198MOL   H11939913   0.992   2.595   3.958  2.0174  1.7812 -0.6806
  198MOL   H12039914   0.715   2.814   3.971  0.7452  1.5774 -1.9596
  198MOL   H12139915   0.812   2.700   4.052  1.8607 -1.0034 -1.9814
  198MOL   C12239916   1.118   2.690   3.817 -0.6562  0.5695 -0.4151
  198MOL   C12339917   1.238   2.607   3.867 -0.3084  0.1006 -0.5290
  198MOL   C12439918   1.257   2.631   4.014 -0.0788  0.2480  0.5547
  198MOL   O12539919   1.340   2.709   4.055 -0.5764 -0.0686  0.2070
  198MOL   N12639920   1.211   2.538   4.098  0.2589 -0.7009  0.7896
  198MOL   H12739921   1.125   2.795   3.847 -2.5294  0.7262 -0.5110
  198MOL   H12839922   1.119   2.698   3.708 -0.0182  2.1232 -0.3166
  198MOL   H12939923   1.200   2.505   3.861  0.3415 -0.1204 -1.0026
  198MOL   H13039924   1.171   2.449   4.070 -1.3770 -0.3040  1.7951
  198MOL   H13139925   1.253   2.525   4.189 -0.9487 -2.1062  1.1621
  198MOL   C13239926   1.360   2.637   3.765  0.6223  0.2316  0.3319
  198MOL   C13339927   1.488   2.540   3.781 -0.5072  0.0643 -0.2339
  198MOL   C13439928   1.450   2.398   3.743  0.7938  0.3149 -0.1523
  198MOL   O13539929   1.403   2.316   3.824  0.2520 -0.4103  0.2204
  198MOL   N13639930   1.468   2.366   3.613  0.9287 -0.1486  0.1201
  198MOL   H13739931   1.399   2.738   3.782  0.5445 -0.2816  3.8432
  198MOL   H13839932   1.333   2.630   3.660 -0.0044 -2.7068  0.6409
  198MOL   H13939933   1.559   2.584   3.711 -0.2210  2.4059  1.4514
  198MOL   H14039934   1.512   2.422   3.541  1.0418 -0.9262 -0.4236
  198MOL   H14139935   1.434   2.274   3.589 -2.2112  0.2315  2.7592
  198MOL   C14239936   1.557   2.547   3.929 -0.5713  0.1383 -0.2328
  198MOL   C14339937   1.691   2.465   3.936  0.2175 -0.2313 -1.0021
  198MOL   C14439938   1.752   2.439   4.076  0.1940 -1.1718 -0.5593
  198MOL   O14539939   1.722   2.515   4.167 -0.5115  0.3497 -0.4418
  198MOL   N14639940   1.838   2.336   4.092 -0.5880  0.2117  0.3736
  198MOL   H14739941   1.485   2.509   4.002 -0.2927 -1.0301 -0.5670
  198MOL   H14839942   1.583   2.646   3.966  0.0338 -1.4770  3.9379
  198MOL   H14939943   1.657   2.362   3.921 -1.7939 -0.3073  3.2710
  198MOL   H15039944   1.872   2.296   4.006 -1.0479  0.7415 -0.0560
  198MOL   H15139945   1.886   2.313   4.178  0.2233 -1.6584 -0.5489
  198MOL   C15239946   1.802   2.512   3.839  0.4072 -0.4373  0.1152
  198MOL   C15339947   1.813   2.433   3.707 -1.1505 -0.2302  0.0623
  198MOL   C15439948   1.835   2.280   3.734 -0.2047 -0.0573  0.7917
  198MOL   O15539949   1.910   2.240   3.826  0.4458  0.0641 -0.2417
  198MOL   N15639950   1.766   2.193   3.673 -0.4053  0.9419  0.4094
  198MOL   H15739951   1.901   2.505   3.886  1.4625  0.3179 -1.9230
  198MOL   H15839952   1.780   2.617   3.823 -0.7349 -0.5809  0.7683
  198MOL   H15939953   1.717   2.434   3.654 -0.4522  0.5135 -1.2135
  198MOL   H16039954   1.780   2.097   3.702 -0.6900  0.2321 -1.6996
  198MOL   H16139955   1.711   2.205   3.589  1.3169  1.5396 -0.6695
  198MOL   C16239956   1.922   2.498   3.619  0.3906  0.2419  0.2673
  198MOL   C16339957   1.926   2.473   3.469 -0.9738 -0.3644  0.0050
  198MOL   C16439958   1.798   2.515   3.394  0.4185  0.3036 -0.6378
  198MOL   O16539959   1.699   2.446   3.399 -0.0700 -0.2767 -0.1789
  198MOL   N16639960   1.803   2.627   3.319  0.5671 -0.0669  0.4061
  198MOL   H16739961   2.020   2.483   3.664  0.9028  0.0657 -0.8668
  198MOL   H16839962   1.911   2.606   3.624 -1.5299  0.0274  0.9790
  198MOL   H16939963   2.012   2.536   3.447 -0.7211  0.0827  2.1492
  198MOL   H17039964   1.714   2.656   3.281 -0.2738 -1.4049  1.3173
  198MOL   H17139965   1.883   2.687   3.302  0.2319  0.8296  1.9258
  198MOL   C17239966   1.969   2.331   3.428  0.0853  0.0095  0.0775
  198MOL   C17339967   2.014   2.314   3.278  1.2289  0.2823 -0.0506
  198MOL   C17439968   1.979   2.165   3.243 -0.3278 -0.2074 -0.0987
  198MOL   O17539969   1.861   2.127   3.261 -0.2134  0.4859 -0.1932
  198MOL   N17639970   2.078   2.081   3.200  0.3015  0.4136  0.3112
  198MOL   H17739971   1.893   2.260   3.461  0.2915 -0.4659 -0.4514
  198MOL   H17839972   2.055   2.294   3.484 -1.8387 -2.1839  1.6527
  198MOL   H17939973   1.955   2.373   3.209  0.6972 -0.0616  0.1118
  198MOL   H18039974   2.170   2.122   3.192  0.5127 -0.3538 -1.4408
  198MOL   H18139975   2.059   1.986   3.169 -0.4557  1.5161 -2.7722
  198MOL   C18239976   2.158   2.366   3.245  0.2667  0.1070 -0.3209
  198MOL   C18339977   2.163   2.416   3.103 -0.0236  0.1552  0.1468
  198MOL   C18439978   2.306   2.419   3.040 -0.5271 -0.9841 -0.3554
  198MOL   O18539979   2.398   2.383   3.099  0.3068  0.2973 -0.5013
  198MOL   N18639980   2.327   2.448   2.910  0.5791 -0.0615 -0.2440
  198MOL   H18739981   2.230   2.286   3.265 -0.1940 -0.1869  0.1700
  198MOL   H18839982   2.195   2.442   3.314 -1.0971 -1.9708  2.7986
  198MOL   H18939983   2.097   2.350   3.047  1.5127 -0.6515 -0.7348
  198MOL   H19039984   2.419   2.433   2.871 -0.0584 -1.5659 -1.2386
  198MOL   H19139985   2.248   2.456   2.847 -2.4908 -1.0176  3.2878
  198MOL   C19239986   2.104   2.560   3.097  0.7576 -0.1470 -0.2369
  198MOL   C19339987   2.196   2.670   3.146 -0.3203 -0.3231 -0.5347
  198MOL   C19439988   2.126   2.780   3.228 -0.9971 -0.5351  0.6579
  198MOL   O19539989   2.006   2.803   3.235  0.1899  0.0897 -0.7295
  198MOL   N19639990   2.204   2.858   3.297  0.9080 -0.4648  0.2634
  198MOL   H19739991   2.003   2.571   3.135  0.3280 -1.1261 -1.0578
  198MOL   H19839992   2.084   2.568   2.990  1.0794  0.0334 -0.2843
  198MOL   H19939993   2.279   2.631   3.206 -0.3814  0.0215 -0.2171
  198MOL   H20039994   2.158   2.909   3.371  2.4003  3.0758 -1.1466
  198MOL   H20139995   2.304   2.849   3.310  0.9980 -1.8621 -1.2197
  198MOL   H20239996   2.233   2.720   3.057  1.3216  0.8855  0.7768
  199MOL     C139997   1.650   1.181   1.190  0.2615 -0.2605  0.4829
  199MOL     C239998   1.493   1.156   1.207 -0.4010  0.1200  0.1095
  199MOL     C339999   1.408   1.261   1.139 -0.5335  0.3844  0.2001
  199MOL     O440000   1.316   1.315   1.201  0.4970 -0.6312  0.4149
  199MOL     N540001   1.437   1.302   1.019 -0.1579 -0.5861  0.3805
  199MOL     H640002   1.711   1.117   1.254 -0.8990 -0.9476  0.9098
  199MOL     H740003   1.690   1.161   1.090 -1.1479  0.8504 -0.3218
  199MOL     H840004   1.479   1.063   1.153 -4.5162  0.1177  1.0257
  199MOL     H940005   1.408   1.390   0.978 -0.3732 -1.1544 -0.7100
  199MOL    H1040006   1.495   1.247   0.957  1.5802  0.1330  1.3216
  199MOL    H1140007   1.685   1.282   1.213 -0.2598  0.1708 -0.5718
  199MOL    C1240008   1.452   1.128   1.351  0.0332  0.7066  0.4954
  199MOL    C1340009   1.488   1.217   1.463 -1.0647 -0.4977 -0.0106
  199MOL    C1440010   1.598   1.173   1.558  0.0635 -0.5516  0.1794
  199MOL    O1540011   1.589   1.066   1.616 -0.1814  0.1529  0.2563
  199MOL    N1640012   1.702   1.253   1.579 -0.7885 -0.8076 -0.2184
  199MOL    H1740013   1.502   1.035   1.377  1.4516  0.7467 -1.9366
  199MOL    H1840014   1.348   1.097   1.361  0.4103 -0.3401  1.2730
  199MOL    H1940015   1.521   1.304   1.405  2.5150 -1.9675 -0.3210
  199MOL    H2040016   1.770   1.244   1.653 -0.9190  1.0958  0.1781
  199MOL    H2140017   1.690   1.343   1.534 -0.2306 -0.0301  1.1329
  199MOL    C2240018   1.361   1.283   1.532  0.5710 -0.1098  0.1586
  199MOL    C2340019   1.366   1.432   1.563 -0.8036 -0.3737  0.2826
  199MOL    C2440020   1.451   1.462   1.685  0.7518  0.6628 -0.1667
  199MOL    O2540021   1.414   1.429   1.798 -0.1426 -0.1731 -0.0780
  199MOL    N2640022   1.570   1.510   1.666  0.4802 -0.7371 -0.3675
  199MOL    H2740023   1.340   1.228   1.623 -0.5030  0.2848  0.1575
  199MOL    H2840024   1.275   1.272   1.466  0.7187 -1.6730  0.1953
  199MOL    H2940025   1.421   1.485   1.485  0.1218  0.4994  1.5086
  199MOL    H3040026   1.604   1.519   1.571 -0.5915 -1.3764 -0.8185
  199MOL    H3140027   1.633   1.514   1.745 -0.8994 -0.1818  0.7295
  199MOL    C3240028   1.219   1.496   1.576 -0.2421  0.1382 -0.5335
  199MOL    C3340029   1.217   1.641   1.631  0.6109  0.0957  0.3960
  199MOL    C3440030   1.120   1.650   1.755 -0.1566  0.2599  0.2572
  199MOL    O3540031   1.001   1.681   1.746 -0.1182  0.5200 -0.3088
  199MOL    N3640032   1.170   1.622   1.873 -0.1138 -0.1041  0.6588
  199MOL    H3740033   1.162   1.432   1.644  0.3676  1.9007  1.6865
  199MOL    H3840034   1.172   1.494   1.477  1.2397  0.2471 -1.2600
  199MOL    H3940035   1.308   1.680   1.676  0.5064  0.9680 -0.1425
  199MOL    H4040036   1.263   1.584   1.882 -1.1089 -2.7659  0.1499
  199MOL    H4140037   1.113   1.633   1.956 -0.9768  3.2118 -0.2894
  199MOL    C4240038   1.172   1.754   1.525 -0.9554 -0.0312  0.3516
  199MOL    C4340039   1.297   1.815   1.452  0.9190  0.0268  0.1057
  199MOL    C4440040   1.380   1.905   1.546  0.0865  0.3648  0.3479
  199MOL    O4540041   1.469   1.849   1.614  0.7990  0.2058 -0.2295
  199MOL    N4640042   1.362   2.038   1.554 -1.1403 -0.1736  0.5694
  199MOL    H4740043   1.107   1.829   1.570 -1.5598  0.2204 -0.9293
  199MOL    H4840044   1.108   1.711   1.449  2.3630 -0.6908 -2.1865
  199MOL    H4940045   1.359   1.728   1.430 -0.2747 -1.3315  1.9786
  199MOL    H5040046   1.294   2.080   1.493 -0.3652  1.1879  0.6223
  199MOL    H5140047   1.432   2.097   1.595 -2.1933  2.3109 -1.0937
  199MOL    C5240048   1.258   1.884   1.318  0.5384  0.1898 -0.2893
  199MOL    C5340049   1.184   1.808   1.205  0.1248 -0.1120  0.0595
  199MOL    C5440050   1.266   1.681   1.193  0.6515  0.0149 -1.1339
  199MOL    O5540051   1.384   1.702   1.173 -0.2928  0.4893 -0.0439
  199MOL    N5640052   1.210   1.561   1.208 -0.0547 -0.2224  0.1907
  199MOL    H5740053   1.344   1.932   1.271  0.5820  1.4670  1.0701
  199MOL    H5840054   1.186   1.962   1.342 -0.1708 -0.7366  0.6269
  199MOL    H5940055   1.081   1.790   1.236  0.3436 -0.2247  0.7451
  199MOL    H6040056   1.112   1.552   1.234 -0.5674  0.2431 -1.4693
  199MOL    H6140057   1.263   1.475   1.207 -1.5779 -1.1935 -1.9148
  199MOL    C6240058   1.172   1.888   1.065  0.1411 -0.0036  0.5921
  199MOL    C6340059   1.037   1.892   0.990  0.0052  0.1729 -0.0156
  199MOL    C6440060   0.961   2.014   1.034 -0.2528 -0.2622  0.8606
  199MOL    O6540061   0.894   2.022   1.141  0.0661  0.1339 -0.0411
  199MOL    N6640062   0.984   2.124   0.966 -0.6593 -0.4936  1.2844
  199MOL    H6740063   1.248   1.836   1.006  0.1085 -0.2677  0.7795
  199MOL    H6840064   1.211   1.990   1.070  0.8668 -0.2533  0.1100
  199MOL    H6940065   1.071   1.890   0.886  0.9276  0.2793  0.2815
  199MOL    H7040066   1.041   2.129   0.883 -0.4227 -2.2333  1.3243
  199MOL    H7140067   0.955   2.215   1.000  0.5611  0.0773  0.8406
  199MOL    C7240068   0.954   1.759   1.007  0.3080 -0.5527 -0.1315
  199MOL    C7340069   0.879   1.716   0.875 -0.3027  0.3981 -0.5609
  199MOL    C7440070   0.750   1.790   0.849 -0.2891 -0.8361  0.3132
  199MOL    O7540071   0.677   1.834   0.937  0.1971 -0.0706 -0.9615
  199MOL    N7640072   0.715   1.805   0.718 -0.1308 -0.0914 -0.6596
  199MOL    H7740073   0.880   1.775   1.086 -1.0688 -1.2174 -1.2792
  199MOL    H7840074   1.022   1.679   1.040 -0.1466 -0.7334  0.3721
  199MOL    H7940075   0.938   1.746   0.789  0.1413 -0.1708 -0.4541
  199MOL    H8040076   0.643   1.872   0.694  0.4692  1.7699  2.5183
  199MOL    H8140077   0.782   1.779   0.646 -0.8440  1.8508 -2.1001
  199MOL    C8240078   0.869   1.562   0.864 -0.6364 -0.4436 -0.7823
  199MOL    C8340079   0.945   1.495   0.751  0.0669 -0.6309  0.1402
  199MOL    C8440080   0.909   1.346   0.732  0.0298 -0.3405  0.6207
  199MOL    O8540081   0.989   1.251   0.751 -0.0586 -0.0115 -0.3210
  199MOL    N8640082   0.785   1.317   0.708 -0.4814  0.2227 -0.6415
  199MOL    H8740083   0.764   1.533   0.866 -0.2905 -1.8132 -2.0303
  199MOL    H8840084   0.921   1.526   0.953  0.8661  3.1667 -0.1128
  199MOL    H8940085   0.921   1.545   0.657 -0.6505 -0.8792  0.1920
  199MOL    H9040086   0.769   1.218   0.697 -0.5413  0.0738  0.7946
  199MOL    H9140087   0.713   1.385   0.725  0.8481  1.2517  1.0508
  199MOL    C9240088   1.099   1.510   0.773 -0.3534  0.0538 -0.0231
  199MOL    C9340089   1.178   1.506   0.641  0.0838 -0.1903 -0.0639
  199MOL    C9440090   1.319   1.447   0.634 -0.1158  0.0642 -0.5112
  199MOL    O9540091   1.383   1.438   0.737 -0.0103 -0.1335  0.0437
  199MOL    N9640092   1.356   1.388   0.524 -0.4248 -0.4537 -0.1207
  199MOL    H9740093   1.134   1.433   0.842  0.2523 -1.2697 -1.7405
  199MOL    H9840094   1.126   1.603   0.822  1.3692 -0.1898 -0.4691
  199MOL    H9940095   1.126   1.434   0.577  1.2746 -1.8802  0.8439
  199MOL   H10040096   1.282   1.382   0.455 -0.3752  0.3335 -0.2499
  199MOL   H10140097   1.442   1.335   0.518 -0.2417 -0.0309 -1.5202
  199MOL   C10240098   1.164   1.645   0.567  0.1968  0.0855 -0.1717
  199MOL   C10340099   1.286   1.746   0.551  0.3266 -0.0135  0.4826
  199MOL   C10440100   1.324   1.807   0.691 -0.2002  0.2277  0.2075
  199MOL   O10540101   1.251   1.888   0.745 -0.0296  0.1117 -0.5475
  199MOL   N10640102   1.441   1.780   0.737  0.1847 -0.0346  0.3008
  199MOL   H10740103   1.068   1.692   0.590 -0.3650 -1.7789  1.4324
  199MOL   H10840104   1.144   1.610   0.466  0.9424  1.2466 -0.7385
  199MOL   H10940105   1.371   1.709   0.494 -1.5782  0.8249 -3.0403
  199MOL   H11040106   1.467   1.835   0.818 -0.8472 -0.2341  0.7788
  199MOL   H11140107   1.497   1.715   0.685 -0.6300 -0.1403 -0.4678
  199MOL   C11240108   1.227   1.860   0.461 -0.4644  0.2834 -0.5942
  199MOL   C11340109   1.344   1.940   0.390 -0.0160 -0.0880  0.9994
  199MOL   C11440110   1.321   2.093   0.401  0.3048 -0.3492 -0.0391
  199MOL   O11540111   1.237   2.144   0.327 -0.1317 -0.3361 -0.1238
  199MOL   N11640112   1.397   2.174   0.473 -0.3345 -0.5565  0.0322
  199MOL   H11740113   1.172   1.932   0.522 -0.2221  2.1126 -2.4736
  199MOL   H11840114   1.158   1.817   0.389 -0.4163  2.4776 -2.0209
  199MOL   H11940115   1.435   1.926   0.449 -1.0068  1.1201  2.8792
  199MOL   H12040116   1.476   2.123   0.510  0.6343  1.6480  1.0713
  199MOL   H12140117   1.393   2.273   0.454 -0.2728 -0.5438  0.0858
  199MOL   C12240118   1.374   1.880   0.247 -0.2375 -0.4006 -0.2609
  199MOL   C12340119   1.529   1.868   0.222  0.3335  0.5415 -1.1651
  199MOL   C12440120   1.606   2.009   0.230 -0.2606 -0.2032  0.4487
  199MOL   O12540121   1.601   2.087   0.132  0.2551 -0.1018 -0.1825
  199MOL   N12640122   1.682   2.043   0.332 -0.3539 -0.4789  0.2063
  199MOL   H12740123   1.340   1.946   0.168  1.0130 -0.5831 -0.9575
  199MOL   H12840124   1.330   1.780   0.238 -0.1055 -0.3664 -1.3083
  199MOL   H12940125   1.563   1.802   0.301 -2.6287 -0.8724 -0.9912
  199MOL   H13040126   1.680   1.987   0.417  1.0278 -0.4969  0.2430
  199MOL   H13140127   1.764   2.102   0.325  0.2698 -1.5358 -1.8331
  199MOL   C13240128   1.564   1.808   0.088 -0.0700  0.2832  0.1325
  199MOL   C13340129   1.557   1.650   0.081  0.0090 -0.0187 -0.2942
  199MOL   C13440130   1.652   1.585   0.192  0.0562 -1.3474  0.0343
  199MOL   O13540131   1.604   1.517   0.284  0.8324  0.3789 -0.5705
  199MOL   N13640132   1.781   1.600   0.178  0.2783 -0.1979 -0.1005
  199MOL   H13740133   1.664   1.828   0.049  0.5544 -0.0575  1.5141
  199MOL   H13840134   1.495   1.858   0.021  0.3333  0.9715  0.2284
  199MOL   H13940135   1.460   1.623   0.124  0.3414 -1.8470 -0.6358
  199MOL   H14040136   1.812   1.637   0.089 -0.4943  1.8995  0.4570
  199MOL   H14140137   1.853   1.571   0.242  1.9400  0.5904 -1.5518
  199MOL   C14240138   1.573   1.594   7.602  0.4193 -0.1163  0.5546
  199MOL   C14340139   1.562   1.437   7.591 -0.4399 -0.7298  0.0690
  199MOL   C14440140   1.631   1.395   7.457 -0.1931 -0.3477 -0.7584
  199MOL   O14540141   1.576   1.406   7.350 -0.4470  0.3664  0.0460
  199MOL   N14640142   1.749   1.332   7.461  0.4281 -0.1072 -0.2808
  199MOL   H14740143   1.670   1.628   7.566  0.3506 -1.0349 -0.5265
  199MOL   H14840144   1.495   1.632   7.536  1.3360 -0.0785 -0.5198
  199MOL   H14940145   1.621   1.394   0.016 -1.2445 -1.0350  0.4869
  199MOL   H15040146   1.788   1.292   7.377 -0.5637 -2.3403  0.2675
  199MOL   H15140147   1.805   1.319   7.545  2.9751  0.0982 -1.8789
  199MOL   C15240148   1.418   1.391   7.618  0.6726  0.2802 -0.6854
  199MOL   C15340149   1.376   1.250   0.002  0.3438  0.3414  0.2687
  199MOL   C15440150   1.437   1.202   0.132 -0.6849  0.0498 -0.7256
  199MOL   O15540151   1.552   1.149   0.138  0.1894 -0.0301  0.7355
  199MOL   N15640152   1.380   1.223   0.248  0.3879 -0.0394  0.0209
  199MOL   H15740153   1.364   1.399   7.523 -1.1089 -1.3738  0.1439
  199MOL   H15840154   1.379   1.453   0.042  2.0594 -0.7803  0.8208
  199MOL   H15940155   1.268   1.254   0.014  0.1838 -2.5278  0.1754
  199MOL   H16040156   1.431   1.197   0.331  0.2216 -1.1097 -0.1983
  199MOL   H16140157   1.284   1.253   0.245  0.8144  1.7779  2.9601
  199MOL   C16240158   1.405   1.147   7.540  0.1541 -0.3741  0.6351
  199MOL   C16340159   1.329   1.015   7.554  0.6159  0.0373  0.2025
  199MOL   C16440160   1.422   0.905   7.610  0.0637 -0.5854  0.0869
  199MOL   O16540161   1.542   0.890   7.574 -0.1117  0.0828 -0.3231
  199MOL   N16640162   1.372   0.836   0.051  0.1445  0.5214 -0.4678
  199MOL   H16740163   1.511   1.123   7.537  0.6868  1.9382 -0.0400
  199MOL   H16840164   1.385   1.195   7.444  1.7494  0.1662  0.5514
  199MOL   H16940165   1.243   1.027   7.620 -0.0972 -1.3728 -0.4475
  199MOL   H17040166   1.271   0.844   0.058  0.1589  0.1524  0.1487
  199MOL   H17140167   1.424   0.760   0.092 -2.7195 -1.3022 -0.1112
  199MOL   C17240168   1.276   0.964   7.423 -0.1833  0.4808  0.2329
  199MOL   C17340169   1.161   1.038   7.355 -0.1974  0.0690 -0.0856
  199MOL   C17440170   1.035   1.055   7.445 -0.0628  0.3524  0.0135
  199MOL   O17540171   0.969   0.955   7.480 -0.4060  0.0983 -0.2443
  199MOL   N17640172   0.990   1.176   7.467 -0.4631  0.4603 -0.7314
  199MOL   H17740173   1.257   0.857   7.420 -2.8908  0.9726 -2.2946
  199MOL   H17840174   1.358   0.969   7.351 -0.8634  1.6093 -0.4795
  199MOL   H17940175   1.190   1.136   7.319 -0.7181  0.6445  1.0358
  199MOL   H18040176   0.899   1.188   7.508 -0.5079  1.7442 -1.1778
  199MOL   H18140177   1.052   1.255   7.458 -0.4745  0.2888 -2.4749
  199MOL   C18240178   1.119   0.964   7.221 -0.5340  0.2191 -0.3932
  199MOL   C18340179   1.221   0.974   7.103  0.6564 -0.9568 -0.3938
  199MOL   C18440180   1.208   1.110   7.037 -0.3922  0.0852 -0.1377
  199MOL   O18540181   1.105   1.155   6.990  0.7104  0.1966 -0.1283
  199MOL   N18640182   1.320   1.180   7.031 -0.4611  0.5880 -0.5161
  199MOL   H18740183   1.024   0.998   7.179 -1.3796  0.5002  1.6969
  199MOL   H18840184   1.099   0.861   7.251  0.8901  0.0505 -0.0226
  199MOL   H18940185   1.325   0.954   7.127  0.4866 -0.1584  1.0957
  199MOL   H19040186   1.399   1.124   7.058 -1.2854 -0.1307  0.4584
  199MOL   H19140187   1.329   1.276   7.001  0.0425  1.3390  1.9951
  199MOL   C19240188   1.187   0.864   7.001 -0.3638 -0.0660 -0.3974
  199MOL   C19340189   1.205   0.717   7.045  0.6906 -0.6477  0.3218
  199MOL   C19440190   1.349   0.687   7.072 -0.6572 -0.2905 -0.2800
  199MOL   O19540191   1.432   0.688   6.977 -0.0357 -0.1535  0.3454
  199MOL   N19640192   1.386   0.655   7.196 -0.3562 -0.4921  0.0530
  199MOL   H19740193   1.257   0.880   6.919  1.4119 -2.3073  0.6255
  199MOL   H19840194   1.090   0.879   6.953  0.9152 -0.7678 -3.3474
  199MOL   H19940195   1.136   0.702   7.129  0.7766  1.9434  0.8849
  199MOL   H20040196   1.321   0.657   7.273  0.5458  2.5674  0.7987
  199MOL   H20140197   1.484   0.630   7.206  0.9624  2.8650 -3.2398
  199MOL   H20240198   1.170   0.648   6.968 -0.8552 -1.4240  1.6609
  200MOL     C140199   2.527   3.639   5.006  0.3168  0.3991 -0.2367
  200MOL     C240200   2.533   3.595   5.153 -0.1646  0.0486 -0.2799
  200MOL     C340201   2.389   3.599   5.211 -0.0296 -0.2899 -0.2454
  200MOL     O440202   2.354   3.681   5.293  0.1108  0.5658  0.0498
  200MOL     N540203   2.301   3.515   5.164 -0.4909 -0.0788  0.1087
  200MOL     H640204   2.438   3.592   4.964  1.0888 -1.9233  0.6523
  200MOL     H740205   2.520   3.747   4.992  0.2017  0.4686  0.3351
  200MOL     H840206   2.561   3.489   5.150  1.1044  0.3253  1.3268
  200MOL     H940207   2.333   3.457   5.088  0.4918  0.1456  0.3504
  200MOL    H1040208   2.201   3.513   5.180  0.1295  1.1260  4.8711
  200MOL    H1140209   2.615   3.592   4.963  0.8069 -0.6867  1.8892
  200MOL    C1240210   2.635   3.684   5.227  0.0913  0.1472  0.3823
  200MOL    C1340211   2.708   3.601   5.333 -0.4633 -0.8704 -0.4589
  200MOL    C1440212   2.623   3.571   5.461 -0.1330 -0.2318 -0.1968
  200MOL    O1540213   2.575   3.462   5.473 -0.0931 -0.6189 -0.7341
  200MOL    N1640214   2.598   3.663   5.551 -0.6150 -0.0953 -0.3173
  200MOL    H1740215   2.586   3.777   5.257  1.6098  1.3668 -0.8557
  200MOL    H1840216   2.704   3.717   5.149 -0.9859 -2.0432 -1.5993
  200MOL    H1940217   2.736   3.506   5.288 -0.3271 -0.6978 -0.7432
  200MOL    H2040218   2.612   3.760   5.525 -2.0765  0.2081 -0.0422
  200MOL    H2140219   2.539   3.639   5.630 -2.7287  1.5429 -1.3467
  200MOL    C2240220   2.854   3.649   5.366 -0.4835 -0.0736  0.4310
  200MOL    C2340221   2.889   3.778   5.430  0.3853  0.1963 -0.7160
  200MOL    C2440222   2.842   3.902   5.352  0.5110 -0.0479  0.1506
  200MOL    O2540223   2.878   3.918   5.240 -0.3027 -0.2350 -0.3040
  200MOL    N2640224   2.765   3.988   5.414 -0.5062 -0.2370 -0.1640
  200MOL    H2740225   2.895   3.647   5.266 -0.6903 -0.6870  0.3598
  200MOL    H2840226   2.902   3.568   5.421  2.6005  0.8821 -0.7706
  200MOL    H2940227   2.842   3.795   5.527  0.1260  3.2321 -1.3197
  200MOL    H3040228   2.736   3.968   5.509  0.9173  0.6512  0.4714
  200MOL    H3140229   2.751   4.079   5.371 -1.0170  0.8070  2.1056
  200MOL    C3240230   3.049   3.794   5.440  0.4158 -0.3299  0.3018
  200MOL    C3340231   3.091   3.877   5.560  0.2890  0.1799  0.7629
  200MOL    C3440232   3.238   3.917   5.550  0.0303  0.6329  0.0958
  200MOL    O3540233   3.322   3.840   5.523 -0.2856 -0.2212 -0.3896
  200MOL    N3640234   3.274   4.043   5.571 -1.0283 -0.0925  0.2985
  200MOL    H3740235   3.102   3.837   5.355  1.2869 -1.3417  0.3229
  200MOL    H3840236   3.095   3.696   5.452  0.0663 -0.6063 -0.5785
  200MOL    H3940237   3.034   3.969   5.544  0.3139 -0.2154 -1.9295
  200MOL    H4040238   3.368   4.079   5.557 -0.8553  0.1160  1.9158
  200MOL    H4140239   3.204   4.113   5.588 -2.0290 -1.0835  0.2736
  200MOL    C4240240   3.066   3.810   5.692  0.0461 -0.4021 -0.7764
  200MOL    C4340241   2.958   3.878   5.782 -0.0589 -0.3827  0.2201
  200MOL    C4440242   3.017   3.984   5.878 -0.1672 -0.2657  0.2630
  200MOL    O4540243   2.958   4.020   5.977 -0.4318 -0.4670  0.2224
  200MOL    N4640244   3.143   4.016   5.863  0.0045 -0.6062 -0.8192
  200MOL    H4740245   3.163   3.804   5.742  1.4666  3.6843 -2.8232
  200MOL    H4840246   3.051   3.702   5.687  0.2204 -0.6081  2.1409
  200MOL    H4940247   2.893   3.940   5.721  0.5217  1.3561  1.3448
  200MOL    H5040248   3.167   4.082   5.935 -0.7049  0.5894 -1.6706
  200MOL    H5140249   3.199   3.969   5.793 -0.1392 -1.2107 -0.5325
  200MOL    C5240250   2.860   3.783   5.856 -0.0233  0.2298 -0.2063
  200MOL    C5340251   2.923   3.701   5.978  0.5238 -0.1288  0.5408
  200MOL    C5440252   2.921   3.553   5.949 -0.0594 -0.3911 -0.5710
  200MOL    O5540253   2.813   3.488   5.944  0.1725  0.1582 -0.3309
  200MOL    N5640254   3.032   3.484   5.924 -0.0534 -0.1489  1.0359
  200MOL    H5740255   2.823   3.718   5.777 -1.8954  2.5516 -1.3037
  200MOL    H5840256   2.774   3.844   5.885  2.1021  4.0470 -1.4587
  200MOL    H5940257   3.024   3.738   5.996  0.0226  0.9164  1.3069
  200MOL    H6040258   3.019   3.387   5.901  0.2762  0.5905 -2.5274
  200MOL    H6140259   3.120   3.531   5.937  0.0690 -0.6902  2.2931
  200MOL    C6240260   2.845   3.732   6.105  0.6166 -0.1530 -0.3761
  200MOL    C6340261   2.899   3.681   6.243  0.4904 -0.3908  0.2387
  200MOL    C6440262   2.792   3.705   6.352  0.9643  0.2622  0.2284
  200MOL    O6540263   2.772   3.820   6.403  0.1901  0.2346  0.3626
  200MOL    N6640264   2.709   3.609   6.389  0.1884 -0.4546 -0.0475
  200MOL    H6740265   2.748   3.685   6.090  0.5104  0.1184 -0.5418
  200MOL    H6840266   2.820   3.838   6.116 -1.1912 -0.6342  0.2675
  200MOL    H6940267   2.903   3.573   6.234  0.1956 -0.2673 -1.5800
  200MOL    H7040268   2.630   3.622   6.451  0.8711 -0.8539  0.9027
  200MOL    H7140269   2.697   3.525   6.334  0.6110  0.4720 -1.5668
  200MOL    C7240270   3.035   3.737   6.283 -0.4889 -0.5003 -0.5706
  200MOL    C7340271   3.091   3.676   6.406 -0.3108  0.3708 -0.1814
  200MOL    C7440272   3.222   3.748   6.441  0.4322  0.3291  0.2258
  200MOL    O7540273   3.306   3.779   6.360 -0.1392 -0.2976  0.2720
  200MOL    N7640274   3.248   3.776   6.568 -0.0914  0.2088  0.0586
  200MOL    H7740275   3.024   3.845   6.296  2.1055 -0.2278 -0.2536
  200MOL    H7840276   3.106   3.713   6.204 -1.0622 -0.1928 -1.1770
  200MOL    H7940277   3.025   3.696   6.490 -2.5460  0.6710 -1.9764
  200MOL    H8040278   3.333   3.815   6.607 -2.0490  1.9506  2.7684
  200MOL    H8140279   3.188   3.732   6.636  1.9896 -3.3063 -0.2605
  200MOL    C8240280   3.100   3.521   6.399 -0.0333  0.5275 -0.3840
  200MOL    C8340281   2.998   3.437   6.485  1.1929  0.1392 -0.3977
  200MOL    C8440282   3.014   3.454   6.637 -0.1134 -0.6255 -0.2437
  200MOL    O8540283   3.124   3.460   6.695  0.4558 -0.0725  0.0457
  200MOL    N8640284   2.908   3.456   6.717  0.2011  0.3216  0.6344
  200MOL    H8740285   3.196   3.492   6.440  0.9982  2.3743 -1.4257
  200MOL    H8840286   3.105   3.485   6.296 -0.2838  1.9369 -0.9057
  200MOL    H8940287   2.901   3.483   6.463  0.7491  0.1119  1.3836
  200MOL    H9040288   2.909   3.459   6.818  0.4341 -1.1838  0.6879
  200MOL    H9140289   2.816   3.470   6.677  1.0070  0.7029 -1.1192
  200MOL    C9240290   3.005   3.286   6.447 -0.0491  0.1072  0.6451
  200MOL    C9340291   2.899   3.248   6.341  0.2655  0.4158  1.1832
  200MOL    C9440292   2.757   3.245   6.412 -0.7029  0.0846 -0.4236
  200MOL    O9540293   2.678   3.334   6.382  0.1514  0.2065 -0.7027
  200MOL    N9640294   2.726   3.139   6.484 -0.2021  0.3372 -0.6677
  200MOL    H9740295   2.995   3.216   6.530 -0.3481 -0.3684  0.2079
  200MOL    H9840296   3.103   3.266   6.404 -0.2192 -0.5863  0.5770
  200MOL    H9940297   2.886   3.344   6.291 -3.6595 -0.9729 -0.6983
  200MOL   H10040298   2.636   3.124   6.527  0.9869 -2.0241  1.2034
  200MOL   H10140299   2.789   3.060   6.495 -1.2529 -0.2587  1.2867
  200MOL   C10240300   2.913   3.139   6.229 -0.6586 -1.1061  0.6026
  200MOL   C10340301   2.973   3.009   6.281  0.2332  0.6995 -0.0157
  200MOL   C10440302   3.128   3.022   6.285  0.3673  0.3235 -0.2707
  200MOL   O10540303   3.189   3.085   6.198  0.2635 -0.2880  0.0025
  200MOL   N10640304   3.193   2.978   6.391  0.8075 -0.1461 -0.3102
  200MOL   H10740305   2.967   3.173   6.141 -1.8636 -1.9656 -0.5037
  200MOL   H10840306   2.815   3.121   6.185 -0.9473  1.2515  0.2110
  200MOL   H10940307   2.932   2.999   6.382  1.0470  2.9588  0.5597
  200MOL   H11040308   3.292   2.988   6.405  0.3178  2.1882  1.8598
  200MOL   H11140309   3.133   2.941   6.464 -1.1180 -0.2093 -1.8751
  200MOL   C11240310   2.926   2.887   6.203 -0.4459  0.6844  0.1941
  200MOL   C11340311   2.967   2.742   6.266  0.2840 -0.5671 -0.1174
  200MOL   C11440312   2.984   2.634   6.156 -0.2462  0.0540  0.5443
  200MOL   O11540313   2.882   2.584   6.103  0.1325 -0.2710 -0.3307
  200MOL   N11640314   3.102   2.598   6.121 -0.1972 -0.6286 -0.5931
  200MOL   H11740315   2.974   2.891   6.105  0.0457  0.9646  0.4437
  200MOL   H11840316   2.822   2.901   6.172 -0.3050  2.7601  0.5642
  200MOL   H11940317   3.062   2.760   6.318  0.8702  0.4141 -1.4983
  200MOL   H12040318   3.115   2.528   6.049  1.3608  0.8393 -1.7853
  200MOL   H12140319   3.188   2.621   6.169 -1.6392  1.9656  0.8797
  200MOL   C12240320   2.858   2.692   6.360 -0.7178  0.0385  0.3334
  200MOL   C12340321   2.900   2.638   6.497  1.0623 -0.6927 -0.5107
  200MOL   C12440322   2.953   2.748   6.585  0.4346  0.2650 -0.3956
  200MOL   O12540323   2.888   2.852   6.590 -0.5732  0.3665  0.0722
  200MOL   N12640324   3.075   2.742   6.643  0.0321 -0.3053 -0.5345
  200MOL   H12740325   2.799   2.613   6.314  1.8544 -1.1748 -0.9797
  200MOL   H12840326   2.792   2.779   6.367 -0.4342  0.1341  2.0342
  200MOL   H12940327   2.812   2.601   6.550  0.8158  1.5066  0.6433
  200MOL   H13040328   3.114   2.820   6.694 -2.3473 -0.0132  0.9626
  200MOL   H13140329   3.136   2.664   6.623 -0.4859 -1.6548  2.8248
  200MOL   C13240330   3.000   2.514   6.493  0.4316  0.0851 -0.2367
  200MOL   C13340331   2.954   2.378   6.428  0.0859 -0.2980 -0.5480
  200MOL   C13440332   2.814   2.338   6.468 -0.7750  0.7293 -0.2778
  200MOL   O13540333   2.777   2.315   6.582  0.0122 -0.2905  0.1826
  200MOL   N13640334   2.732   2.316   6.363  0.1665 -0.0067  0.1585
  200MOL   H13740335   3.040   2.493   6.592  1.0636  0.7013 -0.3606
  200MOL   H13840336   3.086   2.542   6.433 -0.6492  2.2445 -0.8198
  200MOL   H13940337   2.951   2.391   6.320  1.6379  3.0537 -0.2407
  200MOL   H14040338   2.765   2.331   6.269  3.7696  0.1006  1.3874
  200MOL   H14140339   2.641   2.283   6.392  0.0293  0.5314  0.3381
  200MOL   C14240340   3.056   2.260   6.442  0.0790  0.7394  0.6639
  200MOL   C14340341   3.021   2.133   6.363 -0.0954  0.5973  0.4889
  200MOL   C14440342   3.076   2.016   6.441 -0.2615  0.7195  0.3140
  200MOL   O14540343   3.182   1.964   6.407 -0.4671  0.3554 -0.1476
  200MOL   N14640344   2.997   1.956   6.527 -0.1030 -0.5689  0.3378
  200MOL   H14740345   3.070   2.232   6.547  1.0222 -2.7302 -0.3296
  200MOL   H14840346   3.153   2.297   6.407 -0.3372  2.1184  0.9197
  200MOL   H14940347   2.912   2.122   6.362  0.0193 -0.6005  1.0083
  200MOL   H15040348   3.035   1.872   6.567  1.4595 -0.7732 -1.5330
  200MOL   H15140349   2.897   1.966   6.535 -0.1658  1.8525 -2.5151
  200MOL   C15240350   3.083   2.153   6.219  0.1873  0.2022  0.0322
  200MOL   C15340351   3.009   2.078   6.101  0.1634 -0.3498  0.4273
  200MOL   C15440352   2.867   2.139   6.094 -0.1072 -0.1927 -0.2275
  200MOL   O15540353   2.760   2.078   6.111  0.1244  0.4187  0.4103
  200MOL   N15640354   2.857   2.266   6.050  0.3002 -0.3041  0.1241
  200MOL   H15740355   3.186   2.119   6.217  0.2356  0.3308  0.2393
  200MOL   H15840356   3.083   2.259   6.192 -0.3970 -0.2257 -1.6710
  200MOL   H15940357   3.050   2.112   6.006 -1.9585  0.3122 -0.2738
  200MOL   H16040358   2.766   2.298   6.023  0.3045  0.0249  0.5007
  200MOL   H16140359   2.943   2.314   6.025 -1.0532  0.9161 -2.3191
  200MOL   C16240360   3.008   1.922   6.118  0.3962 -0.0499 -0.1843
  200MOL   C16340361   3.036   1.840   5.991 -0.4155 -0.7291  0.3238
  200MOL   C16440362   2.929   1.865   5.883 -0.0783  0.6470 -0.0548
  200MOL   O16540363   2.958   1.889   5.765 -0.3708 -0.1198  0.0463
  200MOL   N16640364   2.802   1.862   5.918  0.1405 -0.4563 -0.5669
  200MOL   H16740365   2.908   1.892   6.149  0.4517  0.6653  0.7082
  200MOL   H16840366   3.068   1.890   6.203  1.2888  0.1656 -0.7207
  200MOL   H16940367   3.135   1.875   5.960 -0.9744 -1.8667 -2.8888
  200MOL   H17040368   2.793   1.865   6.019 -2.4318  1.5884 -0.8303
  200MOL   H17140369   2.731   1.900   5.858 -0.6820  0.2552  0.8330
  200MOL   C17240370   3.048   1.688   6.028 -0.0287 -0.1276 -0.8016
  200MOL   C17340371   3.173   1.624   5.968 -0.4567  0.0206  0.1433
  200MOL   C17440372   3.171   1.631   5.814 -0.5131 -0.0017 -1.1904
  200MOL   O17540373   3.098   1.552   5.750  0.1856 -0.2663 -0.0457
  200MOL   N17640374   3.239   1.729   5.752 -0.0559  0.1473 -0.5737
  200MOL   H17740375   2.964   1.634   5.985  0.6870 -1.0900 -1.0310
  200MOL   H17840376   3.041   1.666   6.134  2.2583 -0.9761 -0.7932
  200MOL   H17940377   3.254   1.685   6.007 -0.5457  1.5232 -1.9138
  200MOL   H18040378   3.225   1.752   5.654  1.8448  1.2938 -0.6194
  200MOL   H18140379   3.289   1.792   5.813 -0.5099  0.2504 -0.3093
  200MOL   C18240380   3.198   1.479   6.023  0.0779 -0.5144 -0.1818
  200MOL   C18340381   3.338   1.403   6.001 -0.0638 -0.2392 -0.9199
  200MOL   C18440382   3.325   1.252   6.011  0.2174 -0.3172  0.4518
  200MOL   O18540383   3.273   1.195   6.110 -0.0794  0.0460 -0.2340
  200MOL   N18640384   3.372   1.183   5.907 -0.6818  0.2935 -0.1971
  200MOL   H18740385   3.124   1.410   5.983  1.0838 -2.8616  1.8752
  200MOL   H18840386   3.176   1.487   6.129 -1.6427 -0.8562 -0.4968
  200MOL   H18940387   3.379   1.437   5.905 -0.9479  1.2258 -0.7971
  200MOL   H19040388   3.361   1.084   5.890 -1.1147  0.2671  0.2213
  200MOL   H19140389   3.422   1.236   5.837 -0.8657  2.3425  1.2048
  200MOL   C19240390   3.443   1.445   6.100  0.1924  0.6437 -0.0803
  200MOL   C19340391   3.591   1.403   6.058 -0.0619  0.6229 -0.5260
  200MOL   C19440392   3.685   1.330   6.164  0.8255 -0.0834 -0.5054
  200MOL   O19540393   3.760   1.395   6.229  0.6274 -0.1717  0.4063
  200MOL   N19640394   3.681   1.201   6.168  0.6329  0.1489 -0.0744
  200MOL   H19740395   3.437   1.388   6.192 -2.5306  1.9371  0.5981
  200MOL   H19840396   3.439   1.550   6.129  0.0952  0.4044  0.7615
  200MOL   H19940397   3.600   1.331   5.976  0.6486 -0.5002  0.5281
  200MOL   H20040398   3.725   1.149   6.243  0.0995 -2.1588 -1.3234
  200MOL   H20140399   3.631   1.134   6.111  0.0636  1.3700 -1.0381
  200MOL   H20240400   3.649   1.493   6.037 -0.0702  0.8523  0.4553
  201MOL     C140401   2.183   4.063   4.136 -0.3070  0.0236 -0.3708
  201MOL     C240402   2.069   4.143   4.201  0.0807  0.6640  0.7105
  201MOL     C340403   2.110   4.223   4.317 -0.9591  0.4438 -0.7132
  201MOL     O440404   2.157   4.169   4.419  0.1054  0.0782  0.2619
  201MOL     N540405   2.083   4.354   4.315  0.2818  0.0159  0.2152
  201MOL     H640406   2.171   4.050   4.029  0.5381 -2.3822 -0.2035
  201MOL     H740407   2.273   4.124   4.151 -0.0050 -0.2827 -0.9169
  201MOL     H840408   2.045   4.213   4.120  2.5248 -0.2284 -0.8540
  201MOL     H940409   2.109   4.412   4.393  0.0424 -0.3826  0.5975
  201MOL    H1040410   2.042   4.400   4.235  1.7541  3.6679  1.4571
  201MOL    H1140411   2.201   3.969   4.188  1.6744 -0.0014 -1.0346
  201MOL    C1240412   1.939   4.055   4.227  0.6853  0.3687 -0.1584
  201MOL    C1340413   1.798   4.126   4.183 -0.3294  0.3555  0.1602
  201MOL    C1440414   1.762   4.252   4.255 -0.0704  0.5902 -0.3753
  201MOL    O1540415   1.813   4.275   4.367 -0.0827 -0.1774 -0.0953
  201MOL    N1640416   1.676   4.331   4.195  0.4479  0.1260 -0.7125
  201MOL    H1740417   1.929   4.033   4.334 -0.0403  0.3953 -0.2228
  201MOL    H1840418   1.944   3.957   4.181 -4.2974 -0.7799  1.5064
  201MOL    H1940419   1.818   4.162   4.082 -0.1719  0.3602  0.1923
  201MOL    H2040420   1.649   4.419   4.236  0.8581  0.5260 -1.3055
  201MOL    H2140421   1.643   4.292   4.108  0.7013 -1.6746 -0.0304
  201MOL    C2240422   1.682   4.030   4.182 -0.6585 -0.5614  0.1044
  201MOL    C2340423   1.640   3.969   4.045 -0.2235 -0.1945  0.0030
  201MOL    C2440424   1.602   4.089   3.953  0.0723  0.4033 -0.0811
  201MOL    O2540425   1.518   4.170   3.985 -0.1935  0.3382 -0.1720
  201MOL    N2640426   1.672   4.113   3.841  0.5935  0.0157  0.1850
  201MOL    H2740427   1.601   4.081   4.234  1.3461  0.5695  2.2444
  201MOL    H2840428   1.712   3.955   4.255  1.4282 -0.6508 -0.8197
  201MOL    H2940429   1.729   3.920   4.007 -0.8677 -0.1360 -1.5972
  201MOL    H3040430   1.742   4.046   3.810  2.1294  0.1655  3.1179
  201MOL    H3140431   1.636   4.176   3.771 -0.6815 -0.8207  0.0631
  201MOL    C3240432   1.516   3.873   4.045 -0.4185  0.3001  0.0968
  201MOL    C3340433   1.507   3.782   3.931  0.4144  0.8647  0.6362
  201MOL    C3440434   1.418   3.826   3.811 -0.1905  0.5395  0.4761
  201MOL    O3540435   1.466   3.879   3.709  0.1142  0.3138 -0.3169
  201MOL    N3640436   1.291   3.839   3.837 -0.1171 -0.2591  0.3233
  201MOL    H3740437   1.423   3.930   4.047 -0.1290  0.7656  0.4221
  201MOL    H3840438   1.542   3.817   4.135  2.9665  2.6181  0.6547
  201MOL    H3940439   1.604   3.775   3.881  0.2818  0.4636  0.4367
  201MOL    H4040440   1.231   3.897   3.781  0.3129  0.0172  0.1476
  201MOL    H4140441   1.255   3.801   3.923  0.3790 -0.8957  0.2529
  201MOL    C4240442   1.473   3.642   3.983 -0.5796  0.0410 -0.4460
  201MOL    C4340443   1.585   3.559   4.073  0.2702  0.2128 -0.1759
  201MOL    C4440444   1.712   3.550   3.991  0.2426  0.5282 -0.4068
  201MOL    O4540445   1.711   3.523   3.874  0.4236  0.4419  0.2047
  201MOL    N4640446   1.826   3.586   4.050 -0.0165 -0.7467 -0.1150
  201MOL    H4740447   1.448   3.582   3.895  2.1792 -2.4850  0.4029
  201MOL    H4840448   1.380   3.657   4.037 -0.0054  1.6085  0.1446
  201MOL    H4940449   1.619   3.622   4.156 -0.5166  1.5175 -0.8323
  201MOL    H5040450   1.901   3.611   3.986 -0.1429  0.8932  0.3373
  201MOL    H5140451   1.831   3.610   4.148  0.4733 -1.1324 -0.0459
  201MOL    C5240452   1.551   3.418   4.130 -0.3540 -0.5605  0.1976
  201MOL    C5340453   1.406   3.415   4.188 -0.2887 -0.9633 -0.2835
  201MOL    C5440454   1.401   3.476   4.330 -0.3774 -0.1284 -0.4158
  201MOL    O5540455   1.501   3.499   4.395  0.2228  0.4723  0.5553
  201MOL    N5640456   1.284   3.519   4.378  0.2111 -0.7832  0.0018
  201MOL    H5740457   1.619   3.381   4.206  0.9471  0.6991 -0.3179
  201MOL    H5840458   1.555   3.347   4.046 -1.4656  0.7365 -0.9849
  201MOL    H5940459   1.343   3.467   4.117 -0.4803 -2.1096 -0.9643
  201MOL    H6040460   1.204   3.499   4.320  1.3271  0.7673 -2.1520
  201MOL    H6140461   1.280   3.585   4.455 -1.8424 -0.7305 -0.1179
  201MOL    C6240462   1.363   3.272   4.178  0.0197 -0.2371 -0.2341
  201MOL    C6340463   1.220   3.228   4.208 -0.5003 -0.5294  0.2306
  201MOL    C6440464   1.107   3.322   4.158 -0.1680 -0.8644  0.0599
  201MOL    O6540465   1.104   3.439   4.187 -0.5345 -0.2259 -0.2697
  201MOL    N6640466   1.005   3.260   4.103 -0.3485 -0.1975  0.3951
  201MOL    H6740467   1.434   3.211   4.233 -0.8546 -0.3954  0.7220
  201MOL    H6840468   1.378   3.231   4.078 -1.9661 -1.8645  0.1063
  201MOL    H6940469   1.198   3.143   4.143  0.7485  0.2423 -1.2450
  201MOL    H7040470   1.010   3.161   4.084 -1.2212  0.0093 -1.0311
  201MOL    H7140471   0.934   3.319   4.061 -0.2134  0.2540  0.7900
  201MOL    C7240472   1.191   3.191   4.358 -0.0301 -0.3486 -0.1557
  201MOL    C7340473   1.262   3.063   4.427 -0.0549 -0.5069  0.5827
  201MOL    C7440474   1.237   2.940   4.334 -0.7537  0.2631  0.7852
  201MOL    O7540475   1.126   2.884   4.324 -0.3385 -0.3651  0.4119
  201MOL    N7640476   1.345   2.890   4.278  0.3209 -0.6732 -0.0757
  201MOL    H7740477   1.083   3.190   4.368 -0.0230 -1.8999 -0.0340
  201MOL    H7840478   1.224   3.278   4.413  3.0166  0.6004 -3.2618
  201MOL    H7940479   1.370   3.076   4.421 -0.2765  1.4198  0.5193
  201MOL    H8040480   1.435   2.932   4.297  0.0342 -0.2329  0.3353
  201MOL    H8140481   1.334   2.824   4.202 -1.1837  0.1900 -0.6348
  201MOL    C8240482   1.208   3.043   4.571 -0.9655 -0.4825  0.1268
  201MOL    C8340483   1.305   2.986   4.673  0.2914 -0.6952 -0.1345
  201MOL    C8440484   1.376   3.092   4.752 -0.4387 -0.4750 -0.8897
  201MOL    O8540485   1.465   3.163   4.705  0.0980 -0.0613  0.0350
  201MOL    N8640486   1.329   3.117   4.875  0.6282  0.2245 -0.5376
  201MOL    H8740487   1.122   2.977   4.560 -1.1468 -0.1065 -0.7306
  201MOL    H8840488   1.163   3.136   4.603 -2.6871 -0.5995 -1.8753
  201MOL    H8940489   1.238   2.938   4.745  0.7466 -1.5819 -0.2946
  201MOL    H9040490   1.237   3.082   4.900  1.2076 -1.1385 -0.2683
  201MOL    H9140491   1.389   3.159   4.944  0.7777 -2.2428  0.9061
  201MOL    C9240492   1.390   2.865   4.626 -0.6022 -0.6055  0.1509
  201MOL    C9340493   1.359   2.737   4.687  0.1375  0.2191 -0.1460
  201MOL    C9440494   1.216   2.687   4.659 -0.3984 -0.4616 -0.4673
  201MOL    O9540495   1.119   2.687   4.732  0.2434 -0.6515 -0.2624
  201MOL    N9640496   1.205   2.637   4.540 -0.4181  0.7048 -0.7898
  201MOL    H9740497   1.494   2.897   4.630 -0.5796 -0.4042 -1.7048
  201MOL    H9840498   1.386   2.850   4.518 -0.8733 -1.8962  0.3267
  201MOL    H9940499   1.428   2.669   4.637  1.2727  1.0480  0.2651
  201MOL   H10040500   1.114   2.601   4.515  0.0350 -0.4488 -0.7972
  201MOL   H10140501   1.286   2.629   4.480 -0.2062 -1.7014 -0.2137
  201MOL   C10240502   1.403   2.718   4.834  0.5422 -0.4886  0.6147
  201MOL   C10340503   1.557   2.715   4.851 -0.4878  0.2847  0.1171
  201MOL   C10440504   1.622   2.578   4.828 -0.2519  0.4708  0.2410
  201MOL   O10540505   1.591   2.479   4.890  0.6036  0.6034  0.0285
  201MOL   N10640506   1.697   2.569   4.722  0.0794 -0.3177  0.2263
  201MOL   H10740507   1.355   2.632   4.881 -1.1515 -0.6009 -1.2561
  201MOL   H10840508   1.363   2.804   4.887  0.5838 -0.1799  0.1491
  201MOL   H10940509   1.591   2.785   4.775 -2.8522  0.4603 -0.8310
  201MOL   H11040510   1.743   2.481   4.703 -0.1968 -0.4568  0.2007
  201MOL   H11140511   1.720   2.653   4.671  1.2643 -1.8257 -1.8072
  201MOL   C11240512   1.605   2.773   4.987  0.4203 -0.6083 -0.2372
  201MOL   C11340513   1.753   2.798   4.988  0.1219 -0.1789  0.2100
  201MOL   C11440514   1.813   2.775   5.127  0.0296  0.2984 -0.5236
  201MOL   O11540515   1.770   2.830   5.223  0.7811 -0.1912 -0.3587
  201MOL   N11640516   1.910   2.682   5.137  0.5246 -0.8812  0.2944
  201MOL   H11740517   1.584   2.695   5.059 -0.2943 -0.3805 -0.1915
  201MOL   H11840518   1.551   2.859   5.028  0.4631  0.0867 -1.5939
  201MOL   H11940519   1.799   2.736   4.911  1.3002 -0.7674  1.3550
  201MOL   H12040520   1.948   2.640   5.054 -1.8274 -1.3825 -0.5891
  201MOL   H12140521   1.952   2.659   5.226  1.1755 -0.6356  0.0521
  201MOL   C12240522   1.774   2.942   4.951 -0.3844 -0.5729 -0.1831
  201MOL   C12340523   1.891   2.964   4.842 -1.0898  0.5945  0.5324
  201MOL   C12440524   2.028   2.898   4.886 -0.0599  0.6845  0.0005
  201MOL   O12540525   2.081   2.936   4.990  0.8807 -0.2492  0.6549
  201MOL   N12640526   2.074   2.799   4.815  0.2070  0.9651  0.0610
  201MOL   H12740527   1.783   3.015   5.032 -0.0666  0.3002 -0.9923
  201MOL   H12840528   1.693   2.988   4.894 -0.7568  0.8976  1.4906
  201MOL   H12940529   1.861   2.916   4.749 -1.5922 -0.4296  1.2066
  201MOL   H13040530   2.016   2.792   4.732 -0.9627 -0.0285  0.9491
  201MOL   H13140531   2.169   2.764   4.815  0.3003  1.1713 -1.2979
  201MOL   C13240532   1.925   3.118   4.822 -0.6886  0.7373 -0.0976
  201MOL   C13340533   1.818   3.216   4.781  0.4757 -0.6554 -0.2245
  201MOL   C13440534   1.798   3.218   4.630 -0.4192  0.3523 -0.5739
  201MOL   O13540535   1.893   3.251   4.559 -0.0496  0.3527 -0.1939
  201MOL   N13640536   1.689   3.169   4.574 -0.2558  0.3778 -0.2132
  201MOL   H13740537   1.993   3.115   4.737 -0.6418  1.1174 -0.0708
  201MOL   H13840538   1.992   3.154   4.900  1.8334 -1.8489 -0.9755
  201MOL   H13940539   1.726   3.190   4.833  0.1417 -0.4031 -0.6788
  201MOL   H14040540   1.682   3.160   4.473 -1.2640  0.0385 -0.1195
  201MOL   H14140541   1.609   3.164   4.635 -0.4663 -0.3625 -0.5488
  201MOL   C14240542   1.836   3.360   4.852  0.4818 -0.5141  0.5564
  201MOL   C14340543   1.709   3.450   4.888 -0.2466  0.1685  0.5592
  201MOL   C14440544   1.658   3.517   4.754  0.5580 -0.0280 -0.0635
  201MOL   O14540545   1.703   3.622   4.709 -0.3479 -0.2258  0.4926
  201MOL   N14640546   1.569   3.448   4.686 -0.6073 -0.4739  0.1295
  201MOL   H14740547   1.901   3.429   4.798 -2.7346 -0.0822 -3.0263
  201MOL   H14840548   1.890   3.343   4.945 -2.5603 -0.3839  2.3997
  201MOL   H14940549   1.630   3.392   4.934 -0.9710 -0.7375 -1.7433
  201MOL   H15040550   1.518   3.363   4.704 -2.4817  0.2844 -1.4498
  201MOL   H15140551   1.560   3.486   4.592 -1.0583 -0.1760  0.2952
  201MOL   C15240552   1.742   3.567   4.988 -0.0789 -0.6492  0.2282
  201MOL   C15340553   1.781   3.539   5.136  0.0634  0.5753 -0.0871
  201MOL   C15440554   1.926   3.531   5.161  0.0891  1.0862  0.1273
  201MOL   O15540555   2.009   3.526   5.065  0.4217 -0.0491  0.1458
  201MOL   N15640556   1.966   3.533   5.283 -1.0280  0.3721 -0.0215
  201MOL   H15740557   1.647   3.621   4.980 -0.7258 -1.8946 -0.7791
  201MOL   H15840558   1.818   3.622   4.933  0.3639 -2.0073 -0.5405
  201MOL   H15940559   1.757   3.628   5.194 -0.1557  0.0509  0.6307
  201MOL   H16040560   2.064   3.538   5.304 -1.3465 -0.2458  1.6634
  201MOL   H16140561   1.901   3.541   5.360 -0.7761 -2.0486  0.4785
  201MOL   C16240562   1.697   3.416   5.194 -0.3573 -0.1706  0.3804
  201MOL   C16340563   1.551   3.467   5.205 -0.0988 -0.0090  0.0689
  201MOL   C16440564   1.518   3.528   5.345 -0.2149 -0.2016  0.0450
  201MOL   O16540565   1.590   3.507   5.447 -0.3441 -0.0298 -0.2445
  201MOL   N16640566   1.409   3.607   5.342  0.0500  0.1186  0.2150
  201MOL   H16740567   1.736   3.378   5.289 -2.0012 -0.3614  0.9838
  201MOL   H16840568   1.708   3.335   5.123 -0.5382 -0.4520  0.6745
  201MOL   H16940569   1.521   3.540   5.130 -1.2345  0.4315  0.9356
  201MOL   H17040570   1.377   3.623   5.248  1.3419 -1.8665 -0.6073
  201MOL   H17140571   1.390   3.664   5.423 -3.2110  0.0831 -0.4773
  201MOL   C17240572   1.451   3.362   5.164 -0.1176 -0.4611  0.6323
  201MOL   C17340573   1.451   3.238   5.250 -0.0112  0.0796 -0.3996
  201MOL   C17440574   1.542   3.132   5.191 -0.0025  0.0757 -0.2828
  201MOL   O17540575   1.538   3.112   5.070 -0.1290 -0.2092  0.3206
  201MOL   N17640576   1.609   3.058   5.284 -0.3866 -0.5631 -0.6754
  201MOL   H17740577   1.454   3.331   5.060  0.8128  0.6293  0.3294
  201MOL   H17840578   1.359   3.421   5.159 -0.5081 -1.0951  0.2824
  201MOL   H17940579   1.486   3.261   5.351 -1.1746  2.2958 -0.4602
  201MOL   H18040580   1.658   2.975   5.255 -1.2154 -1.1637 -0.3913
  201MOL   H18140581   1.613   3.086   5.381  1.1437  1.2379 -1.2306
  201MOL   C18240582   1.311   3.175   5.253  0.7704 -0.1742 -0.5037
  201MOL   C18340583   1.209   3.238   5.361  0.1144 -0.4936 -0.1234
  201MOL   C18440584   1.267   3.250   5.503 -0.4653 -0.7163  0.4937
  201MOL   O18540585   1.346   3.166   5.552 -0.6880  0.3967  0.5377
  201MOL   N18640586   1.229   3.352   5.569  0.1586 -0.1853 -0.2079
  201MOL   H18740587   1.308   3.070   5.283 -1.6669  0.2803  1.0456
  201MOL   H18840588   1.265   3.174   5.154 -1.8272 -2.7932  0.6462
  201MOL   H18940589   1.181   3.338   5.328 -1.1836 -1.6539 -2.6810
  201MOL   H19040590   1.170   3.418   5.519  0.6606  1.7644  1.6844
  201MOL   H19140591   1.281   3.371   5.654 -0.5368  0.9955 -0.0330
  201MOL   C19240592   1.087   3.156   5.373 -0.2395 -0.0797 -0.4580
  201MOL   C19340593   0.974   3.182   5.473 -0.3986  0.0204 -0.3223
  201MOL   C19440594   0.904   3.314   5.473 -0.1922  0.5433  0.1169
  201MOL   O19540595   0.891   3.374   5.369 -0.2007 -0.4064 -0.3396
  201MOL   N19640596   0.844   3.345   5.589 -0.0005 -0.1473  0.1140
  201MOL   H19740597   1.117   3.052   5.378  2.2602  0.7186  2.6843
  201MOL   H19840598   1.045   3.178   5.275  0.0349  0.4388 -0.4617
  201MOL   H19940599   0.896   3.107   5.460 -0.1867 -0.1010 -0.8925
  201MOL   H20040600   0.805   3.437   5.601  0.4058 -0.0214  0.4766
  201MOL   H20140601   0.854   3.276   5.662 -2.1603 -0.8306 -0.1861
  201MOL   H20240602   1.013   3.187   5.575 -2.5449  2.3645  0.4430
  202MOL     C140603   0.003   4.709   5.998 -0.1628  0.4624  0.1219
  202MOL     C240604   0.079   4.582   6.026 -0.2269  0.2280  0.7058
  202MOL     C340605   0.033   4.527   6.163  0.7293 -0.0683 -0.4077
  202MOL     O440606   0.043   4.410   6.197 -0.3047 -0.0065  0.4338
  202MOL     N540607   7.642   4.604   6.262  0.1592  0.0319  0.4379
  202MOL     H640608   7.649   4.718   5.890 -0.0074 -0.1693  0.0526
  202MOL     H740609   7.556   4.706   6.033  0.1239 -1.8734  0.8487
  202MOL     H840610   0.037   4.507   5.960 -1.3534  2.8163 -1.6249
  202MOL     H940611   7.597   4.561   6.342 -1.7422  0.6621 -0.2660
  202MOL    H1040612   7.642   4.705   6.252  1.9706 -0.0517 -0.7320
  202MOL    H1140613   0.063   4.790   6.040 -0.0332  0.9426 -0.9738
  202MOL    C1240614   0.233   4.595   6.006 -0.0349 -0.0965  1.0062
  202MOL    C1340615   0.274   4.657   5.869 -0.4425 -0.4278  0.0318
  202MOL    C1440616   0.231   4.562   5.750  0.2253  0.3797 -0.2465
  202MOL    O1540617   0.289   4.458   5.721  0.2184  0.0489 -0.0607
  202MOL    N1640618   0.128   4.599   5.673  0.1944  0.1377  0.0151
  202MOL    H1740619   0.281   4.497   6.010 -0.4669 -0.2925  1.4066
  202MOL    H1840620   0.287   4.643   6.088  1.2775 -2.5244  1.6175
  202MOL    H1940621   0.224   4.753   5.856  0.6646  0.5561  2.6446
  202MOL    H2040622   0.107   4.548   5.588  3.2191  0.5559 -1.0188
  202MOL    H2140623   0.098   4.692   5.696  0.1325  0.1018  0.0785
  202MOL    C2240624   0.428   4.687   5.852 -0.0128 -0.4150 -0.2760
  202MOL    C2340625   0.490   4.783   5.955  0.4482  0.3650 -0.7198
  202MOL    C2440626   0.419   4.919   5.950  0.0634 -0.2775  0.5789
  202MOL    O2540627   0.414   4.985   5.846  0.2725  0.3528 -0.1633
  202MOL    N2640628   0.341   4.954   6.047  0.1085  0.5691 -0.1660
  202MOL    H2740629   0.448   4.728   5.753  3.0215 -0.4826  0.2638
  202MOL    H2840630   0.487   4.595   5.853  0.3992 -0.1560 -0.3405
  202MOL    H2940631   0.488   4.751   6.059  1.8513  0.3357 -0.6825
  202MOL    H3040632   0.337   4.895   6.129  0.5661  0.1853 -0.4194
  202MOL    H3140633   0.298   5.045   6.044 -1.5180 -0.1053  1.3624
  202MOL    C3240634   0.638   4.805   5.934 -0.4752 -0.3110 -0.4283
  202MOL    C3340635   0.710   4.917   6.019  0.5686  0.3733  0.1373
  202MOL    C3440636   0.741   5.046   5.931  0.1755  0.0058 -0.3738
  202MOL    O3540637   0.831   5.046   5.847  0.3762  0.5513 -0.5108
  202MOL    N3640638   0.667   5.152   5.960 -0.1142  0.2597 -0.1292
  202MOL    H3740639   0.666   4.813   5.829  0.2797 -0.0296 -0.2117
  202MOL    H3840640   0.687   4.709   5.951 -1.1382 -0.4689  0.6318
  202MOL    H3940641   0.640   4.951   6.095  2.1931  0.8032  1.4596
  202MOL    H4040642   0.690   5.233   5.904 -1.2376 -0.1557 -1.2146
  202MOL    H4140643   0.594   5.149   6.030  0.9594 -1.0282  0.9627
  202MOL    C4240644   0.827   4.876   6.117 -0.0322 -0.7921 -0.1025
  202MOL    C4340645   0.949   4.809   6.056 -0.7032 -0.5167  0.4330
  202MOL    C4440646   0.928   4.652   6.064 -0.2245 -0.8207  0.0759
  202MOL    O4540647   0.882   4.594   6.162 -0.3025 -0.1892 -0.1805
  202MOL    N4640648   0.968   4.578   5.964  0.3948 -0.1270 -0.1220
  202MOL    H4740649   0.771   4.807   6.179 -2.9750  1.6306  0.0688
  202MOL    H4840650   0.842   4.966   6.177 -2.1418 -0.2369 -0.3504
  202MOL    H4940651   0.960   4.853   5.956 -1.2134  0.4127  0.7850
  202MOL    H5040652   0.947   4.479   5.968 -1.9383  0.3294 -0.6085
  202MOL    H5140653   1.032   4.599   5.889  4.9896 -0.7026  3.3976
  202MOL    C5240654   1.078   4.833   6.137 -0.1218  0.4071 -0.2394
  202MOL    C5340655   1.217   4.831   6.065 -0.1003  0.1674 -0.5098
  202MOL    C5440656   1.265   4.688   6.025 -0.8037  0.3581 -0.3492
  202MOL    O5540657   1.291   4.663   5.908  1.1523  0.3235 -0.4446
  202MOL    N5640658   1.282   4.603   6.123  0.5029  0.3901  0.1945
  202MOL    H5740659   1.077   4.774   6.229 -1.4150  0.9503  0.1157
  202MOL    H5840660   1.066   4.930   6.187 -2.2673  0.2327 -0.3569
  202MOL    H5940661   1.198   4.881   5.970 -1.5132 -0.3356 -0.4949
  202MOL    H6040662   1.265   4.637   6.217  1.3821  2.4419 -0.3588
  202MOL    H6140663   1.307   4.505   6.117  2.1492  0.7639  0.6174
  202MOL    C6240664   1.335   4.898   6.130 -0.1344 -1.2695 -0.1835
  202MOL    C6340665   1.330   5.053   6.131 -0.3954  0.3115  0.5824
  202MOL    C6440666   1.383   5.114   5.999  0.1901 -0.1339  0.2697
  202MOL    O6540667   1.484   5.070   5.944 -0.4745 -0.2457  0.0114
  202MOL    N6640668   1.305   5.209   5.939  0.0018  0.8153  0.3257
  202MOL    H6740669   1.432   4.856   6.103  0.7491  1.9174 -2.3086
  202MOL    H6840670   1.331   4.856   6.230  1.8860 -2.3876 -0.5424
  202MOL    H6940671   1.226   5.082   6.147 -0.3972  1.4105 -1.3176
  202MOL    H7040672   1.221   5.253   5.976 -0.5177  0.5525 -0.4991
  202MOL    H7140673   1.328   5.232   5.843  0.0425  2.1120  0.6346
  202MOL    C7240674   1.417   5.111   6.243 -1.1649 -0.4750 -0.3193
  202MOL    C7340675   1.365   5.241   6.295  0.4803 -0.3314  0.1282
  202MOL    C7440676   1.470   5.298   6.386 -0.0588 -0.3028 -0.2521
  202MOL    O7540677   1.500   5.247   6.496  0.7268 -0.6069 -0.1467
  202MOL    N7640678   1.535   5.404   6.342 -0.2636 -0.0995  0.4073
  202MOL    H7740679   1.522   5.111   6.215 -1.4957 -0.2991 -1.5928
  202MOL    H7840680   1.417   5.040   6.325  0.6979  0.6653  0.7025
  202MOL    H7940681   1.352   5.307   6.209 -0.7288 -2.1545 -1.1146
  202MOL    H8040682   1.499   5.455   6.263 -0.7716 -0.4246  0.4360
  202MOL    H8140683   1.611   5.441   6.399 -1.5720  1.2110  1.3486
  202MOL    C8240684   1.231   5.225   6.366  0.3971  0.8436 -0.3266
  202MOL    C8340685   1.117   5.321   6.321 -0.0125 -0.4387  0.2859
  202MOL    C8440686   1.075   5.293   6.173 -0.1467 -0.7908  0.1538
  202MOL    O8540687   1.123   5.345   6.071  0.3688  0.4686  0.1987
  202MOL    N8640688   0.974   5.208   6.156  0.3095  0.4940 -0.3604
  202MOL    H8740689   1.245   5.231   6.474  1.1137 -2.6205 -0.1556
  202MOL    H8840690   1.184   5.129   6.345 -1.7787  1.6862  0.5181
  202MOL    H8940691   1.027   5.291   6.374 -0.7807 -0.0487 -0.7679
  202MOL    H9040692   0.937   5.172   6.070  2.8818  0.8738 -1.6774
  202MOL    H9140693   0.921   5.192   6.241 -0.1121  0.5389 -0.6161
  202MOL    C9240694   1.142   5.474   6.334  0.4015  0.0971  0.3375
  202MOL    C9340695   1.130   5.521   6.480 -0.1113  0.6900  0.1609
  202MOL    C9440696   0.986   5.520   6.531 -0.1895 -0.6740  0.0140
  202MOL    O9540697   0.894   5.587   6.480  0.1576 -0.0743 -0.1544
  202MOL    N9640698   0.960   5.457   6.644  0.1688 -0.1401 -0.4407
  202MOL    H9740699   1.069   5.519   6.267  0.8213 -0.9074 -0.8007
  202MOL    H9840700   1.239   5.507   6.297 -0.0783 -0.9667 -1.9234
  202MOL    H9940701   1.181   5.441   6.535  1.0741  0.7750 -0.7860
  202MOL   H10040702   0.871   5.473   6.689 -0.7801 -1.3455 -1.8222
  202MOL   H10140703   1.031   5.411   6.698 -0.2081  2.2331  2.1928
  202MOL   C10240704   1.206   5.656   6.516  0.0551 -0.1005 -0.4352
  202MOL   C10340705   1.344   5.630   6.585  0.1023 -0.1412  1.0308
  202MOL   C10440706   1.341   5.552   6.714  0.0687 -0.4983 -0.7856
  202MOL   O10540707   1.249   5.560   6.798 -0.6564 -0.0631 -0.6872
  202MOL   N10640708   1.437   5.469   6.737  0.3896  0.7360 -0.1755
  202MOL   H10740709   1.150   5.714   6.590  1.6272  0.4879  0.3095
  202MOL   H10840710   1.210   5.713   6.423  0.6499 -0.8625 -0.8761
  202MOL   H10940711   1.404   5.566   6.520 -0.1390  1.6479 -1.0364
  202MOL   H11040712   1.402   5.398   6.800 -1.6594  0.3897 -1.6565
  202MOL   H11140713   1.503   5.437   6.668  2.0277  1.4917  0.9992
  202MOL   C11240714   1.432   5.752   6.612 -0.6406  0.0518 -0.4271
  202MOL   C11340715   1.377   5.859   6.711 -0.4521  0.5518 -0.4166
  202MOL   C11440716   1.300   5.969   6.640 -0.2614  0.0421 -0.4166
  202MOL   O11540717   1.299   5.983   6.519 -0.3478 -0.0700  0.6763
  202MOL   N11640718   1.233   6.056   6.714 -0.5573 -0.3963 -0.4529
  202MOL   H11740719   1.443   5.800   6.514  1.9923  0.4920  0.0348
  202MOL   H11840720   1.522   5.701   6.646 -1.5417 -1.5059 -0.3008
  202MOL   H11940721   1.300   5.810   6.771  1.4548 -1.2803  0.5982
  202MOL   H12040722   1.228   6.052   6.814 -2.5842  3.3415 -0.2849
  202MOL   H12140723   1.172   6.128   6.675 -0.8347  0.4807  1.5420
  202MOL   C12240724   1.471   5.910   6.820  0.1030  1.4845  0.3085
  202MOL   C12340725   1.566   6.019   6.775 -0.1014 -0.6738  0.2011
  202MOL   C12440726   1.656   5.973   6.662 -0.1134  0.1800  0.3858
  202MOL   O12540727   1.720   5.864   6.662  0.2248 -0.3403 -0.0428
  202MOL   N12640728   1.663   6.062   6.563  0.2430 -0.1086 -0.3368
  202MOL   H12740729   1.542   5.831   6.844 -0.9178 -0.8061 -3.6674
  202MOL   H12840730   1.414   5.939   6.908 -0.2082  0.1378  0.5597
  202MOL   H12940731   1.504   6.100   6.737  2.9345  1.6455 -0.0294
  202MOL   H13040732   1.717   6.049   6.478  1.2826  0.6303  0.2019
  202MOL   H13140733   1.610   6.146   6.581  0.6753  0.5449 -1.9882
  202MOL   C13240734   1.645   6.087   6.892 -0.5536 -0.0502  0.1272
  202MOL   C13340735   1.573   6.184   6.986  0.1776  0.0692  0.0550
  202MOL   C13440736   1.494   6.289   6.916  0.0768  1.2824 -0.3621
  202MOL   O13540737   1.555   6.373   6.848  0.2114 -0.1942  0.3163
  202MOL   N13640738   1.364   6.295   6.923  0.0870  0.2821  0.2261
  202MOL   H13740739   1.736   6.143   6.868  0.6539 -2.1983 -0.4991
  202MOL   H13840740   1.674   6.010   6.964 -0.1052  1.5417  1.6953
  202MOL   H13940741   1.507   6.110   7.032  2.0237 -1.0364  0.9914
  202MOL   H14040742   1.330   6.206   6.957  2.0916 -0.7706 -0.4146
  202MOL   H14140743   1.315   6.381   6.903 -1.5491 -0.7148 -0.1647
  202MOL   C14240744   1.680   6.240   7.083 -0.1803  0.3141  0.6038
  202MOL   C14340745   1.613   6.303   7.209 -0.1444 -0.5594 -0.3257
  202MOL   C14440746   1.576   6.449   7.201  0.3168  0.1827 -0.7809
  202MOL   O14540747   1.661   6.530   7.157 -0.7681  0.2469 -0.5068
  202MOL   N14640748   1.454   6.484   7.240  1.0595  0.3401 -0.5539
  202MOL   H14740749   1.727   6.327   7.038 -1.5991  0.7438 -0.0632
  202MOL   H14840750   1.757   6.167   7.109 -0.2033  1.1303  3.0462
  202MOL   H14940751   1.517   6.251   7.218 -1.1733  1.1928 -0.8355
  202MOL   H15040752   1.426   6.577   7.267 -1.1427 -0.4179 -0.1392
  202MOL   H15140753   1.389   6.414   7.274  2.2844  0.1959  1.5944
  202MOL   C15240754   1.691   6.290   7.337 -0.3423 -0.0901  0.3902
  202MOL   C15340755   1.663   6.161   7.424  0.1286  0.4947 -0.2417
  202MOL   C15440756   1.527   6.167   7.502  0.7089  0.7456  0.5138
  202MOL   O15540757   1.499   6.266   7.575 -0.4736  0.2321  0.6344
  202MOL   N15640758   1.439   6.076   7.476  0.3942 -0.0420 -0.2018
  202MOL   H15740759   1.689   6.377   7.403  0.8372  2.0443 -2.3021
  202MOL   H15840760   1.792   6.280   7.296 -1.5069 -1.5276 -2.2690
  202MOL   H15940761   1.665   6.082   7.349 -1.0125 -0.4116  0.6556
  202MOL   H16040762   1.453   6.008   7.402 -2.0125 -0.2177 -0.5234
  202MOL   H16140763   1.342   6.083   7.502  0.6378 -1.1019  1.0504
  202MOL   C16240764   1.784   6.147   7.522 -0.2608 -0.0533  0.6039
  202MOL   C16340765   1.781   6.022   7.611 -0.2677 -0.4299  0.3623
  202MOL   C16440766   1.858   6.052   0.080 -0.2618  0.2864  0.0028
  202MOL   O16540767   1.977   6.098   0.069  0.3663  0.0608  0.3452
  202MOL   N16640768   1.803   6.027   0.194  0.2710  0.3912 -0.2104
  202MOL   H16740769   1.774   6.243   7.573 -3.5153 -0.4209  0.7834
  202MOL   H16840770   1.882   6.151   7.475 -0.1548 -1.2093  0.7218
  202MOL   H16940771   1.676   5.998   7.631 -1.3961  2.5882 -1.5959
  202MOL   H17040772   1.707   5.997   0.209  0.2282 -0.7856 -2.5626
  202MOL   H17140773   1.866   6.053   0.269  1.2528  2.6325 -1.7549
  202MOL   C17240774   1.852   5.909   7.528 -0.3106 -0.6501 -0.3005
  202MOL   C17340775   1.809   5.769   7.582 -0.7059  0.6903 -0.1247
  202MOL   C17440776   1.932   5.672   7.583 -0.4818 -1.0652  0.2690
  202MOL   O17540777   1.984   5.634   7.476  0.5083 -1.0442  0.2480
  202MOL   N17640778   1.973   5.623   0.040  0.0629  0.2356 -0.0380
  202MOL   H17740779   1.960   5.914   7.536 -0.4280 -0.6058  1.6118
  202MOL   H17840780   1.831   5.920   7.422  1.1481  0.3932 -0.4935
  202MOL   H17940781   1.774   5.780   0.028  0.0830  0.3623  0.1800
  202MOL   H18040782   2.038   5.545   0.039 -0.0484  0.1451 -0.1219
  202MOL   H18140783   1.920   5.655   0.120 -2.0106 -0.9711 -0.9237
  202MOL   C18240784   1.693   5.715   7.493 -0.2361 -0.5227  0.5976
  202MOL   C18340785   1.578   5.635   7.551 -0.5018 -0.2573 -0.2369
  202MOL   C18440786   1.479   5.724   7.634  0.1935 -0.2008 -0.2955
  202MOL   O18540787   1.500   5.733   0.097 -0.4478 -0.2432  0.1574
  202MOL   N18640788   1.377   5.778   7.573 -0.4784  0.0146  0.5454
  202MOL   H18740789   1.738   5.668   7.405 -1.0374 -0.7962  0.3339
  202MOL   H18840790   1.647   5.804   7.451  1.3479 -0.4290 -1.0261
  202MOL   H18940791   1.524   5.610   7.460 -0.7072  0.5621 -0.3419
  202MOL   H19040792   1.296   5.828   7.605 -1.7159 -1.8064  0.2949
  202MOL   H19140793   1.383   5.768   7.472 -1.2042  1.5488  0.3451
  202MOL   C19240794   1.615   5.497   7.621 -0.8561  0.0832 -0.0005
  202MOL   C19340795   1.703   5.395   7.540  0.1982 -0.2936  0.2389
  202MOL   C19440796   1.646   5.362   7.401 -0.1330  0.3107  0.0667
  202MOL   O19540797   1.542   5.309   7.378 -0.5999 -0.3384  0.6123
  202MOL   N19640798   1.721   5.410   7.303 -0.6200 -0.1345  0.1263
  202MOL   H19740799   1.527   5.441   7.654 -0.1910 -0.9834  0.0107
  202MOL   H19840800   1.668   5.520   0.056 -2.8839  0.9018  0.9713
  202MOL   H19940801   1.800   5.439   7.520  0.3255  0.2325  1.9067
  202MOL   H20040802   1.808   5.451   7.333 -0.5024 -1.8958  2.3266
  202MOL   H20140803   1.700   5.404   7.204 -1.6410  0.6055  0.2885
  202MOL   H20240804   1.726   5.307   7.601 -0.9692 -2.4858 -2.3495
  203MOL     C140805   7.308   2.652   5.442 -0.1999 -0.0820 -0.5991
  203MOL     C240806   7.252   2.697   5.303  1.0610  0.3607  0.4500
  203MOL     C340807   7.359   2.696   5.188 -0.1554  0.1854  1.0225
  203MOL     O440808   7.446   2.777   5.178 -0.2515 -0.1969 -0.3179
  203MOL     N540809   7.353   2.596   5.102 -0.3832 -0.1242 -0.3589
  203MOL     H640810   7.230   2.677   5.514  1.8725  0.4311  1.5517
  203MOL     H740811   7.322   2.544   5.442 -3.0008 -0.4646  0.6606
  203MOL     H840812   7.186   2.614   5.277  1.0376  0.5650 -0.1562
  203MOL     H940813   7.409   2.593   5.018 -0.6758 -2.0558 -0.5278
  203MOL    H1040814   7.278   2.529   5.114 -0.7231  0.4352  0.6815
  203MOL    H1140815   7.401   2.694   5.482 -0.1589  2.6012 -3.3153
  203MOL    C1240816   7.176   2.832   5.296 -0.9025  0.6133  0.0340
  203MOL    C1340817   7.032   2.847   5.359 -0.2939 -0.7058 -0.3463
  203MOL    C1440818   7.023   2.847   5.512 -0.1359 -0.2094  0.0857
  203MOL    O1540819   7.099   2.914   5.579  0.5089  0.3560 -0.0551
  203MOL    N1640820   6.932   2.769   5.575  0.0701  0.0403 -0.0823
  203MOL    H1740821   7.179   2.858   5.190 -2.1007  1.1910  0.1397
  203MOL    H1840822   7.241   2.907   5.342  0.8129 -1.0935  0.4751
  203MOL    H1940823   7.009   2.952   5.342 -0.5683 -0.7099 -0.0172
  203MOL    H2040824   6.867   2.710   5.526  0.1793  0.2351 -0.4599
  203MOL    H2140825   6.929   2.754   5.675 -0.6348 -0.4385 -0.1765
  203MOL    C2240826   6.924   2.765   5.289 -0.2678 -0.8627 -0.1476
  203MOL    C2340827   6.882   2.813   5.150 -0.4220 -0.4868  0.1685
  203MOL    C2440828   6.809   2.948   5.157 -0.2863 -0.0990  0.1778
  203MOL    O2540829   6.716   2.962   5.243  0.3135 -0.3481 -0.0598
  203MOL    N2640830   6.839   3.049   5.079 -0.2331  0.5933  0.4540
  203MOL    H2740831   6.833   2.759   5.349 -0.5446  0.2132 -0.4321
  203MOL    H2840832   6.959   2.663   5.279  1.2177 -0.3555 -0.2102
  203MOL    H2940833   6.970   2.821   5.087 -0.6887  2.0315  0.0717
  203MOL    H3040834   6.927   3.056   5.031  0.2693  2.0442  1.5421
  203MOL    H3140835   6.779   3.131   5.082 -0.9947  0.0439  0.5330
  203MOL    C3240836   6.776   2.705   5.095 -0.1452 -0.2617 -0.3999
  203MOL    C3340837   6.738   2.729   4.944 -0.0587  0.0830  0.4141
  203MOL    C3440838   6.616   2.658   4.896  0.7984 -1.0614 -0.5644
  203MOL    O3540839   6.564   2.571   4.962  0.8490  1.1196  0.1643
  203MOL    N3640840   6.558   2.698   4.787  0.4239  0.6608  0.7154
  203MOL    H3740841   6.685   2.728   5.151  0.8896  1.1591  0.7335
  203MOL    H3840842   6.810   2.605   5.119  1.5689  0.2462 -0.6320
  203MOL    H3940843   6.701   2.831   4.940  2.8863  1.2213  1.0528
  203MOL    H4040844   6.483   2.651   4.737  0.4078  0.7906  0.6172
  203MOL    H4140845   6.596   2.770   4.728  1.2395 -1.1902 -1.0541
  203MOL    C4240846   6.851   2.701   4.843  0.0388  0.0385 -1.0609
  203MOL    C4340847   6.935   2.815   4.788  0.4928  0.2547  0.2804
  203MOL    C4440848   6.854   2.922   4.716  0.5904  0.0901 -0.1303
  203MOL    O4540849   6.756   2.887   4.650 -0.0630  0.3465 -0.1792
  203MOL    N4640850   6.899   3.044   4.726  0.0360  0.4617 -0.0221
  203MOL    H4740851   6.807   2.650   4.757  0.3340 -3.4844  0.7843
  203MOL    H4840852   6.919   2.628   4.889  0.1778  0.3976 -0.6957
  203MOL    H4940853   6.982   2.861   4.875  0.1029  0.0686  0.5859
  203MOL    H5040854   6.980   3.065   4.782  0.9191  0.4298 -1.2574
  203MOL    H5140855   6.869   3.116   4.662 -0.9426  0.5740  0.5423
  203MOL    C5240856   7.065   2.763   4.712 -0.0778  0.6142 -0.1294
  203MOL    C5340857   7.174   2.870   4.717 -0.8686 -0.2933 -0.0305
  203MOL    C5440858   7.263   2.867   4.594  0.0062  0.5836  0.0508
  203MOL    O5540859   7.373   2.812   4.594  0.3302  0.5103  0.2186
  203MOL    N5640860   7.199   2.896   4.480 -0.0940 -0.1689  0.1641
  203MOL    H5740861   7.034   2.717   4.619 -2.7755  2.4065 -0.1783
  203MOL    H5840862   7.108   2.678   4.765 -2.6441 -1.5804 -1.4632
  203MOL    H5940863   7.126   2.967   4.703  1.6996  0.6895 -2.4777
  203MOL    H6040864   7.113   2.947   4.467 -0.6838 -1.0391  0.5769
  203MOL    H6140865   7.257   2.897   4.397  0.5887 -0.1151  0.6413
  203MOL    C6240866   7.256   2.859   4.854  0.2445 -0.1313  0.5745
  203MOL    C6340867   7.311   2.987   4.917 -0.1058  0.3460  0.1274
  203MOL    C6440868   7.196   3.065   4.988 -0.4193  0.1680 -0.0607
  203MOL    O6540869   7.088   3.087   4.939  0.1339 -0.5594 -0.1111
  203MOL    N6640870   7.226   3.114   5.108  0.6011  0.2043  0.8015
  203MOL    H6740871   7.338   2.790   4.833  0.5866  0.4237  0.0663
  203MOL    H6840872   7.194   2.803   4.924 -0.8091 -0.1378 -0.3629
  203MOL    H6940873   7.374   2.950   4.999 -1.5198  0.3743  1.2461
  203MOL    H7040874   7.164   3.185   5.144 -0.9756 -1.0435  0.6377
  203MOL    H7140875   7.316   3.096   5.150  1.0872 -2.4309 -1.2451
  203MOL    C7240876   7.399   3.071   4.830 -0.3616 -0.3056  0.0589
  203MOL    C7340877   7.464   3.193   4.903  1.1581  0.7225 -0.3312
  203MOL    C7440878   7.475   3.315   4.805 -0.1840  0.5567  0.1085
  203MOL    O7540879   7.568   3.319   4.731 -0.0834 -1.0939 -0.1137
  203MOL    N7640880   7.382   3.407   4.806 -0.2369  0.0575  0.3179
  203MOL    H7740881   7.329   3.107   4.755  0.1787 -0.8225 -0.6988
  203MOL    H7840882   7.468   3.008   4.773 -0.6431 -0.8831  0.3467
  203MOL    H7940883   7.410   3.232   4.988  1.2353  1.9138 -0.8248
  203MOL    H8040884   7.386   3.487   4.744  0.6881 -2.6065 -3.2171
  203MOL    H8140885   7.297   3.387   4.855 -0.2317  2.2016  1.2819
  203MOL    C8240886   7.615   3.158   4.948 -0.3028  0.1096  0.0321
  203MOL    C8340887   7.632   3.059   5.068  0.1018  0.0274  0.6108
  203MOL    C8440888   7.568   3.114   5.198 -0.1645 -0.3030 -0.0689
  203MOL    O8540889   7.605   3.227   5.241 -0.2534  0.0484  0.2547
  203MOL    N8640890   7.479   3.039   5.263  0.2084  0.1691  0.5109
  203MOL    H8740891   7.648   3.255   4.983 -0.5283  0.6648 -1.2593
  203MOL    H8840892   0.016   3.131   4.860 -1.0000  0.5679 -0.5682
  203MOL    H8940893   7.582   2.968   5.036 -1.0865  0.0119  2.4564
  203MOL    H9040894   7.463   2.945   5.231 -0.8172  0.9349 -1.3461
  203MOL    H9140895   7.450   3.071   5.354 -0.3470  0.4287  0.2495
  203MOL    C9240896   0.133   3.038   5.083  0.5840  0.4120 -0.3393
  203MOL    C9340897   0.173   2.895   5.128 -0.6402 -0.9025  0.0618
  203MOL    C9440898   0.136   2.782   5.031  0.2656  0.1311 -0.7432
  203MOL    O9540899   0.212   2.732   4.959 -0.1237  0.3832  0.0527
  203MOL    N9640900   0.011   2.743   5.017 -0.1226 -0.2830  0.1163
  203MOL    H9740901   0.176   3.111   5.151  1.0067 -2.1457  2.2184
  203MOL    H9840902   0.188   3.056   4.990 -0.0363 -1.5195 -1.1025
  203MOL    H9940903   0.281   2.900   5.122 -0.6123 -2.7374 -0.9717
  203MOL   H10040904   7.644   2.677   4.945 -2.5581  0.2165  0.4170
  203MOL   H10140905   7.594   2.785   5.071 -0.6122  1.4801 -1.8628
  203MOL   C10240906   0.160   2.865   5.289 -0.5558  0.5691  0.7159
  203MOL   C10340907   0.277   2.909   5.380  0.6856 -0.3763 -0.3818
  203MOL   C10440908   0.282   2.839   5.516  0.0473  0.5211 -0.2576
  203MOL   O10540909   0.209   2.747   5.539 -0.5948  0.7225  0.2255
  203MOL   N10640910   0.379   2.873   5.598 -0.0702  0.7677 -0.6571
  203MOL   H10740911   0.146   2.757   5.292  0.0352  0.4688  0.0397
  203MOL   H10840912   0.068   2.902   5.334 -0.1801  1.0767  1.0779
  203MOL   H10940913   0.374   2.891   5.333  1.4048  2.7953 -0.1932
  203MOL   H11040914   0.431   2.957   5.576  0.0909  0.3834 -1.7661
  203MOL   H11140915   0.392   2.832   5.690  0.4333 -0.0886 -1.1006
  203MOL   C11240916   0.260   3.062   5.414 -0.1045 -0.1443 -0.1841
  203MOL   C11340917   0.350   3.159   5.338 -0.1118 -0.2193  0.1015
  203MOL   C11440918   0.487   3.166   5.404  0.7557  0.0439 -0.8048
  203MOL   O11540919   0.512   3.111   5.514 -0.1760 -0.4627  0.0854
  203MOL   N11640920   0.580   3.240   5.351  0.0466 -0.4570  0.1251
  203MOL   H11740921   0.276   3.089   5.519 -0.7246  0.3331 -0.2105
  203MOL   H11840922   0.156   3.093   5.405  0.9485  3.6947 -0.0135
  203MOL   H11940923   0.372   3.117   5.240  1.3821  0.1767  0.2563
  203MOL   H12040924   0.662   3.248   5.409  1.5323 -0.0341 -1.9736
  203MOL   H12140925   0.560   3.287   5.264  0.7123  1.4025  0.9522
  203MOL   C12240926   0.294   3.304   5.327 -0.4918  0.0106 -0.2581
  203MOL   C12340927   0.318   3.377   5.192 -0.7012 -0.0855  1.0021
  203MOL   C12440928   0.435   3.470   5.193  0.1179  0.2957  0.2906
  203MOL   O12540929   0.446   3.555   5.282  0.5489 -0.0688 -0.4119
  203MOL   N12640930   0.530   3.440   5.103  0.0704  0.1195  0.1795
  203MOL   H12740931   0.347   3.366   5.399 -2.3246  0.0849  1.0461
  203MOL   H12840932   0.190   3.293   5.357 -0.1492  0.0797  0.9955
  203MOL   H12940933   0.328   3.303   5.112 -1.8252  0.9440 -0.1166
  203MOL   H13040934   0.498   3.369   5.039  1.0588  0.0450 -0.2459
  203MOL   H13140935   0.614   3.495   5.089 -0.2662 -0.0485 -2.8610
  203MOL   C13240936   0.203   3.459   5.152  0.9076 -0.3523 -0.3473
  203MOL   C13340937   0.210   3.534   5.016  0.4492 -0.0741 -0.7509
  203MOL   C13440938   0.078   3.606   5.006 -0.5942  0.3739  0.2314
  203MOL   O13540939   7.637   3.552   4.959  0.0505  0.6209 -0.1728
  203MOL   N13640940   0.058   3.727   5.064  0.1649 -0.7872 -0.4926
  203MOL   H13740941   0.182   3.519   5.240  2.5723  1.0633 -0.8874
  203MOL   H13840942   0.123   3.385   5.142  0.9689 -0.2250 -1.8936
  203MOL   H13940943   0.289   3.608   5.032 -0.7193  1.2802 -1.1617
  203MOL   H14040944   0.130   3.783   5.105  1.0482 -1.0722 -1.6214
  203MOL   H14140945   7.623   3.770   5.059  0.0748 -0.1511  4.2075
  203MOL   C14240946   0.244   3.445   4.889 -0.4838 -0.4816 -1.3791
  203MOL   C14340947   0.307   3.524   4.768  0.2892  1.0093  0.5726
  203MOL   C14440948   0.211   3.609   4.681  0.6220 -0.0718 -0.2827
  203MOL   O14540949   0.248   3.711   4.627 -0.3544  0.0149 -0.0071
  203MOL   N14640950   0.090   3.558   4.655 -0.1974 -0.3385 -1.0171
  203MOL   H14740951   0.160   3.377   4.871 -2.2309  1.3491 -0.3273
  203MOL   H14840952   0.319   3.369   4.909 -1.3837 -1.7524 -2.6879
  203MOL   H14940953   0.365   3.603   4.816  0.2141  0.3885  1.7105
  203MOL   H15040954   0.070   3.478   4.714  0.1520  0.9705  0.9004
  203MOL   H15140955   0.020   3.592   4.590  0.2678 -1.1533 -1.9491
  203MOL   C15240956   0.397   3.438   4.676 -0.2083  0.5375 -0.3546
  203MOL   C15340957   0.541   3.499   4.653 -0.1275  0.0488 -0.2439
  203MOL   C15440958   0.612   3.531   4.791  0.5614 -0.3799 -0.1723
  203MOL   O15540959   0.655   3.442   4.857 -0.1465 -0.1505 -0.4133
  203MOL   N15640960   0.629   3.654   4.835  0.4988 -0.1248  0.0881
  203MOL   H15740961   0.351   3.435   4.577  2.5914  0.6778 -1.7253
  203MOL   H15840962   0.421   3.337   4.710 -1.5139  0.3474  0.0134
  203MOL   H15940963   0.596   3.430   4.590 -3.3578  0.7763 -4.0517
  203MOL   H16040964   0.613   3.733   4.774  1.0706  0.1370  0.2803
  203MOL   H16140965   0.680   3.669   4.921 -1.3563  0.2696  1.1465
  203MOL   C16240966   0.534   3.623   4.560 -0.0012 -0.4614  0.1252
  203MOL   C16340967   0.647   3.635   4.456  0.0302  0.0611 -0.0081
  203MOL   C16440968   0.796   3.628   4.506  0.0804  0.0162 -0.6703
  203MOL   O16540969   0.832   3.690   4.606  0.4644  0.4004 -0.1542
  203MOL   N16640970   0.872   3.541   4.448  0.4725 -0.2810  0.8337
  203MOL   H16740971   0.528   3.718   4.613 -2.5149  0.5493 -1.8622
  203MOL   H16840972   0.435   3.632   4.515 -0.8609 -1.1894  1.8555
  203MOL   H16940973   0.645   3.554   4.383  0.0596 -0.8316  0.9739
  203MOL   H17040974   0.961   3.527   4.493  0.3929  3.2615  2.2663
  203MOL   H17140975   0.846   3.465   4.387  0.8655 -1.3789  2.0229
  203MOL   C17240976   0.627   3.765   4.377 -0.4392 -0.6685  0.2715
  203MOL   C17340977   0.542   3.738   4.243 -0.3316 -0.3543 -0.5380
  203MOL   C17440978   0.629   3.696   4.119  0.7478 -1.0263 -0.8823
  203MOL   O17540979   0.673   3.785   4.048 -0.7386  0.0937 -0.0046
  203MOL   N17640980   0.646   3.563   4.099 -0.2818  0.5817  0.2929
  203MOL   H17740981   0.724   3.800   4.343 -0.9590  0.7332  0.2145
  203MOL   H17840982   0.594   3.843   4.445 -0.5724 -0.0685 -0.4740
  203MOL   H17940983   0.482   3.649   4.259 -1.8670  0.7427 -0.0851
  203MOL   H18040984   0.616   3.495   4.168  0.7424  0.8032  0.9707
  203MOL   H18140985   0.707   3.536   4.024 -0.4916  0.3682  0.2008
  203MOL   C18240986   0.460   3.866   4.204 -0.2718 -0.3017  0.4036
  203MOL   C18340987   0.318   3.868   4.265 -0.2054 -0.4126  0.2625
  203MOL   C18440988   0.241   3.740   4.238  0.1524 -0.3082 -0.4517
  203MOL   O18540989   0.228   3.708   4.119  0.4008 -0.2956 -0.6648
  203MOL   N18640990   0.197   3.668   4.337 -0.2540 -0.1102  0.5501
  203MOL   H18740991   0.448   3.870   4.096 -1.0301 -2.4335  0.3720
  203MOL   H18840992   0.514   3.951   4.245 -1.9421  0.8924  0.1519
  203MOL   H18940993   0.351   3.865   4.369 -1.0745 -1.9624  0.5032
  203MOL   H19040994   0.211   3.699   4.431  0.5179  3.2731 -0.6157
  203MOL   H19140995   0.149   3.581   4.318 -1.9450  0.5465  1.7357
  203MOL   C19240996   0.246   4.000   4.239  0.3420  0.2288 -0.1249
  203MOL   C19340997   0.254   4.078   4.106  0.8442 -0.2777  0.5780
  203MOL   C19440998   0.193   4.012   3.987 -0.7436 -0.6435 -0.0361
  203MOL   O19540999   0.079   3.968   3.998  0.8072  0.3448  0.6485
  203MOL   N19641000   0.269   4.007   3.879 -0.1736 -0.1379  0.3304
  203MOL   H19741001   0.273   4.071   4.317  2.2622 -0.6260  0.0084
  203MOL   H19841002   0.139   3.986   4.253  0.4163 -0.7747 -0.5290
  203MOL   H19941003   0.199   4.172   4.106  1.8512  0.3349 -0.0406
  203MOL   H20041004   0.243   3.950   3.801 -4.0926  0.4656  1.0772
  203MOL   H20141005   0.357   4.055   3.893 -0.3392 -0.4192  2.5327
  203MOL   H20241006   0.358   4.110   4.094  0.2793  2.2805  2.2303
  204MOL     C141007   4.782   6.747   3.619  0.4953  0.6867  0.3717
  204MOL     C241008   4.926   6.712   3.651 -0.4860 -0.3283 -0.3450
  204MOL     C341009   4.936   6.628   3.777 -0.4892 -0.1081 -0.6187
  204MOL     O441010   4.892   6.675   3.880  0.2078  0.3478 -1.2136
  204MOL     N541011   5.014   6.516   3.781 -0.3534  0.1219 -0.2369
  204MOL     H641012   4.741   6.820   3.689 -0.1537 -1.0748  1.8720
  204MOL     H741013   4.766   6.797   3.523 -0.3743  2.0772  1.2198
  204MOL     H841014   4.954   6.648   3.567 -1.3722 -4.4146  2.3479
  204MOL     H941015   5.059   6.469   3.704  0.8357  0.1741  0.4203
  204MOL    H1041016   5.024   6.470   3.870  2.0002 -0.2848 -0.6648
  204MOL    H1141017   4.714   6.662   3.620  0.7811  0.4567  0.3303
  204MOL    C1241018   5.032   6.827   3.655 -0.1269 -0.7387 -0.4663
  204MOL    C1341019   5.144   6.802   3.562 -0.5020 -0.5293 -0.7025
  204MOL    C1441020   5.279   6.777   3.637 -0.5407 -0.2677 -0.1577
  204MOL    O1541021   5.327   6.878   3.690  0.0666 -0.2524 -0.3319
  204MOL    N1641022   5.334   6.661   3.619  0.4199  0.2374  0.3572
  204MOL    H1741023   5.060   6.850   3.758 -1.2586  1.4962 -0.6262
  204MOL    H1841024   4.988   6.920   3.620 -0.9863 -1.3604 -1.0544
  204MOL    H1941025   5.130   6.708   3.508 -2.4204  0.1971 -1.5155
  204MOL    H2041026   5.429   6.657   3.653  0.1568  0.0182  1.0783
  204MOL    H2141027   5.278   6.585   3.584 -0.7031  1.4684 -0.5830
  204MOL    C2241028   5.166   6.916   3.459  0.1185  0.2338 -0.0301
  204MOL    C2341029   5.250   6.880   3.338  1.0559  0.6158 -0.1178
  204MOL    C2441030   5.307   7.017   3.288  0.1135  0.0792  0.0296
  204MOL    O2541031   5.262   7.070   3.186  0.7346  0.0507  0.1604
  204MOL    N2641032   5.405   7.072   3.355  0.0608 -0.1241 -0.1886
  204MOL    H2741033   5.188   7.014   3.501 -1.1738  1.1334 -1.3914
  204MOL    H2841034   5.069   6.944   3.418 -0.4503 -1.3764  0.1593
  204MOL    H2941035   5.324   6.804   3.361 -0.4311 -1.6369 -2.5227
  204MOL    H3041036   5.443   7.037   3.442 -1.6082 -0.5798  0.3717
  204MOL    H3141037   5.449   7.151   3.310  0.4145 -0.5553 -0.6029
  204MOL    C3241038   5.154   6.806   3.233 -0.1281 -0.1148  0.1136
  204MOL    C3341039   5.219   6.713   3.123 -0.0146 -0.4539  0.8380
  204MOL    C3441040   5.215   6.789   2.984  0.0453  0.4163 -0.1242
  204MOL    O3541041   5.105   6.809   2.928  0.1451 -0.6269 -0.3251
  204MOL    N3641042   5.336   6.815   2.931  0.6335 -0.1554 -0.4685
  204MOL    H3741043   5.090   6.879   3.183 -1.3011 -0.9494  0.3843
  204MOL    H3841044   5.082   6.744   3.286 -2.0194  1.9281  0.0410
  204MOL    H3941045   5.321   6.700   3.157  0.8196  1.1276 -0.9513
  204MOL    H4041046   5.340   6.844   2.834  0.8812  0.8321 -0.1647
  204MOL    H4141047   5.419   6.788   2.981  0.5831 -1.5568 -1.1275
  204MOL    C4241048   5.146   6.582   3.114 -0.2445  0.5271  0.4290
  204MOL    C4341049   5.213   6.473   3.026  0.0059  1.0000 -0.2940
  204MOL    C4441050   5.116   6.349   3.030 -0.3480  0.2302 -0.6097
  204MOL    O4541051   5.099   6.284   3.132 -0.6700 -0.3006  1.0907
  204MOL    N4641052   5.054   6.313   2.917 -0.0356  0.1030  0.5201
  204MOL    H4741053   5.042   6.599   3.087 -0.0132 -0.4247 -1.1425
  204MOL    H4841054   5.142   6.541   3.215  2.1963  1.0791  0.7788
  204MOL    H4941055   5.212   6.512   2.924  1.8136 -0.2008 -0.7790
  204MOL    H5041056   5.068   6.369   2.834 -1.5009 -0.9485 -0.4684
  204MOL    H5141057   4.996   6.230   2.914  0.1134 -0.0139  0.9077
  204MOL    C5241058   5.357   6.435   3.070 -0.7372  0.0561 -0.5785
  204MOL    C5341059   5.475   6.504   2.992 -0.3030  0.6469 -0.0900
  204MOL    C5441060   5.499   6.450   2.854 -0.4964  0.2743  0.2144
  204MOL    O5541061   5.524   6.331   2.846 -0.0535 -0.1183  0.1010
  204MOL    N5641062   5.495   6.532   2.749  0.0751  0.8309  0.3204
  204MOL    H5741063   5.369   6.327   3.067  1.4533  0.2332  1.0951
  204MOL    H5841064   5.376   6.445   3.177 -0.3471 -1.5901 -0.4816
  204MOL    H5941065   5.462   6.612   2.987  1.6434  0.9579  1.1492
  204MOL    H6041066   5.520   6.487   2.662  0.9474  0.5231  0.7258
  204MOL    H6141067   5.469   6.630   2.745 -0.1534  0.7442 -0.4254
  204MOL    C6241068   5.606   6.500   3.070  0.0072  0.0753 -0.5899
  204MOL    C6341069   5.612   6.580   3.206 -0.3592 -0.2279  0.3056
  204MOL    C6441070   5.596   6.734   3.203 -0.8951  0.4670  1.1074
  204MOL    O6541071   5.591   6.796   3.099 -0.5580 -0.0162  0.3938
  204MOL    N6641072   5.576   6.790   3.317  0.1171 -0.3033 -0.2555
  204MOL    H6741073   5.682   6.523   2.996  0.4646 -1.5083 -0.6283
  204MOL    H6841074   5.624   6.398   3.106 -2.9147  0.0195  0.8559
  204MOL    H6941075   5.520   6.556   3.259 -1.5831  2.0246 -0.7755
  204MOL    H7041076   5.550   6.725   3.390  0.6823  0.4736  0.6512
  204MOL    H7141077   5.547   6.887   3.328 -1.7968 -0.8886  0.1319
  204MOL    C7241078   5.730   6.528   3.292 -0.5257  0.1622  0.0042
  204MOL    C7341079   5.689   6.413   3.380  0.3889  0.0777 -0.0165
  204MOL    C7441080   5.588   6.457   3.489  0.4884  0.2397 -1.1027
  204MOL    O7541081   5.584   6.565   3.544 -0.1191 -0.0130  0.3319
  204MOL    N7641082   5.494   6.371   3.521 -0.0381  0.3234  0.1804
  204MOL    H7741083   5.776   6.608   3.349  0.0832 -0.7587  0.8347
  204MOL    H7841084   5.817   6.494   3.237 -1.1381  0.1935 -0.9932
  204MOL    H7941085   5.650   6.338   3.312 -0.2844  0.3889  0.0198
  204MOL    H8041086   5.414   6.390   3.581  0.0625  0.8422  0.1448
  204MOL    H8141087   5.505   6.276   3.487 -0.1401 -0.1119  1.3147
  204MOL    C8241088   5.808   6.346   3.454 -0.0486  0.3774  0.2776
  204MOL    C8341089   5.791   6.190   3.467 -0.1533  0.3197  0.1961
  204MOL    C8441090   5.768   6.153   3.614  0.2962 -0.1127 -0.1231
  204MOL    O8541091   5.849   6.189   3.703  0.7155  0.5402 -0.7254
  204MOL    N8641092   5.657   6.098   3.647 -0.4195  1.2684 -0.4403
  204MOL    H8741093   5.829   6.397   3.548 -0.5008  1.3947 -0.1726
  204MOL    H8841094   5.901   6.369   3.401  0.1188  0.4862  0.6150
  204MOL    H8941095   5.703   6.157   3.412 -0.0840 -0.9771  0.8541
  204MOL    H9041096   5.619   6.109   3.740  0.1588  0.8671 -0.1490
  204MOL    H9141097   5.593   6.072   3.573  1.4607 -0.4827 -1.5108
  204MOL    C9241098   5.905   6.117   3.398  0.2489  0.2918  0.2226
  204MOL    C9341099   5.907   6.118   3.240  0.0714 -0.2268 -0.0784
  204MOL    C9441100   5.782   6.064   3.166  0.3804 -0.1777 -0.5635
  204MOL    O9541101   5.699   6.144   3.127 -0.6250  0.0744  0.4737
  204MOL    N9641102   5.764   5.933   3.157  0.1527  0.4541 -0.4042
  204MOL    H9741103   5.906   6.015   3.436  0.9476  0.8749  1.8302
  204MOL    H9841104   6.004   6.154   3.428 -0.7066  0.3842  3.3970
  204MOL    H9941105   5.924   6.223   3.215 -0.6640  0.9738  4.1180
  204MOL   H10041106   5.685   5.898   3.104 -0.4693  0.5332  0.4516
  204MOL   H10141107   5.810   5.867   3.217 -0.5633  1.2255  1.0082
  204MOL   C10241108   6.027   6.042   3.196 -0.0993  0.0096  0.4735
  204MOL   C10341109   6.082   6.072   3.055  0.2742  0.1415  0.0957
  204MOL   C10441110   6.125   5.940   2.993 -0.4006  0.3985  0.1117
  204MOL   O10541111   6.236   5.896   3.005 -0.3448 -0.2657  0.1146
  204MOL   N10641112   6.027   5.870   2.931 -0.3820  0.3743  0.1700
  204MOL   H10741113   6.013   5.937   3.219  0.1972 -0.2978 -0.7015
  204MOL   H10841114   6.111   6.064   3.262  0.1222  1.6492 -0.3409
  204MOL   H10941115   5.994   6.109   3.003  0.7734 -1.4398 -1.9298
  204MOL   H11041116   5.934   5.909   2.920 -1.6935 -2.6110  0.2479
  204MOL   H11141117   6.055   5.783   2.889 -0.3804 -0.0372  1.0249
  204MOL   C11241118   6.193   6.186   3.053  0.1923  0.2027 -0.1456
  204MOL   C11341119   6.184   6.273   2.932  0.8990  0.5180 -0.7909
  204MOL   C11441120   6.324   6.308   2.890  0.2992 -0.4392  0.4588
  204MOL   O11541121   6.400   6.368   2.966  0.0945  0.9071 -0.0949
  204MOL   N11641122   6.372   6.268   2.774 -0.0864 -0.4459  0.3989
  204MOL   H11741123   6.287   6.131   3.059  0.9853  1.3258 -1.8980
  204MOL   H11841124   6.175   6.249   3.141 -2.6143 -2.3552  1.2146
  204MOL   H11941125   6.142   6.218   2.847 -2.5692 -0.1995  1.2999
  204MOL   H12041126   6.302   6.226   2.715  1.2152 -0.3615 -1.2607
  204MOL   H12141127   6.467   6.294   2.749 -0.8689  2.1900  0.0686
  204MOL   C12241128   6.103   6.401   2.967 -0.3215 -0.1300  0.3023
  204MOL   C12341129   6.027   6.466   2.850 -0.8167 -0.0770  0.4930
  204MOL   C12441130   5.973   6.606   2.884 -0.3707  0.4633  0.2406
  204MOL   O12541131   6.015   6.667   2.981 -0.4284 -0.1608  0.0485
  204MOL   N12641132   5.882   6.659   2.801 -0.3264 -0.2415 -0.2365
  204MOL   H12741133   6.182   6.462   3.011  0.1556  1.7433 -2.9878
  204MOL   H12841134   6.032   6.383   3.048 -1.0500 -0.4715 -0.4061
  204MOL   H12941135   6.087   6.479   2.760 -1.8597 -1.1495 -0.3673
  204MOL   H13041136   5.836   6.607   2.727 -1.1650 -0.2020  0.2467
  204MOL   H13141137   5.845   6.752   2.809  0.2061 -0.0331 -0.2240
  204MOL   C13241138   5.920   6.367   2.802  0.0326  0.2609 -0.3201
  204MOL   C13341139   5.931   6.319   2.654  0.1602  0.1483 -0.0791
  204MOL   C13441140   5.857   6.414   2.553 -0.5604  0.0852  0.0406
  204MOL   O13541141   5.768   6.494   2.590 -0.2832  0.3053  0.5385
  204MOL   N13641142   5.912   6.418   2.434  0.3463  0.4489  0.0407
  204MOL   H13741143   5.818   6.396   2.826 -0.2430  1.3513 -2.5771
  204MOL   H13841144   5.935   6.272   2.853  0.6325 -0.6249 -2.0965
  204MOL   H13941145   6.035   6.335   2.626  0.5914 -1.5849  0.4377
  204MOL   H14041146   5.986   6.355   2.407 -0.0659  0.1671 -0.4328
  204MOL   H14141147   5.881   6.481   2.362  3.2532 -0.0923 -1.7647
  204MOL   C14241148   5.893   6.176   2.619 -0.0759  0.7134  0.5709
  204MOL   C14341149   5.744   6.125   2.635 -0.3865 -0.6259  0.4334
  204MOL   C14441150   5.727   6.016   2.742  0.7506  0.0347  0.1451
  204MOL   O14541151   5.782   5.906   2.738  0.1607 -0.1279  0.0013
  204MOL   N14641152   5.639   6.050   2.840  0.8956  0.0720 -0.4736
  204MOL   H14741153   5.967   6.109   2.666 -1.6813 -2.1502 -0.8330
  204MOL   H14841154   5.921   6.166   2.514 -1.3674 -5.8723  0.5935
  204MOL   H14941155   5.696   6.212   2.680 -0.2964 -1.0511  1.3474
  204MOL   H15041156   5.602   6.144   2.842 -1.4926 -0.8560 -0.0950
  204MOL   H15141157   5.628   5.992   2.923  1.4365 -0.4369 -0.7556
  204MOL   C15241158   5.671   6.096   2.505  0.1252 -0.1742 -0.1400
  204MOL   C15341159   5.520   6.095   2.517  0.1672  0.0505 -0.2639
  204MOL   C15441160   5.467   6.019   2.392 -0.3548 -0.1038  0.0053
  204MOL   O15541161   5.495   6.066   2.282  0.5531 -0.0216  0.2888
  204MOL   N15641162   5.391   5.912   2.404  0.1090  0.0647  0.5175
  204MOL   H15741163   5.691   6.000   2.457 -1.2201 -1.2534  1.3882
  204MOL   H15841164   5.698   6.172   2.432 -1.0474  1.8306  1.4667
  204MOL   H15941165   5.491   6.037   2.605  2.4481 -0.0135  0.4880
  204MOL   H16041166   5.370   5.882   2.498 -2.5009 -1.6199 -0.5425
  204MOL   H16141167   5.338   5.875   2.327 -1.4124 -1.9598  2.4645
  204MOL   C16241168   5.451   6.232   2.515 -0.5399  0.1445  0.2921
  204MOL   C16341169   5.305   6.249   2.561  0.0768  0.6315 -0.6527
  204MOL   C16441170   5.264   6.163   2.684  0.8985 -0.1551  0.0561
  204MOL   O16541171   5.151   6.112   2.687 -0.3287  0.2752  0.5369
  204MOL   N16641172   5.341   6.158   2.793 -0.6016  0.0967  0.8382
  204MOL   H16741173   5.472   6.277   2.418 -1.5494 -0.5224 -0.2401
  204MOL   H16841174   5.512   6.293   2.582 -1.6701 -0.4093  1.8555
  204MOL   H16941175   5.289   6.351   2.595  0.7069  0.7125 -0.5906
  204MOL   H17041176   5.423   6.217   2.805 -0.7548  0.0776  2.0569
  204MOL   H17141177   5.302   6.109   2.872  3.4084 -3.6445  0.6894
  204MOL   C17241178   5.210   6.241   2.441  0.2658 -0.4963 -0.0208
  204MOL   C17341179   5.068   6.313   2.474 -0.7813 -0.5684 -0.0660
  204MOL   C17441180   4.954   6.230   2.411 -0.8592  0.2838  0.0358
  204MOL   O17541181   4.923   6.230   2.292 -0.5996 -0.2900 -0.0904
  204MOL   N17641182   4.890   6.152   2.495 -0.2520  0.7741  0.1973
  204MOL   H17741183   5.195   6.138   2.409  0.3453 -0.5731  0.1838
  204MOL   H17841184   5.255   6.283   2.351  4.6854  0.7160  2.6137
  204MOL   H17941185   5.053   6.317   2.582 -0.2682  0.4583 -0.0309
  204MOL   H18041186   4.816   6.091   2.463  1.0178  0.4527 -2.2757
  204MOL   H18141187   4.921   6.148   2.591  2.0791 -1.6408 -0.5941
  204MOL   C18241188   5.069   6.466   2.418 -0.7060  0.1750  0.0527
  204MOL   C18341189   4.975   6.577   2.483 -0.1100  0.0082 -0.3527
  204MOL   C18441190   5.025   6.610   2.622  0.1536 -0.3653 -0.3578
  204MOL   O18541191   5.055   6.525   2.708  0.4934 -0.2138  0.0360
  204MOL   N18641192   5.067   6.734   2.652  0.0718 -0.3981  0.3984
  204MOL   H18741193   5.030   6.475   2.316  0.3411  2.4545 -0.1832
  204MOL   H18841194   5.171   6.505   2.410 -0.7621  0.1209 -1.1769
  204MOL   H18941195   4.988   6.666   2.422  0.2657  0.0321 -0.2377
  204MOL   H19041196   5.086   6.745   2.750  0.3702 -0.8703  0.3956
  204MOL   H19141197   5.028   6.812   2.601 -0.6725 -0.6743  0.5486
  204MOL   C19241198   4.830   6.520   2.490  0.6660  0.6144  0.0925
  204MOL   C19341199   4.711   6.622   2.489  0.3155 -0.2554  0.7279
  204MOL   C19441200   4.697   6.718   2.604  0.0949  0.6592  0.0747
  204MOL   O19541201   4.741   6.688   2.718 -0.1373  0.6597  0.3376
  204MOL   N19641202   4.648   6.840   2.570  0.4783  0.3747 -0.3847
  204MOL   H19741203   4.803   6.464   2.579 -0.8759  1.6927  0.3373
  204MOL   H19841204   4.820   6.440   2.416 -1.5593 -0.7804  1.8224
  204MOL   H19941205   4.719   6.684   2.399 -0.6316 -0.7183  0.3108
  204MOL   H20041206   4.625   6.870   2.477  2.1818  2.4839 -0.1481
  204MOL   H20141207   4.649   6.907   2.646  0.4145 -0.8696  0.7429
  204MOL   H20241208   4.613   6.577   2.474  1.1308 -0.9229 -3.1135
  205MOL     C141209   6.263   2.976   3.777  0.0487 -0.2598  0.5432
  205MOL     C241210   6.137   2.918   3.841 -0.7542  0.1869  0.2616
  205MOL     C341211   6.007   2.969   3.771 -0.0187 -0.0476 -0.1548
  205MOL     O441212   5.994   3.084   3.730  0.3074  0.4238  0.3601
  205MOL     N541213   5.906   2.883   3.761 -0.0903 -0.3897 -0.1690
  205MOL     H641214   6.352   2.964   3.839  0.6724  2.5160  0.2544
  205MOL     H741215   6.282   2.936   3.677  0.8319  0.7475  0.2731
  205MOL     H841216   6.144   2.814   3.812  0.5282  0.3517 -0.0626
  205MOL     H941217   5.926   2.785   3.773 -0.8141 -0.4928  0.2468
  205MOL    H1041218   5.818   2.925   3.732 -0.9327 -1.6353  0.5301
  205MOL    H1141219   6.261   3.085   3.767  3.4601 -0.2415 -1.0253
  205MOL    C1241220   6.145   2.946   3.994 -0.0805  0.3178 -0.4944
  205MOL    C1341221   6.037   2.876   4.078 -0.2852 -0.4286 -0.2237
  205MOL    C1441222   6.025   2.952   4.219  1.0530 -0.1157 -0.4032
  205MOL    O1541223   6.054   2.894   4.322  0.3047 -0.2660  0.3741
  205MOL    N1641224   5.963   3.071   4.223  1.0021 -0.6278  0.2852
  205MOL    H1741225   6.144   3.052   4.016 -1.5524 -0.1378  1.8296
  205MOL    H1841226   6.238   2.895   4.020 -0.3099 -0.1750 -0.6327
  205MOL    H1941227   5.944   2.891   4.023 -2.0569  0.0162  2.7727
  205MOL    H2041228   5.915   3.115   4.145 -3.1348 -2.4117  1.6902
  205MOL    H2141229   5.950   3.110   4.315  1.4200  2.2588 -0.8424
  205MOL    C2241230   6.067   2.727   4.079  0.0191  0.1338  0.1929
  205MOL    C2341231   5.943   2.633   4.084 -0.3200 -0.3969 -0.3151
  205MOL    C2441232   5.887   2.639   4.224 -0.6069  0.1715 -0.6627
  205MOL    O2541233   5.954   2.603   4.322  0.3293  0.9202  0.1922
  205MOL    N2641234   5.768   2.689   4.235 -0.0270  0.4957 -0.4729
  205MOL    H2741235   6.152   2.696   4.140  0.0817 -0.2413 -0.0803
  205MOL    H2841236   6.111   2.707   3.981 -0.2341 -2.8393  0.6261
  205MOL    H2941237   5.875   2.681   4.012  0.3784 -1.1391 -1.4885
  205MOL    H3041238   5.735   2.690   4.330  1.2909  1.9850  0.0010
  205MOL    H3141239   5.719   2.730   4.156  1.1215  1.4259 -0.7197
  205MOL    C3241240   5.976   2.494   4.045  0.4977  0.0648 -0.5277
  205MOL    C3341241   5.904   2.442   3.924 -0.4811  0.4361  0.0268
  205MOL    C3441242   5.938   2.530   3.800 -0.0045  0.1497  0.3018
  205MOL    O3541243   5.849   2.591   3.734  0.6937  0.1617  0.4909
  205MOL    N3641244   6.067   2.523   3.760 -0.8673 -0.5141 -0.0800
  205MOL    H3741245   5.964   2.417   4.122  0.9363 -0.9942 -1.4978
  205MOL    H3841246   6.085   2.486   4.042  0.4900 -0.4508  0.2745
  205MOL    H3941247   5.950   2.349   3.891 -1.8919 -0.8178  1.5225
  205MOL    H4041248   6.089   2.567   3.673 -2.1900 -1.1595 -0.7613
  205MOL    H4141249   6.145   2.488   3.814 -1.0705 -0.7497  0.0628
  205MOL    C4241250   5.750   2.426   3.941  0.0813 -0.0215  0.0511
  205MOL    C4341251   5.702   2.340   4.059  0.0403  0.4575 -0.5741
  205MOL    C4441252   5.737   2.188   4.034  0.0869 -0.1269  0.5478
  205MOL    O4541253   5.733   2.106   4.123 -0.1187  0.3674  0.2818
  205MOL    N4641254   5.764   2.145   3.913  0.2581  0.1893 -0.1878
  205MOL    H4741255   5.709   2.377   3.853  2.8261 -2.0276 -0.1817
  205MOL    H4841256   5.709   2.527   3.951 -0.1986 -0.1203 -0.1057
  205MOL    H4941257   5.759   2.372   4.147 -0.7138  1.7338 -0.5413
  205MOL    H5041258   5.803   2.052   3.905  1.6642  0.7763 -0.2624
  205MOL    H5141259   5.750   2.201   3.830 -1.5774 -0.0020 -0.0438
  205MOL    C5241260   5.551   2.352   4.098 -0.0447 -0.6763 -0.1063
  205MOL    C5341261   5.511   2.348   4.249  1.0177 -0.1985 -0.3796
  205MOL    C5441262   5.358   2.330   4.261  0.3190  0.2408 -0.6456
  205MOL    O5541263   5.282   2.417   4.230 -0.3223  0.2210 -0.0131
  205MOL    N5641264   5.315   2.214   4.318 -0.0221  0.7000  0.4496
  205MOL    H5741265   5.494   2.274   4.048 -1.3851  0.3787 -0.2329
  205MOL    H5841266   5.510   2.447   4.067 -0.2923  0.0132  2.2315
  205MOL    H5941267   5.550   2.260   4.300  0.1256 -0.7513 -0.6318
  205MOL    H6041268   5.217   2.188   4.323  0.5017 -1.1719  1.8791
  205MOL    H6141269   5.384   2.148   4.351  1.5949 -0.4376 -4.8217
  205MOL    C6241270   5.567   2.470   4.321 -0.6228 -0.3472  0.2825
  205MOL    C6341271   5.515   2.496   4.458 -0.4648  0.4105 -0.4920
  205MOL    C6441272   5.574   2.632   4.510 -0.1960 -0.2123  0.8207
  205MOL    O6541273   5.688   2.665   4.480 -0.0294  0.3119  0.3868
  205MOL    N6641274   5.490   2.718   4.571 -0.2301 -0.4318  0.5932
  205MOL    H6741275   5.541   2.556   4.259  1.0169  2.1257  2.9336
  205MOL    H6841276   5.675   2.458   4.318 -0.8395 -2.7464  0.9284
  205MOL    H6941277   5.407   2.501   4.444 -0.2036  3.9825 -1.6890
  205MOL    H7041278   5.525   2.800   4.620  1.4180  0.5434 -2.1038
  205MOL    H7141279   5.392   2.697   4.573 -0.3375 -0.1739 -1.0369
  205MOL    C7241280   5.529   2.377   4.564  0.3819  0.2408  0.2033
  205MOL    C7341281   5.684   2.336   4.581 -0.5093  0.1081 -0.3230
  205MOL    C7441282   5.710   2.200   4.527 -0.4550  0.5948 -0.2175
  205MOL    O7541283   5.628   2.107   4.551 -0.0188  0.4182 -0.1420
  205MOL    N7641284   5.823   2.189   4.456 -0.2189  0.5314  0.0041
  205MOL    H7741285   5.475   2.292   4.524  0.0288  0.8770 -0.6698
  205MOL    H7841286   5.484   2.410   4.658  0.2529 -1.6628  0.8370
  205MOL    H7941287   5.728   2.421   4.529 -1.3793  1.5817  1.2876
  205MOL    H8041288   5.843   2.104   4.405  0.2090  0.1401  0.8250
  205MOL    H8141289   5.890   2.263   4.465  0.9176 -0.5176  0.2545
  205MOL    C8241290   5.743   2.366   4.720 -0.5561  0.3884  0.4372
  205MOL    C8341291   5.890   2.423   4.721 -0.6555 -0.4242  0.6287
  205MOL    C8441292   5.997   2.312   4.710 -0.0243  0.4043 -0.0114
  205MOL    O8541293   6.058   2.300   4.604  0.5525 -0.8370 -0.0407
  205MOL    N8641294   6.034   2.238   4.817  0.5216 -0.0028  0.1309
  205MOL    H8741295   5.727   2.278   4.783  1.0865  0.4731  0.9844
  205MOL    H8841296   5.668   2.435   4.758 -2.0722 -0.0952 -1.5822
  205MOL    H8941297   5.910   2.488   4.636 -1.4367 -0.3158  0.5283
  205MOL    H9041298   5.990   2.266   4.903  0.9944 -1.2555  0.8014
  205MOL    H9141299   6.108   2.170   4.810  0.9333  0.4478  0.1413
  205MOL    C9241300   5.911   2.504   4.846 -0.7899 -0.5177 -0.0951
  205MOL    C9341301   5.880   2.655   4.830 -0.2488 -0.5336  0.2088
  205MOL    C9441302   5.990   2.733   4.747 -0.2273 -0.8378 -0.0508
  205MOL    O9541303   6.091   2.783   4.802  0.4180  0.3875 -0.1727
  205MOL    N9641304   5.959   2.758   4.623 -0.3140 -0.0201 -0.3891
  205MOL    H9741305   6.015   2.499   4.879 -0.0116  1.0231 -2.2030
  205MOL    H9841306   5.855   2.463   4.931  0.5584 -1.5974  0.2936
  205MOL    H9941307   5.791   2.664   4.768 -0.2165 -1.3654  0.0368
  205MOL   H10041308   6.030   2.803   4.566 -0.3938 -0.1942 -0.6273
  205MOL   H10141309   5.893   2.700   4.574 -2.4462  2.5689 -0.6945
  205MOL   C10241310   5.847   2.730   4.960 -0.2277  0.0232 -0.1598
  205MOL   C10341311   5.939   2.710   5.087  0.8836 -0.3089 -0.1861
  205MOL   C10441312   5.910   2.580   5.170  0.7348 -0.3128  0.4885
  205MOL   O10541313   5.811   2.575   5.249  0.2480  0.7176 -0.6379
  205MOL   N10641314   5.981   2.472   5.158 -0.2562 -0.1435  0.0829
  205MOL   H10741315   5.742   2.715   4.986 -0.8999  1.4488 -1.8810
  205MOL   H10841316   5.833   2.833   4.926 -2.7698 -0.5869 -1.1252
  205MOL   H10941317   6.044   2.704   5.058  1.5663 -0.5776  2.1967
  205MOL   H11041318   6.062   2.461   5.099 -0.5513 -0.1201 -0.3268
  205MOL   H11141319   5.960   2.391   5.216  0.2480 -0.6289 -0.4039
  205MOL   C11241320   5.927   2.830   5.183 -0.0879  0.2392 -0.6414
  205MOL   C11341321   6.046   2.860   5.271 -0.3459  0.1260 -0.5341
  205MOL   C11441322   5.998   2.886   5.418 -0.1901  0.5213  0.0708
  205MOL   O11541323   6.008   2.794   5.498 -0.2147 -0.2546 -0.4530
  205MOL   N11641324   5.956   3.005   5.452 -0.3199  0.4066  0.5383
  205MOL   H11741325   5.838   2.813   5.243 -0.8038 -2.1410 -2.2520
  205MOL   H11841326   5.896   2.915   5.123  1.0151 -0.3930 -2.1607
  205MOL   H11941327   6.108   2.771   5.278 -0.1308  0.2095 -1.3948
  205MOL   H12041328   5.939   3.071   5.378 -0.8659  2.0634  2.1034
  205MOL   H12141329   5.920   3.019   5.546 -1.5175 -0.1946  0.1865
  205MOL   C12241330   6.135   2.975   5.221 -0.8856 -0.3562 -0.7125
  205MOL   C12341331   6.211   2.948   5.092 -0.3978 -0.0166  0.0771
  205MOL   C12441332   6.303   2.824   5.096 -0.4396  0.8613  0.4419
  205MOL   O12541333   6.366   2.793   5.196  0.0184 -0.3575 -0.0540
  205MOL   N12641334   6.302   2.748   4.987  0.0708  0.1557 -1.2145
  205MOL   H12741335   6.209   3.000   5.297 -3.0187 -0.7876  1.6230
  205MOL   H12841336   6.068   3.061   5.219 -1.0401 -0.4233  0.7886
  205MOL   H12941337   6.130   2.934   5.020  1.0154 -1.0018 -1.3659
  205MOL   H13041338   6.246   2.787   4.912 -2.1300  1.0796  0.8429
  205MOL   H13141339   6.370   2.676   4.969 -0.4943 -0.6192 -0.2749
  205MOL   C13241340   6.286   3.081   5.058 -0.1188  0.4468  0.4904
  205MOL   C13341341   6.314   3.093   4.904  0.0038  0.6967 -0.8312
  205MOL   C13441342   6.448   3.165   4.876  0.2165  0.3402 -0.1110
  205MOL   O13541343   6.485   3.268   4.929 -0.2825 -0.1543 -0.0611
  205MOL   N13641344   6.527   3.085   4.808  0.0194 -0.4607  0.0252
  205MOL   H13741345   6.384   3.059   5.099 -0.2631 -0.9534  0.1436
  205MOL   H13841346   6.246   3.169   5.107  0.1413  0.9820 -0.2552
  205MOL   H13941347   6.314   2.994   4.859 -0.4364 -0.0106  0.6828
  205MOL   H14041348   6.504   3.007   4.749 -1.7850 -0.1049  0.2121
  205MOL   H14141349   6.623   3.115   4.803  1.2501 -3.9753  0.7970
  205MOL   C14241350   6.190   3.150   4.826  0.3459  0.7596  0.0041
  205MOL   C14341351   6.134   3.283   4.866 -0.3361  0.0405  0.5224
  205MOL   C14441352   6.009   3.258   4.963  0.0774  0.1838  0.4298
  205MOL   O14541353   5.925   3.169   4.944 -0.2453  0.3030 -0.1290
  205MOL   N14641354   6.002   3.334   5.069  0.5732 -0.2835  0.2364
  205MOL   H14741355   6.115   3.072   4.828 -0.9373  1.9986  2.2567
  205MOL   H14841356   6.220   3.151   4.721  0.2599 -2.0423 -0.0735
  205MOL   H14941357   6.213   3.329   4.924 -1.5566  1.2021  1.2969
  205MOL   H15041358   6.069   3.408   5.074 -0.4203  0.9239 -2.9401
  205MOL   H15141359   5.923   3.325   5.131  0.8719  0.3587  0.7037
  205MOL   C15241360   6.088   3.382   4.757  1.0059  0.3092  0.2698
  205MOL   C15341361   5.983   3.314   4.655  0.3194 -0.4023  0.0675
  205MOL   C15441362   6.031   3.347   4.507 -0.1457 -0.4934 -0.1630
  205MOL   O15541363   6.082   3.256   4.445 -0.2336  0.2555  0.0146
  205MOL   N15641364   6.008   3.465   4.453 -0.7098 -0.0348 -0.0470
  205MOL   H15741365   6.177   3.430   4.715  0.8758 -1.6443 -2.3479
  205MOL   H15841366   6.048   3.470   4.807  1.6545  1.4051 -1.0925
  205MOL   H15941367   5.976   3.205   4.662  0.2144 -0.4402 -0.5472
  205MOL   H16041368   5.962   3.537   4.507  1.1798  0.1012  1.4132
  205MOL   H16141369   6.015   3.488   4.355 -0.9189 -0.0019 -0.0553
  205MOL   C16241370   5.833   3.370   4.697 -0.2487 -0.3904  0.5937
  205MOL   C16341371   5.718   3.329   4.596  0.3600 -0.8655  0.5349
  205MOL   C16441372   5.675   3.441   4.497  0.7216 -0.1974 -0.5254
  205MOL   O16541373   5.614   3.542   4.538  0.0627  0.5801 -0.7344
  205MOL   N16641374   5.704   3.429   4.371 -0.1885  0.3796  0.4149
  205MOL   H16741375   5.840   3.475   4.724  1.7546  0.1340 -1.7793
  205MOL   H16841376   5.799   3.339   4.795 -0.1346 -0.3108  0.6581
  205MOL   H16941377   5.758   3.251   4.532 -1.1816 -1.4952  0.3203
  205MOL   H17041378   5.767   3.353   4.347  1.4186  1.6826  0.4444
  205MOL   H17141379   5.665   3.498   4.309 -1.8125 -0.9701 -0.1164
  205MOL   C17241380   5.591   3.262   4.650  0.6812  0.3702 -0.2934
  205MOL   C17341381   5.600   3.158   4.764  0.3464 -0.4437  0.4906
  205MOL   C17441382   5.685   3.034   4.709  0.1109  0.5951 -0.1106
  205MOL   O17541383   5.636   2.967   4.618  0.3474 -0.3049  0.2839
  205MOL   N17641384   5.808   3.014   4.753 -0.2994  0.1900 -0.4241
  205MOL   H17741385   5.547   3.202   4.569  0.8221 -1.6199  1.0698
  205MOL   H17841386   5.526   3.346   4.675  1.1403  0.9684 -1.0909
  205MOL   H17941387   5.653   3.201   4.849  0.5621  0.4750 -0.1044
  205MOL   H18041388   5.854   2.934   4.712  1.1798  0.5679  0.4894
  205MOL   H18141389   5.851   3.072   4.823  2.3847  0.6348 -2.3839
  205MOL   C18241390   5.461   3.118   4.815 -0.1957  0.5801  0.1387
  205MOL   C18341391   5.451   3.050   4.955  0.1650  0.3153  0.2073
  205MOL   C18441392   5.528   2.914   4.972  0.8387  0.8629  0.1949
  205MOL   O18541393   5.509   2.813   4.910 -0.3546 -0.2382  0.0932
  205MOL   N18641394   5.606   2.914   5.076  0.0350  0.3912  0.4635
  205MOL   H18741395   5.416   3.050   4.742  0.2682 -1.7018  1.9296
  205MOL   H18841396   5.390   3.200   4.806 -1.7454 -0.5921  1.3779
  205MOL   H18941397   5.507   3.118   5.019  1.2147  1.4926 -1.8808
  205MOL   H19041398   5.624   2.999   5.127  2.2123  0.2979 -0.1291
  205MOL   H19141399   5.655   2.832   5.108  0.4351  0.5336  0.2201
  205MOL   C19241400   5.316   3.020   4.995 -0.8803  0.3134  0.0302
  205MOL   C19341401   5.291   3.044   5.151 -0.2409 -0.3123 -0.0665
  205MOL   C19441402   5.289   3.197   5.188  0.2747  0.0642  0.3257
  205MOL   O19541403   5.321   3.285   5.108  0.2524  0.1622  0.4146
  205MOL   N19641404   5.259   3.224   5.312  0.1704  0.1760 -0.3709
  205MOL   H19741405   5.289   2.920   4.960 -1.0004  0.6590 -0.8900
  205MOL   H19841406   5.246   3.084   4.941 -0.9801  0.4057  0.2645
  205MOL   H19941407   5.197   2.992   5.171  0.5054 -1.6185  0.1296
  205MOL   H20041408   5.237   3.151   5.378 -1.3700  0.4554 -0.5534
  205MOL   H20141409   5.257   3.319   5.347 -2.1580 -0.0045  0.0446
  205MOL   H20241410   5.363   2.981   5.204  0.5817  1.6109  1.1372
  206MOL     C141411   1.193   7.266   2.312  0.2842  0.0712  0.0363
  206MOL     C241412   1.210   7.410   2.358 -0.3490  0.0649  0.0012
  206MOL     C341413   1.193   7.421   2.508  0.0697  0.9037  0.2822
  206MOL     O441414   1.091   7.463   2.571 -0.6307 -0.2474 -0.0309
  206MOL     N541415   1.306   7.400   2.581  0.2100  0.1749  0.3727
  206MOL     H641416   1.104   7.231   2.364  0.7986 -0.7302  0.3858
  206MOL     H741417   1.162   7.263   2.208 -0.8303  0.6260  0.3468
  206MOL     H841418   1.312   7.434   2.328 -0.1788 -0.3555  0.2410
  206MOL     H941419   1.393   7.389   2.532 -0.9683 -0.8197 -1.5780
  206MOL    H1041420   1.298   7.403   2.682 -1.8110 -1.3000  0.3060
  206MOL    H1141421   1.280   7.205   2.334 -0.4683 -1.1593 -0.3916
  206MOL    C1241422   1.113   7.505   2.283  0.1393 -0.1034 -0.5248
  206MOL    C1341423   1.143   7.656   2.291 -0.0773  0.2938 -0.4940
  206MOL    C1441424   1.045   0.088   2.371 -0.0173  0.0757  0.0881
  206MOL    O1541425   0.921   0.075   2.364 -0.2865 -0.2941  0.1275
  206MOL    N1641426   1.098   0.186   2.443  0.2018 -0.5892  0.0149
  206MOL    H1741427   1.013   7.492   2.323  0.2834 -0.2436 -0.2070
  206MOL    H1841428   1.092   7.471   2.182  0.3606  0.7957 -0.8800
  206MOL    H1941429   1.242   0.009   2.335  0.2636 -1.3790 -0.8621
  206MOL    H2041430   1.198   0.197   2.441  0.1996 -0.5115  0.3960
  206MOL    H2141431   1.041   0.250   2.497  0.2133  0.2771 -0.9846
  206MOL    C2241432   1.152   0.050   2.141  0.4531  0.2146 -0.2360
  206MOL    C2341433   1.294   0.076   2.078 -0.4329 -0.6586 -0.7168
  206MOL    C2441434   1.367   0.200   2.140  0.3310  0.6991 -0.2753
  206MOL    O2541435   1.380   0.213   2.257 -0.0896  0.8348 -0.0236
  206MOL    N2641436   1.420   0.289   2.065 -0.3474  0.5800  1.0925
  206MOL    H2741437   1.100   0.145   2.131  0.3654  0.2006  0.0714
  206MOL    H2841438   1.097   7.639   2.077  1.7241 -0.0099 -1.1118
  206MOL    H2941439   1.358   7.649   2.108 -2.3798 -1.6305  0.8000
  206MOL    H3041440   1.482   0.354   2.112  0.7833  0.0631  0.3609
  206MOL    H3141441   1.417   0.286   1.964 -1.3331 -1.7993  1.1583
  206MOL    C3241442   1.306   0.054   1.922 -0.2094 -0.4091  0.0280
  206MOL    C3341443   1.225   0.145   1.827 -0.3177  0.0030 -0.6971
  206MOL    C3441444   1.077   0.113   1.827 -1.1573 -0.0407 -0.7418
  206MOL    O3541445   1.044   0.005   1.795 -0.4414 -0.5286 -0.3939
  206MOL    N3641446   0.988   0.195   1.889 -0.5852  0.7559  0.6568
  206MOL    H3741447   1.285   7.604   1.911 -2.1462  0.0327 -0.8957
  206MOL    H3841448   1.407   0.060   1.881 -0.0062 -0.2321  0.5503
  206MOL    H3941449   1.247   0.244   1.865 -0.0922  0.1550 -1.2263
  206MOL    H4041450   0.894   0.159   1.890  0.5522 -2.3831  0.1604
  206MOL    H4141451   1.015   0.283   1.932  0.2587  0.7301  0.1777
  206MOL    C4241452   1.276   0.140   1.678  0.2116  0.7557  0.1629
  206MOL    C4341453   1.266   0.019   1.573  0.1956 -0.0938  0.5534
  206MOL    C4441454   1.331   7.554   1.630  0.6354  0.1825  0.6335
  206MOL    O4541455   1.455   7.549   1.629  0.0432  0.1113 -0.1350
  206MOL    N4641456   1.251   7.455   1.669 -0.3407 -0.5678  0.8447
  206MOL    H4741457   1.380   0.173   1.682 -0.1232  1.9721 -0.9416
  206MOL    H4841458   1.220   0.215   1.622  0.9751  0.8396 -0.5033
  206MOL    H4941459   1.160   0.001   1.558  0.1421  0.8749 -0.3239
  206MOL    H5041460   1.151   7.472   1.671 -0.0286  1.5374 -0.6412
  206MOL    H5141461   1.284   7.366   1.704  0.3528 -0.2895  0.9073
  206MOL    C5241462   1.326   0.043   1.432  0.7074 -0.3468  0.1982
  206MOL    C5341463   1.242   7.639   1.304 -0.2312  0.5127 -0.8626
  206MOL    C5441464   1.111   0.061   1.280  0.1759 -0.4805  0.6574
  206MOL    O5541465   1.012   0.049   1.353  0.3477  0.2566  0.4609
  206MOL    N5641466   1.100   0.140   1.172 -0.0985  0.0560 -0.3134
  206MOL    H5741467   1.432   0.019   1.435  1.1182  1.4758  1.3274
  206MOL    H5841468   1.321   0.147   1.399 -0.9578  0.6095  3.1583
  206MOL    H5941469   1.297   7.655   1.212  0.0174  1.6543 -0.5281
  206MOL    H6041470   1.182   0.178   1.127  0.4800 -0.0694  0.6040
  206MOL    H6141471   1.015   0.192   1.161 -0.3877  0.1215  2.0288
  206MOL    C6241472   1.206   7.487   1.304  0.3585 -0.4386  0.5581
  206MOL    C6341473   1.334   7.397   1.284  0.7894 -0.0465 -0.5061
  206MOL    C6441474   1.385   7.396   1.136  1.0205  0.3389  0.1142
  206MOL    O6541475   1.316   7.443   1.047 -0.0204 -0.2214 -0.0965
  206MOL    N6641476   1.495   7.333   1.107 -0.3905 -0.3286 -0.3002
  206MOL    H6741477   1.135   7.465   1.225  0.9342  0.0537 -0.1018
  206MOL    H6841478   1.152   7.470   1.398 -0.2031  0.6142  0.4350
  206MOL    H6941479   1.406   7.444   1.351 -0.9737  1.1139  0.6472
  206MOL    H7041480   1.560   7.311   1.180 -1.1080  2.6615  1.3270
  206MOL    H7141481   1.518   7.332   1.008 -3.9095  0.0197 -1.1944
  206MOL    C7241482   1.298   7.263   1.339 -0.0697 -0.0806  0.3543
  206MOL    C7341483   1.411   7.167   1.377  0.3693  0.1715 -0.3054
  206MOL    C7441484   1.350   7.030   1.399  0.1132  0.6456 -0.2087
  206MOL    O7541485   1.232   7.020   1.432  0.1182 -0.5947  0.1877
  206MOL    N7641486   1.425   6.923   1.363  0.3938  0.4793 -0.1415
  206MOL    H7741487   1.218   7.216   1.282 -0.0353  0.9755 -0.5887
  206MOL    H7841488   1.245   7.285   1.432  0.6463  1.4411  0.4257
  206MOL    H7941489   1.483   7.141   1.299 -1.2015 -0.3604 -1.6360
  206MOL    H8041490   1.393   6.830   1.386 -1.2125  1.2822  0.9393
  206MOL    H8141491   1.519   6.943   1.332  1.5166 -1.6689  1.7567
  206MOL    C8241492   1.482   7.216   1.509 -0.4312  0.0558 -0.1436
  206MOL    C8341493   1.633   7.238   1.511  0.1566  0.4328 -0.2223
  206MOL    C8441494   1.668   7.352   1.409  0.0870 -0.1877  1.2990
  206MOL    O8541495   1.696   7.323   1.290  0.1345 -0.1534 -0.2383
  206MOL    N8641496   1.678   7.481   1.450 -0.1043 -0.2483  0.3099
  206MOL    H8741497   1.458   7.160   1.599  0.9961  0.5090  0.5351
  206MOL    H8841498   1.440   7.315   1.523  0.8063  1.0722 -3.2364
  206MOL    H8941499   1.660   7.281   1.607 -0.5625  1.9068 -0.6625
  206MOL    H9041500   1.695   7.555   1.383 -0.3054 -1.1142 -0.6929
  206MOL    H9141501   1.642   7.505   1.541 -2.0237  0.4213 -0.6119
  206MOL    C9241502   1.712   7.107   1.504 -0.0952  0.3393  1.1254
  206MOL    C9341503   1.856   7.114   1.559 -0.4119  0.5410  0.9960
  206MOL    C9441504   1.950   7.026   1.465 -0.2477 -0.3956 -0.0862
  206MOL    O9541505   1.920   6.920   1.425 -0.5203 -0.4261 -0.1040
  206MOL    N9641506   2.067   7.082   1.435 -0.0005  0.2660  0.1116
  206MOL    H9741507   1.707   7.083   1.398 -0.0813 -1.6636  1.5679
  206MOL    H9841508   1.665   7.023   1.555 -0.6130  0.3353  0.6562
  206MOL    H9941509   1.905   7.211   1.551  0.6631 -0.0852 -0.3249
  206MOL   H10041510   2.097   7.172   1.471 -0.2660  0.5002 -0.2426
  206MOL   H10141511   2.120   7.049   1.356 -2.3541 -0.2185 -1.3082
  206MOL   C10241512   1.862   7.062   1.706 -0.7133 -0.2388  0.5436
  206MOL   C10341513   1.999   7.092   1.779  0.0819 -0.4914 -0.0601
  206MOL   C10441514   2.074   6.958   1.813  0.7442 -0.0002  0.0963
  206MOL   O10541515   2.088   6.919   1.926 -0.4706 -0.2685 -0.8124
  206MOL   N10641516   2.129   6.887   1.714  0.4308 -0.5022 -0.1847
  206MOL   H10741517   1.846   6.954   1.710  1.0375 -0.6223 -1.4182
  206MOL   H10841518   1.787   7.125   1.752  0.4229  2.9855 -1.8545
  206MOL   H10941519   2.068   7.136   1.707  0.3259 -0.1975  0.3567
  206MOL   H11041520   2.179   6.800   1.728 -1.2089 -2.0372 -3.4201
  206MOL   H11141521   2.097   6.899   1.619 -0.1381 -1.0426 -0.0635
  206MOL   C11241522   1.985   7.190   1.900  0.1212  0.7494 -0.0369
  206MOL   C11341523   1.960   7.338   1.861  0.3552 -0.1573  0.0243
  206MOL   C11441524   2.072   7.414   1.799  0.0972 -0.0760  0.6063
  206MOL   O11541525   2.193   7.388   1.816  0.4763 -0.3373 -0.2617
  206MOL   N11641526   2.033   7.508   1.715  0.0445 -0.0115  0.1737
  206MOL   H11741527   2.073   7.171   1.961  1.2479  1.5889 -1.3786
  206MOL   H11841528   1.909   7.149   1.966 -0.5382  0.4729 -0.9505
  206MOL   H11941529   1.871   7.336   1.798 -0.7647 -1.9952  1.6102
  206MOL   H12041530   1.932   7.513   1.705 -0.0430  0.1436  1.0836
  206MOL   H12141531   2.097   7.570   1.669  1.9910 -1.5512  0.7447
  206MOL   C12241532   1.927   7.421   1.990 -0.1897  0.0848  0.4254
  206MOL   C12341533   1.786   7.394   2.051  0.2499 -0.1857  0.3184
  206MOL   C12441534   1.680   7.476   1.972  0.7133  0.2095  0.3170
  206MOL   O12541535   1.648   7.594   2.004 -0.0483  0.1243 -0.2405
  206MOL   N12641536   1.641   7.423   1.856  0.4789 -0.5462 -0.0668
  206MOL   H12741537   1.941   7.527   1.969  1.6729 -0.0890  0.7244
  206MOL   H12841538   1.998   7.389   2.066 -0.2844  0.8011  0.8113
  206MOL   H12941539   1.771   7.287   2.036  0.8986 -0.3161  0.6112
  206MOL   H13041540   1.588   7.478   1.790  0.8098 -1.0784 -0.7804
  206MOL   H13141541   1.654   7.324   1.841  2.8798  0.1839 -3.2536
  206MOL   C13241542   1.783   7.426   2.200 -0.1770  0.4830 -0.3359
  206MOL   C13341543   1.651   7.371   2.264 -0.2254  0.8627  0.2806
  206MOL   C13441544   1.567   7.472   2.347  0.2001  0.2123  0.8007
  206MOL   O13541545   1.528   7.448   2.462 -0.0222 -0.7108 -0.0432
  206MOL   N13641546   1.549   7.588   2.284  1.0479  0.2027  0.1249
  206MOL   H13741547   1.793   7.531   2.227  0.3971  0.5593 -0.8252
  206MOL   H13841548   1.865   7.380   2.256  1.1734  2.6865 -0.4225
  206MOL   H13941549   1.589   7.356   2.176  2.1444  2.1240 -1.6931
  206MOL   H14041550   1.534   0.018   2.334 -1.0908  0.7312 -1.3545
  206MOL   H14141551   1.586   7.587   2.190  0.4089  1.0736 -0.1443
  206MOL   C14241552   1.669   7.235   2.334  0.7046 -0.1558 -0.8117
  206MOL   C14341553   1.706   7.109   2.254 -0.5623 -0.8113 -0.0826
  206MOL   C14441554   1.595   7.072   2.154  0.1620  0.1555  0.0112
  206MOL   O14541555   1.476   7.058   2.191 -0.1149 -0.0754  0.3176
  206MOL   N14641556   1.627   7.053   2.026 -0.6300 -0.3230  0.2775
  206MOL   H14741557   1.576   7.220   2.387  1.3447 -2.0390 -0.1721
  206MOL   H14841558   1.740   7.255   2.415 -0.0574  0.6701 -0.3466
  206MOL   H14941559   1.796   7.135   2.200 -1.5889  0.2588 -1.3196
  206MOL   H15041560   1.549   7.026   1.968 -1.0871  0.5514  0.4742
  206MOL   H15141561   1.724   7.054   1.997 -0.3323  3.5846  1.0295
  206MOL   C15241562   1.752   6.978   2.335  0.5728 -0.7221  0.0183
  206MOL   C15341563   1.850   6.879   2.267  0.1549  0.8339  0.3945
  206MOL   C15441564   1.777   6.776   2.166 -0.4526  0.2039  0.3178
  206MOL   O15541565   1.671   6.722   2.187 -0.0232 -0.1490 -0.6572
  206MOL   N15641566   1.842   6.755   2.050  0.0183 -0.1118  0.0188
  206MOL   H15741567   1.678   6.916   2.385  0.2589 -0.8545 -0.6059
  206MOL   H15841568   1.805   7.019   2.420  1.0525 -1.0425 -0.1221
  206MOL   H15941569   1.920   6.934   2.204  0.3451  1.2808  0.9897
  206MOL   H16041570   1.931   6.802   2.044 -0.0045 -0.1240 -0.4938
  206MOL   H16141571   1.798   6.697   1.980  0.1764  0.0462 -0.2125
  206MOL   C16241572   1.911   6.807   2.392 -0.0853 -0.2799  0.3043
  206MOL   C16341573   2.022   6.703   2.369  0.1348  0.1583  0.1516
  206MOL   C16441574   1.977   6.564   2.409  0.2445 -0.1863  0.1303
  206MOL   O16541575   1.907   6.548   2.507 -0.1874  0.6028  0.4503
  206MOL   N16641576   2.029   6.465   2.341  0.1802  0.2411 -0.3485
  206MOL   H16741577   1.830   6.764   2.452 -0.0226  0.5577  0.9990
  206MOL   H16841578   1.960   6.886   2.449  3.2326 -2.5053  0.6987
  206MOL   H16941579   2.036   6.699   2.261 -2.8660  0.5190 -0.2993
  206MOL   H17041580   2.104   6.484   2.276  1.1479 -1.2644  0.3009
  206MOL   H17141581   2.023   6.373   2.381 -2.0278  0.3033 -0.5069
  206MOL   C17241582   2.157   6.740   2.435  0.6152  0.5480 -0.0983
  206MOL   C17341583   2.238   6.845   2.359  0.2056  0.1284 -0.0652
  206MOL   C17441584   2.307   6.795   2.235 -0.3824 -0.6405 -0.9246
  206MOL   O17541585   2.352   6.679   2.236 -0.3452  0.3957  0.0138
  206MOL   N17641586   2.305   6.856   2.114  0.3435  0.4836  0.0589
  206MOL   H17741587   2.215   6.654   2.469  1.2021  0.8450 -0.3369
  206MOL   H17841588   2.134   6.773   2.536  0.4686 -1.1241  0.4416
  206MOL   H17941589   2.163   6.919   2.330 -1.8574 -1.6987  0.4471
  206MOL   H18041590   2.250   6.939   2.101  1.0557  1.0034  0.3370
  206MOL   H18141591   2.357   6.820   2.035  0.1009  0.6257 -0.1669
  206MOL   C18241592   2.338   6.912   2.462  0.2973  0.1407  0.7187
  206MOL   C18341593   2.324   7.066   2.504 -0.7736  0.6439 -0.1787
  206MOL   C18441594   2.297   7.158   2.381  0.1801  0.5072  0.7032
  206MOL   O18541595   2.193   7.227   2.383  0.0474 -0.6114 -0.8694
  206MOL   N18641596   2.387   7.174   2.283 -0.4452  0.2793 -0.5292
  206MOL   H18741597   2.437   6.904   2.417 -0.1289  3.8592 -1.1673
  206MOL   H18841598   2.345   6.856   2.555 -1.9181  0.2015  0.9597
  206MOL   H18941599   2.244   7.075   2.577  1.2341  0.4015  2.0767
  206MOL   H19041600   2.463   7.109   2.268 -1.1293 -0.8072  0.5664
  206MOL   H19141601   2.371   7.246   2.215 -1.4337  1.0315  0.4693
  206MOL   C19241602   2.453   7.108   2.576  0.3257  0.1991  0.1264
  206MOL   C19341603   2.457   7.242   2.654  0.5274  0.4034 -0.7906
  206MOL   C19441604   2.598   7.248   2.708  0.5992  0.1351  0.0777
  206MOL   O19541605   2.692   7.173   2.675  0.5553 -0.1931 -0.3271
  206MOL   N19641606   2.618   7.341   2.804 -0.5996  0.4673 -0.1390
  206MOL   H19741607   2.544   7.088   2.520  0.2794 -1.8244  0.7262
  206MOL   H19841608   2.455   7.030   2.653  2.8784 -1.0050 -1.1123
  206MOL   H19941609   2.427   7.336   2.606 -2.3004 -1.9489 -3.8249
  206MOL   H20041610   2.707   7.339   2.851 -0.4297  0.7252 -0.4432
  206MOL   H20141611   2.550   7.413   2.827 -1.3951 -0.3847  0.2114
  206MOL   H20241612   2.393   7.233   2.742  1.5500  0.9851  0.0306
  207MOL     C141613   7.624   3.093   5.686 -0.2312 -0.3448  0.1274
  207MOL     C241614   7.577   2.964   5.755 -0.0219 -0.0842 -0.2273
  207MOL     C341615   7.423   2.958   5.741 -0.7757 -0.2729  0.3170
  207MOL     O441616   7.357   3.063   5.735  0.4438  0.5262 -0.5763
  207MOL     N541617   7.367   2.840   5.712  0.2992  0.0995  0.0983
  207MOL     H641618   0.073   3.084   5.664 -0.0061 -1.1565  1.4854
  207MOL     H741619   7.577   3.113   5.590 -1.2280 -3.1959 -0.0553
  207MOL     H841620   7.630   2.874   5.721  1.1755 -0.8296  3.4217
  207MOL     H941621   7.267   2.830   5.700  0.6570 -2.1599 -1.3428
  207MOL    H1041622   7.425   2.759   5.725  0.7876  0.8701  3.0439
  207MOL    H1141623   7.612   3.170   5.762  3.3009 -0.4820  0.8969
  207MOL    C1241624   7.612   2.967   5.913 -0.1549  0.3562  0.0583
  207MOL    C1341625   0.101   2.994   5.964  0.0319  0.1384 -0.1114
  207MOL    C1441626   0.200   2.877   5.928  0.5850  0.4298 -0.2355
  207MOL    O1541627   0.158   2.762   5.925  0.3600 -0.4799 -1.0349
  207MOL    N1641628   0.321   2.910   5.895 -0.8581 -0.4298 -0.2048
  207MOL    H1741629   7.589   2.872   5.962  2.0377 -0.0247  0.3746
  207MOL    H1841630   7.541   3.037   5.959 -2.6946 -1.0648 -1.5852
  207MOL    H1941631   0.148   3.081   5.918 -0.2399  0.2644 -0.1526
  207MOL    H2041632   0.357   3.004   5.881  0.8171 -1.3658 -2.6800
  207MOL    H2141633   0.376   2.825   5.884  0.5936  0.2675  1.3959
  207MOL    C2241634   0.109   3.010   6.123  0.2377 -0.9764  0.1825
  207MOL    C2341635   0.017   3.124   6.172  0.5117 -1.0803 -0.6667
  207MOL    C2441636   0.049   3.266   6.106  0.5948  0.3115 -0.4910
  207MOL    O2541637   0.150   3.333   6.125 -0.2504 -0.6431  0.1193
  207MOL    N2641638   7.618   3.317   6.019  0.3475  0.1061 -0.5004
  207MOL    H2741639   0.211   3.039   6.148  0.1397 -0.3815 -0.1013
  207MOL    H2841640   0.094   2.914   6.172  2.2476 -1.0705  0.6801
  207MOL    H2941641   7.573   3.091   6.150  0.4472  0.0053 -2.0282
  207MOL    H3041642   7.633   3.409   5.980  1.4933 -0.5073 -1.5358
  207MOL    H3141643   7.522   3.284   6.015  0.2039  0.5913 -1.0239
  207MOL    C3241644   0.029   3.146   6.326 -0.4787 -0.3972  0.0105
  207MOL    C3341645   7.563   3.217   6.390 -0.5256  0.0650 -0.1512
  207MOL    C3441646   7.619   3.313   6.495 -0.0243  0.5285  0.0912
  207MOL    O3541647   0.024   3.262   6.583  0.1241 -0.2598 -0.5480
  207MOL    N3641648   7.581   3.445   6.498  0.2913 -0.6080  0.3643
  207MOL    H3741649   0.125   3.196   6.343 -1.3627  1.6631 -0.8668
  207MOL    H3841650   0.044   3.048   6.372 -1.3040  0.0537  1.2626
  207MOL    H3941651   7.512   3.284   6.322  1.8094  1.3509 -0.6985
  207MOL    H4041652   7.519   3.473   6.423  0.7808  0.9262  0.5266
  207MOL    H4141653   7.593   3.510   6.574 -2.9465 -1.3879  1.6415
  207MOL    C4241654   7.460   3.114   6.456  0.1928 -0.2028 -0.4413
  207MOL    C4341655   7.319   3.165   6.467 -0.1288  0.4276  0.2036
  207MOL    C4441656   7.274   3.144   6.614  0.0583 -0.6009 -0.6355
  207MOL    O4541657   7.228   3.035   6.651 -0.2696  0.6227 -0.2922
  207MOL    N4641658   7.295   3.238   6.706  0.0699 -0.1811 -0.3106
  207MOL    H4741659   7.500   3.078   6.551 -1.1218  0.2977  0.3273
  207MOL    H4841660   7.462   3.037   6.379 -0.2193 -0.5262 -0.1361
  207MOL    H4941661   7.319   3.274   6.453 -2.1068  0.5117  0.7049
  207MOL    H5041662   7.325   3.327   6.669 -0.0872 -0.5789 -1.4052
  207MOL    H5141663   7.254   3.224   6.797 -0.0087  0.5457 -0.2357
  207MOL    C5241664   7.215   3.112   6.360 -0.3998  0.3591 -0.3433
  207MOL    C5341665   7.255   3.136   6.214  0.3702  0.6889 -0.3347
  207MOL    C5441666   7.268   3.281   6.169  0.0877 -0.1913  0.2438
  207MOL    O5541667   7.342   3.308   6.077  0.2692 -0.6768  0.2690
  207MOL    N5641668   7.195   3.378   6.226 -0.1419  0.1268 -0.2054
  207MOL    H5741669   7.113   3.149   6.371  0.5048  2.9566 -0.5182
  207MOL    H5841670   7.202   3.006   6.384 -0.4971  0.5547  0.4687
  207MOL    H5941671   7.361   3.111   6.218  1.0989  3.4045 -1.6459
  207MOL    H6041672   7.216   3.473   6.199 -1.1564  0.5405  0.4127
  207MOL    H6141673   7.126   3.353   6.295  0.3804 -0.3236  0.1593
  207MOL    C6241674   7.191   3.046   6.105 -0.8842  0.1830  0.2113
  207MOL    C6341675   7.172   2.889   6.132 -0.8060  1.0041  0.1778
  207MOL    C6441676   7.309   2.837   6.195  0.0370  0.3754 -0.2674
  207MOL    O6541677   7.414   2.868   6.143 -0.5715  0.1485 -0.1018
  207MOL    N6641678   7.306   2.760   6.302  0.3663  0.7460 -0.3868
  207MOL    H6741679   7.249   3.060   6.014  0.1584 -0.0243  0.8299
  207MOL    H6841680   7.099   3.097   6.076 -0.7392  0.6585  0.5648
  207MOL    H6941681   7.088   2.882   6.201 -0.1559 -0.2889  0.8677
  207MOL    H7041682   7.395   2.752   6.350  0.4451  0.3222 -0.6093
  207MOL    H7141683   7.224   2.728   6.351  1.3411  0.0656  0.8332
  207MOL    C7241684   7.137   2.817   6.002  0.1357 -0.5736 -0.4541
  207MOL    C7341685   7.112   2.670   6.009 -0.0006 -0.7658 -0.0142
  207MOL    C7441686   7.127   2.601   5.871  0.1343  0.1384  0.3465
  207MOL    O7541687   7.236   2.597   5.822 -0.6503  0.5921  0.9106
  207MOL    N7641688   7.024   2.546   5.811  0.0535 -0.2991 -0.1591
  207MOL    H7741689   7.225   2.838   5.940 -0.1428 -0.2794 -0.7586
  207MOL    H7841690   7.055   2.871   5.954 -0.6097  0.8574  2.3799
  207MOL    H7941691   7.192   2.619   6.062  0.8461 -0.3539 -0.8914
  207MOL    H8041692   7.036   2.511   5.717 -0.3601 -1.5327  0.2378
  207MOL    H8141693   6.930   2.558   5.846 -0.4598  0.9405 -1.9000
  207MOL    C8241694   6.984   2.638   6.082  0.0631  0.6960 -0.6961
  207MOL    C8341695   7.002   2.525   6.193 -0.5167 -0.0826 -0.4973
  207MOL    C8441696   7.016   2.390   6.130  0.0210 -0.5010  0.0486
  207MOL    O8541697   6.957   2.361   6.020 -0.2411  0.5048 -0.7806
  207MOL    N8641698   7.095   2.304   6.195  0.3112 -0.7226  0.6076
  207MOL    H8741699   6.901   2.613   6.017 -0.0507 -0.8527  0.0308
  207MOL    H8841700   6.947   2.733   6.121 -1.0027  0.9328 -2.2261
  207MOL    H8941701   7.101   2.545   6.235 -0.4657 -0.1719 -0.5758
  207MOL    H9041702   7.146   2.333   6.276  2.2192  1.0811 -1.1735
  207MOL    H9141703   7.115   2.213   6.155 -1.1128 -0.3444 -1.0578
  207MOL    C9241704   6.898   2.526   6.309  0.0667  0.0254  0.5489
  207MOL    C9341705   6.953   2.530   6.452 -0.3586  0.4991 -0.2523
  207MOL    C9441706   6.869   2.425   6.526  0.0997 -0.2383  0.2936
  207MOL    O9541707   6.752   2.441   6.554  0.2321  0.1353 -0.0106
  207MOL    N9641708   6.928   2.319   6.569  0.1223 -0.1217  0.3310
  207MOL    H9741709   6.821   2.451   6.292 -1.9388  2.2593 -0.4471
  207MOL    H9841710   6.834   2.613   6.293  0.5811  0.3573  0.3090
  207MOL    H9941711   7.058   2.504   6.442 -0.1465  0.7168  1.2821
  207MOL   H10041712   7.025   2.302   6.548  0.8547  2.5888  1.2957
  207MOL   H10141713   6.887   2.248   6.629 -0.0230 -0.3625 -0.0485
  207MOL   C10241714   6.956   2.680   6.501  0.3026  0.0082 -0.2256
  207MOL   C10341715   7.041   2.719   6.624 -0.1786  0.3405  0.0017
  207MOL   C10441716   7.184   2.668   6.613  0.1131  0.0362  0.7729
  207MOL   O10541717   7.211   2.557   6.661  0.0280 -0.0269  0.0124
  207MOL   N10641718   7.284   2.751   6.576  0.0594  0.2581  0.0068
  207MOL   H10741719   6.855   2.721   6.505  0.1377 -0.3966 -0.2397
  207MOL   H10841720   6.998   2.742   6.422  1.6927  2.8497  2.5945
  207MOL   H10941721   7.038   2.828   6.622 -5.2427  0.3559  1.2307
  207MOL   H11041722   7.381   2.723   6.577 -0.0689 -0.1874  0.3635
  207MOL   H11141723   7.258   2.849   6.577  0.0483  0.2721 -0.9837
  207MOL   C11241724   6.973   2.685   6.760 -0.9951  0.3837 -0.3642
  207MOL   C11341725   7.033   2.751   6.885  0.1265  0.1580  0.6072
  207MOL   C11441726   7.003   2.670   7.009 -0.1979  0.6152 -0.1541
  207MOL   O11541727   6.886   2.642   7.034 -0.5303 -0.0654 -0.2874
  207MOL   N11641728   7.098   2.618   7.081  0.2901 -0.4901  0.9787
  207MOL   H11741729   6.985   2.577   6.772  1.1121  0.7367  1.0536
  207MOL   H11841730   6.869   2.711   6.743 -0.6292  0.9248 -1.9486
  207MOL   H11941731   7.141   2.744   6.871  0.0784 -0.0212  0.3374
  207MOL   H12041732   7.080   2.544   7.148  0.7218  0.0287  1.6721
  207MOL   H12141733   7.196   2.624   7.055  0.2062  1.6265  1.1130
  207MOL   C12241734   7.009   2.907   6.892 -0.2063 -0.5756  0.2167
  207MOL   C12341735   7.085   2.982   7.005 -0.2710 -0.2367  0.2482
  207MOL   C12441736   7.044   3.127   6.995  0.5101 -0.1282 -0.2240
  207MOL   O12541737   7.080   3.197   6.901 -1.4576 -0.0443 -0.0634
  207MOL   N12641738   6.963   3.171   7.090 -0.6356 -0.4356 -0.3556
  207MOL   H12741739   6.904   2.919   6.918 -0.1274 -3.1379  1.8401
  207MOL   H12841740   7.038   2.944   6.794 -2.2619  0.8416  0.1197
  207MOL   H12941741   7.045   2.937   7.096 -0.3607 -0.1651  0.2445
  207MOL   H13041742   6.910   3.108   7.149  0.8112  0.1145  1.5903
  207MOL   H13141743   6.923   3.263   7.078 -1.1382 -0.4193  1.3060
  207MOL   C13241744   7.238   2.976   7.011 -0.5115  0.2258  0.1422
  207MOL   C13341745   7.294   2.994   7.157  0.6236  0.2090 -0.0612
  207MOL   C13441746   7.300   3.140   7.203  0.4152 -0.3227  0.6619
  207MOL   O13541747   7.334   3.232   7.126 -0.2731  0.0169 -0.2950
  207MOL   N13641748   7.277   3.165   7.330 -0.8937 -0.3880  0.6489
  207MOL   H13741749   7.284   3.044   6.940 -0.4050  0.3951  0.3731
  207MOL   H13841750   7.269   2.880   6.968 -0.6125  0.6372 -0.8533
  207MOL   H13941751   7.224   2.942   7.222 -0.6886  1.0837 -0.7547
  207MOL   H14041752   7.290   3.257   7.369  1.0435  1.0430 -3.1083
  207MOL   H14141753   7.247   3.097   7.399 -2.9298 -0.0786  0.0920
  207MOL   C14241754   7.432   2.930   7.172 -0.0452 -0.9977 -0.0109
  207MOL   C14341755   7.506   2.935   7.305 -0.2972 -0.1463 -0.1328
  207MOL   C14441756   7.652   2.883   7.277  0.2051 -0.7926 -0.0817
  207MOL   O14541757   0.013   2.776   7.214 -0.1989 -0.5288 -0.4379
  207MOL   N14641758   0.088   2.951   7.338  0.3679 -0.9898 -0.4931
  207MOL   H14741759   7.494   2.981   7.098  0.9789 -0.5983  1.1109
  207MOL   H14841760   7.419   2.828   7.136  0.9863 -0.6735 -1.3075
  207MOL   H14941761   7.504   3.042   7.324  0.7661 -0.0215 -0.6766
  207MOL   H15041762   0.070   3.013   7.415  1.4251 -2.0979  0.6611
  207MOL   H15141763   0.180   2.925   7.304  1.5337  0.0431  1.7524
  207MOL   C15241764   7.440   2.852   7.412  0.3740 -0.0880  0.7680
  207MOL   C15341765   7.504   2.852   7.562 -0.0358 -0.5663  0.1456
  207MOL   C15441766   7.538   2.997   7.595  0.1712  1.1056 -0.5651
  207MOL   O15541767   7.647   3.051   7.575 -1.2155  0.7008 -0.0169
  207MOL   N15641768   7.438   3.079   7.622  0.1487  0.9128  1.0402
  207MOL   H15741769   7.422   2.750   7.378  2.9087 -1.0460  2.1474
  207MOL   H15841770   7.336   2.882   7.418  0.8458  2.2669 -1.7610
  207MOL   H15941771   7.431   2.846   7.642 -0.9005  0.2492 -0.5620
  207MOL   H16041772   7.440   3.177   7.597  0.1856  0.2486 -1.6941
  207MOL   H16141773   7.347   3.036   7.625  1.4290 -2.3589 -2.8585
  207MOL   C16241774   7.616   2.745   7.580 -0.0893  0.5469 -0.7528
  207MOL   C16341775   7.559   2.624   0.006  0.4191  0.1554  0.6035
  207MOL   C16441776   7.619   2.625   0.143  0.3917  0.0344  0.9641
  207MOL   O16541777   0.075   2.577   0.158  0.5266  0.3355  0.2509
  207MOL   N16641778   7.553   2.685   0.239  0.2305  0.0606 -0.4556
  207MOL   H16741779   0.043   2.788   7.635  0.3331 -0.7897 -0.3231
  207MOL   H16841780   0.003   2.711   7.486  0.2771  0.5945 -0.6036
  207MOL   H16941781   7.450   2.617   0.018  0.4083 -1.4161 -0.3221
  207MOL   H17041782   7.470   2.741   0.224 -0.0918 -0.8564 -2.3129
  207MOL   H17141783   7.595   2.663   0.328 -0.6817  0.0017 -0.0358
  207MOL   C17241784   7.589   2.480   7.605 -0.1117 -0.2844  0.2321
  207MOL   C17341785   7.532   2.439   7.467  0.8029  0.1250 -0.0755
  207MOL   C17441786   7.385   2.458   7.459  0.2687  0.0536  0.2677
  207MOL   O17541787   7.310   2.438   7.558 -0.4269 -0.4861 -0.5852
  207MOL   N17641788   7.331   2.508   7.347  0.4086 -0.2122  0.0694
  207MOL   H17741789   7.547   2.414   0.025 -0.1364 -0.2770  0.2246
  207MOL   H17841790   0.038   2.457   7.594 -0.2433 -0.9915  0.4281
  207MOL   H17941791   7.572   2.496   7.384 -0.2376  0.9152 -0.0442
  207MOL   H18041792   7.392   2.526   7.269  0.1125  1.4681  0.1872
  207MOL   H18141793   7.233   2.532   7.341  0.6462  0.3127 -1.9916
  207MOL   C18241794   7.580   2.302   7.426 -0.2987 -0.4254 -0.1014
  207MOL   C18341795   7.569   2.181   7.524 -0.3502 -0.3030  0.1126
  207MOL   C18441796   0.015   2.074   7.488 -0.8864  0.2320  0.8080
  207MOL   O18541797   7.652   1.976   7.411  0.5594 -0.8597  0.0541
  207MOL   N18641798   0.138   2.105   7.527 -0.0848  0.5399 -0.4283
  207MOL   H18741799   0.029   2.317   7.407 -0.3138  0.7157  0.6571
  207MOL   H18841800   7.545   2.287   7.324 -1.7350  1.4188  0.0788
  207MOL   H18941801   7.604   2.214   7.621  1.4372 -1.5073 -0.0906
  207MOL   H19041802   0.210   2.043   7.491 -1.6115 -1.4789 -0.0616
  207MOL   H19141803   0.147   2.198   7.567 -0.2598  0.5318 -0.3738
  207MOL   C19241804   7.418   2.131   7.532  0.2581 -0.3249 -0.1257
  207MOL   C19341805   7.387   2.014   7.620 -0.6945  0.0191 -0.2442
  207MOL   C19441806   7.252   1.953   7.574 -0.3466  0.5027 -0.2088
  207MOL   O19541807   7.155   2.019   7.553  0.1690  0.1308 -0.9124
  207MOL   N19641808   7.257   1.822   7.564 -0.3511  0.1867  0.0895
  207MOL   H19741809   7.407   2.090   7.431 -3.1260 -1.6769  0.7320
  207MOL   H19841810   7.337   2.202   7.543 -0.3148 -0.9563 -0.1895
  207MOL   H19941811   7.460   1.933   7.628 -0.9873 -0.2685 -0.4473
  207MOL   H20041812   7.340   1.767   7.580 -0.8212 -0.6274 -0.2427
  207MOL   H20141813   7.173   1.774   7.535 -1.0446  1.8800 -0.7303
  207MOL   H20241814   7.388   2.049   0.066  1.5850 -1.1338  0.1484
  208MOL     C141815   5.566   1.271   3.418 -0.0279 -0.4146  0.2609
  208MOL     C241816   5.511   1.260   3.278 -0.4149 -0.3560  0.6204
  208MOL     C341817   5.557   1.382   3.203  0.3285 -0.2961  0.5327
  208MOL     O441818   5.523   1.494   3.234  0.6291 -0.0770 -0.1618
  208MOL     N541819   5.632   1.356   3.098  0.5793  0.0795 -0.1095
  208MOL     H641820   5.510   1.330   3.491 -1.8254  0.0616 -1.4463
  208MOL     H741821   5.562   1.170   3.457 -0.0595 -0.4439  0.1831
  208MOL     H841822   5.562   1.171   3.241  1.0491  0.4097  0.7598
  208MOL     H941823   5.644   1.259   3.070 -1.7002 -0.5278  0.9741
  208MOL    H1041824   5.643   1.426   3.026  0.8597  0.7878  0.6267
  208MOL    H1141825   5.671   1.298   3.422 -0.1318 -0.0511  0.5138
  208MOL    C1241826   5.356   1.251   3.264 -0.2149  0.7691  0.3543
  208MOL    C1341827   5.296   1.136   3.355 -0.0548 -0.1623  0.7669
  208MOL    C1441828   5.347   1.000   3.304 -0.1010 -0.6066  0.0299
  208MOL    O1541829   5.321   0.957   3.190  0.4338 -0.0022  0.1507
  208MOL    N1641830   5.441   0.945   3.373 -0.2339 -0.0929  0.1219
  208MOL    H1741831   5.344   1.220   3.161  0.2313  1.2327  0.1599
  208MOL    H1841832   5.307   1.348   3.273 -0.7790  0.5314 -0.1580
  208MOL    H1941833   5.336   1.136   3.456 -1.7568 -3.9015  1.5496
  208MOL    H2041834   5.449   0.968   3.471 -0.9158  2.5062 -0.3947
  208MOL    H2141835   5.480   0.857   3.343  2.4135  0.8230  0.7654
  208MOL    C2241836   5.139   1.145   3.357  0.3262  0.3339 -0.1396
  208MOL    C2341837   5.064   1.192   3.483  0.4577 -0.9039 -0.3113
  208MOL    C2441838   4.913   1.177   3.462 -0.7621  0.4219 -0.2688
  208MOL    O2541839   4.865   1.195   3.348  0.6096 -0.1298 -0.9172
  208MOL    N2641840   4.832   1.147   3.560  0.3048  0.2654  0.0081
  208MOL    H2741841   5.087   1.055   3.323  1.7525 -0.2058 -0.9230
  208MOL    H2841842   5.118   1.217   3.278  3.7824  0.5490 -0.9315
  208MOL    H2941843   5.094   1.116   3.555  3.1975 -0.0029 -0.4353
  208MOL    H3041844   4.735   1.149   3.531  0.2694  1.3317  0.1994
  208MOL    H3141845   4.866   1.145   3.655 -0.1178  1.0099  0.1753
  208MOL    C3241846   5.095   1.335   3.526 -0.6395  0.1808 -0.6985
  208MOL    C3341847   5.044   1.394   3.671 -0.3902  0.7304 -0.0596
  208MOL    C3441848   5.117   1.528   3.696 -0.5049  0.6744  0.1422
  208MOL    O3541849   5.235   1.534   3.725 -0.7836  0.4195  0.1904
  208MOL    N3641850   5.046   1.640   3.689 -0.3493  0.5813  0.3623
  208MOL    H3741851   5.059   1.407   3.452 -2.5496  0.9188  0.9065
  208MOL    H3841852   5.204   1.338   3.522 -0.5267 -2.8165 -1.0499
  208MOL    H3941853   4.940   1.426   3.670  0.0293  2.1830  1.0130
  208MOL    H4041854   5.097   1.726   3.690  1.6128 -0.5652  0.5294
  208MOL    H4141855   4.952   1.631   3.652 -0.5603 -0.5879  1.1548
  208MOL    C4241856   5.068   1.300   3.792 -0.1818 -0.0300  0.5860
  208MOL    C4341857   5.003   1.344   3.925  0.3071 -0.2604 -0.1443
  208MOL    C4441858   5.115   1.380   4.028 -0.9588 -0.1951 -0.0238
  208MOL    O4541859   5.121   1.337   4.143 -0.1813 -0.5485 -0.2577
  208MOL    N4641860   5.206   1.467   3.989  0.6384  0.0589 -0.6725
  208MOL    H4741861   5.173   1.276   3.806  0.4227  2.6616  1.0527
  208MOL    H4841862   5.042   1.196   3.778 -1.0504  0.5719 -2.5447
  208MOL    H4941863   4.962   1.445   3.915  2.0327  0.3583 -1.1466
  208MOL    H5041864   5.197   1.504   3.895 -1.8940  2.1045  0.3016
  208MOL    H5141865   5.277   1.493   4.056 -0.7824 -1.0314  1.3018
  208MOL    C5241866   4.888   1.260   3.977 -0.7024 -0.1606  0.0892
  208MOL    C5341867   4.769   1.337   4.036  0.1512  0.0811  0.2716
  208MOL    C5441868   4.684   1.394   3.922 -0.2162  0.1754  0.0256
  208MOL    O5541869   4.727   1.472   3.833 -0.2601 -0.1085  0.2265
  208MOL    N5641870   4.560   1.341   3.916 -0.4988 -0.6407 -0.0843
  208MOL    H5741871   4.925   1.201   4.061  2.3578  2.7986  0.9011
  208MOL    H5841872   4.863   1.189   3.898  2.3396 -0.4819 -0.6493
  208MOL    H5941873   4.711   1.261   4.087 -0.2156 -0.1032 -0.4124
  208MOL    H6041874   4.494   1.368   3.844  0.9809  1.3458 -0.7308
  208MOL    H6141875   4.538   1.267   3.981  0.0427 -2.6673 -2.1155
  208MOL    C6241876   4.796   1.453   4.133  0.1972 -0.2821 -1.0764
  208MOL    C6341877   4.675   1.526   4.194  0.4755  0.2167  0.0368
  208MOL    C6441878   4.689   1.678   4.190 -0.1557 -0.8733 -1.0328
  208MOL    O6541879   4.770   1.739   4.264 -0.4118  0.5927 -0.4286
  208MOL    N6641880   4.601   1.734   4.114 -0.9023 -0.8983  0.2988
  208MOL    H6741881   4.854   1.533   4.088 -0.5397  0.5114 -0.6305
  208MOL    H6841882   4.855   1.409   4.213  0.5673  0.3097 -1.0250
  208MOL    H6941883   4.583   1.498   4.142  0.9817  0.4215 -0.9608
  208MOL    H7041884   4.617   1.833   4.101 -0.7708 -0.7502  1.5462
  208MOL    H7141885   4.524   1.684   4.072 -0.9513 -1.5646  1.1779
  208MOL    C7241886   4.643   1.478   4.336  0.4480 -0.6998  0.3972
  208MOL    C7341887   4.519   1.541   4.409 -0.7507 -0.1807 -0.4391
  208MOL    C7441888   4.509   1.468   4.540  0.3649  0.4842 -1.0562
  208MOL    O7541889   4.445   1.365   4.551  0.0004  0.1400  0.1890
  208MOL    N7641890   4.546   1.536   4.647  0.1209 -0.0631  0.5786
  208MOL    H7741891   4.726   1.509   4.399  0.2362  0.9806 -0.1086
  208MOL    H7841892   4.627   1.370   4.329 -1.0151 -0.5391  1.0452
  208MOL    H7941893   4.561   1.639   4.429 -2.0480 -0.2767  2.9270
  208MOL    H8041894   4.569   1.631   4.622 -1.5986 -0.6925 -3.7663
  208MOL    H8141895   4.535   1.495   4.739  1.3143 -1.6041  0.0665
  208MOL    C8241896   4.386   1.547   4.331 -0.1355  0.3703  0.2647
  208MOL    C8341897   4.260   1.612   4.390 -0.5504 -0.2240  0.7435
  208MOL    C8441898   4.285   1.752   4.446 -0.0598 -0.0299  0.1075
  208MOL    O8541899   4.368   1.765   4.537  0.2089 -0.0640 -0.0497
  208MOL    N8641900   4.225   1.855   4.394 -0.1999 -0.4356  0.5704
  208MOL    H8741901   4.349   1.452   4.293  1.2990 -0.3699  0.6558
  208MOL    H8841902   4.397   1.602   4.237 -2.7100 -0.0950 -0.3532
  208MOL    H8941903   4.197   1.624   4.302  1.3051  0.9167 -0.4532
  208MOL    H9041904   4.255   1.941   4.438 -1.8770  0.8162 -0.6262
  208MOL    H9141905   4.135   1.850   4.348  1.1190  0.8122 -2.3138
  208MOL    C9241906   4.176   1.512   4.488 -0.3856 -0.2415 -0.5414
  208MOL    C9341907   4.028   1.549   4.510 -0.6959  0.6419  0.2409
  208MOL    C9441908   3.970   1.500   4.640  0.6090 -0.7168 -0.2604
  208MOL    O9541909   3.896   1.402   4.644  0.1236 -0.1029  0.2535
  208MOL    N9641910   3.984   1.570   4.751 -0.6385  0.3012 -0.1430
  208MOL    H9741911   4.227   1.511   4.584 -1.6195 -0.6799  0.1196
  208MOL    H9841912   4.173   1.411   4.446  0.6959 -0.2553 -0.5919
  208MOL    H9941913   4.024   1.656   4.529 -2.1568  1.2659 -3.3184
  208MOL   H10041914   4.065   1.628   4.768 -0.9357  1.0071 -1.0860
  208MOL   H10141915   3.939   1.538   4.836 -0.3069 -0.2902 -0.1887
  208MOL   C10241916   3.938   1.513   4.384 -0.2661  0.4541 -0.0107
  208MOL   C10341917   3.812   1.596   4.353 -0.3272 -0.1699 -0.0333
  208MOL   C10441918   3.839   1.739   4.303 -0.3601  0.2347  0.0157
  208MOL   O10541919   3.881   1.822   4.380 -0.1896 -0.2764 -0.0163
  208MOL   N10641920   3.813   1.764   4.178 -0.4331  0.0494 -0.3280
  208MOL   H10741921   3.922   1.405   4.389  2.0179  0.1653  2.3593
  208MOL   H10841922   4.009   1.527   4.302  1.3420 -0.5093  1.1892
  208MOL   H10941923   3.776   1.544   4.264 -2.9766  0.1204  0.8356
  208MOL   H11041924   3.765   1.702   4.114 -0.2988  0.6037 -0.9775
  208MOL   H11141925   3.813   1.861   4.148 -0.6344 -0.3354 -1.6231
  208MOL   C11241926   3.706   1.586   4.467 -0.5039 -0.4739  0.4607
  208MOL   C11341927   3.559   1.637   4.425 -0.2259 -0.2893  0.0822
  208MOL   C11441928   3.532   1.782   4.471  0.0789 -0.3260  0.3606
  208MOL   O11541929   3.552   1.812   4.587  0.7721 -0.2976 -0.2944
  208MOL   N11641930   3.484   1.868   4.380  0.0581 -0.7369  0.0515
  208MOL   H11741931   3.744   1.640   4.553 -1.2453 -0.2628  0.6582
  208MOL   H11841932   3.698   1.482   4.499 -0.4447 -0.2829  1.0949
  208MOL   H11941933   3.550   1.645   4.316 -0.9400 -0.9182  0.0900
  208MOL   H12041934   3.451   1.837   4.290  2.2414  2.9588 -2.1688
  208MOL   H12141935   3.471   1.964   4.409  1.1945 -0.6701  0.3649
  208MOL   C12241936   3.452   1.531   4.464  0.3509 -0.4488 -0.8719
  208MOL   C12341937   3.417   1.532   4.617 -0.3040  0.0953 -0.1603
  208MOL   C12441938   3.531   1.490   4.715  0.3451  0.3326  0.7075
  208MOL   O12541939   3.541   1.375   4.750  0.1556 -0.5397 -0.9714
  208MOL   N12641940   3.602   1.589   4.765 -0.3842 -0.3687  0.6515
  208MOL   H12741941   3.481   1.429   4.437  0.8531 -1.1148  1.9891
  208MOL   H12841942   3.362   1.562   4.412  0.4263  0.0628 -0.6946
  208MOL   H12941943   3.384   1.631   4.650  0.8526 -0.0732  1.5553
  208MOL   H13041944   3.683   1.573   4.823  0.6641  1.7304 -0.1941
  208MOL   H13141945   3.591   1.681   4.723  1.2790 -0.3839  0.1869
  208MOL   C13241946   3.293   1.436   4.633  0.1372  0.8803 -0.1864
  208MOL   C13341947   3.176   1.496   4.714  0.8502  0.4065  0.2491
  208MOL   C13441948   3.107   1.596   4.627 -0.0502 -0.0719  0.4253
  208MOL   O13541949   3.176   1.684   4.575  0.4931 -0.1134 -0.4535
  208MOL   N13641950   2.975   1.591   4.606  0.1959 -0.1253 -0.1451
  208MOL   H13741951   3.310   1.345   4.690 -1.3785  0.9168  0.3352
  208MOL   H13841952   3.264   1.393   4.538  0.2029  0.9391 -0.2325
  208MOL   H13941953   3.103   1.418   4.728 -0.7706  0.7699 -5.0079
  208MOL   H14041954   2.931   1.507   4.640  0.2058 -0.1793 -0.2656
  208MOL   H14141955   2.942   1.654   4.534  2.0579  0.0433 -0.8755
  208MOL   C14241956   3.222   1.541   4.864  0.0855 -1.0738 -0.2968
  208MOL   C14341957   3.117   1.640   4.930  0.1082  0.3965  0.7798
  208MOL   C14441958   3.195   1.730   5.025 -0.5200  0.0457  0.1248
  208MOL   O14541959   3.288   1.685   5.094 -0.3414  0.5055 -0.1043
  208MOL   N14641960   3.177   1.859   5.012 -0.0276 -0.5947  0.1520
  208MOL   H14741961   3.317   1.594   4.867 -1.0592  1.1085 -1.1936
  208MOL   H14841962   3.235   1.449   4.920  2.4913 -0.7321 -0.2126
  208MOL   H14941963   3.081   1.709   4.854  1.5585  2.5052  1.9537
  208MOL   H15041964   3.211   1.929   5.077 -1.9582  0.7813 -0.2581
  208MOL   H15141965   3.089   1.880   4.967 -0.3549 -0.4385  0.8663
  208MOL   C15241966   3.000   1.556   5.001 -0.6366  0.0708  0.1920
  208MOL   C15341967   2.861   1.624   5.010 -0.4875 -0.5491 -0.5065
  208MOL   C15441968   2.766   1.522   5.082 -0.1827  0.1637  0.0245
  208MOL   O15541969   2.749   1.409   5.037 -0.0296 -0.5011  0.0817
  208MOL   N15641970   2.713   1.559   5.195  0.5817 -0.0307  0.1060
  208MOL   H15741971   3.042   1.511   5.091  2.1001  2.3274  0.1318
  208MOL   H15841972   2.987   1.479   4.925 -0.6522  3.3745 -3.3136
  208MOL   H15941973   2.874   1.706   5.081  1.6789 -0.4392 -0.9976
  208MOL   H16041974   2.717   1.656   5.225 -1.6292  1.1073 -3.0045
  208MOL   H16141975   2.660   1.487   5.242  1.2664 -0.3061  0.4529
  208MOL   C16241976   2.808   1.671   4.875 -0.9436 -0.4025  0.0804
  208MOL   C16341977   2.722   1.804   4.868 -0.1738 -0.0493 -1.1936
  208MOL   C16441978   2.812   1.932   4.873  1.0767  0.4034  1.1199
  208MOL   O16541979   2.922   1.934   4.917 -0.5447 -0.6405 -0.3811
  208MOL   N16641980   2.746   2.034   4.845 -0.0960  0.5000  0.7847
  208MOL   H16741981   2.756   1.589   4.825 -0.3799 -0.9827  0.4373
  208MOL   H16841982   2.892   1.687   4.808  0.9622  2.3576  2.9707
  208MOL   H16941983   2.679   1.815   4.768 -2.6689  0.6229 -0.0864
  208MOL   H17041984   2.646   2.030   4.837  0.0428  0.9454 -1.3827
  208MOL   H17141985   2.783   2.127   4.860 -2.4573  1.7486 -0.9094
  208MOL   C17241986   2.617   1.820   4.980 -0.2981  0.2622 -0.1015
  208MOL   C17341987   2.473   1.787   4.939  0.2041  0.6730  0.2123
  208MOL   C17441988   2.409   1.892   4.846 -0.2000  0.0246 -0.2687
  208MOL   O17541989   2.480   1.979   4.791 -0.3223 -0.2015  0.8935
  208MOL   N17641990   2.276   1.891   4.814  0.2921  0.1364  0.2068
  208MOL   H17741991   2.612   1.919   5.025 -5.3396  0.2721 -0.3882
  208MOL   H17841992   2.651   1.758   5.063  3.0429  1.1842 -0.6991
  208MOL   H17941993   2.491   1.700   4.876 -1.4113  1.4080 -1.3031
  208MOL   H18041994   2.242   1.954   4.743 -1.0748 -0.6320  0.1653
  208MOL   H18141995   2.213   1.818   4.844 -0.3077  0.3129 -0.6133
  208MOL   C18241996   2.387   1.757   5.063 -0.1502  0.2141  0.4331
  208MOL   C18341997   2.304   1.627   5.059  0.3575 -0.7079  0.3204
  208MOL   C18441998   2.229   1.593   4.933  0.6836  0.1170  0.0741
  208MOL   O18541999   2.152   1.674   4.888  0.7594 -0.1758  0.3396
  208MOL   N18642000   2.253   1.485   4.868 -0.0415  0.3006 -0.5512
  208MOL   H18742001   2.326   1.845   5.084  0.6568  1.5781 -2.6883
  208MOL   H18842002   2.451   1.756   5.151  0.8272  1.0240 -0.2691
  208MOL   H18942003   2.376   1.546   5.072  1.6358  0.1250 -1.4574
  208MOL   H19042004   2.308   1.413   4.913  1.8313  0.1879 -2.9022
  208MOL   H19142005   2.203   1.457   4.785  0.6334  0.3384 -0.9737
  208MOL   C19242006   2.217   1.626   5.187 -0.1399  0.7341 -0.1763
  208MOL   C19342007   2.121   1.503   5.216  0.2348  0.5201  0.2715
  208MOL   C19442008   2.084   1.497   5.363  0.2351  0.1504 -1.0879
  208MOL   O19542009   1.983   1.553   5.412  0.1660  0.1319 -0.3236
  208MOL   N19642010   2.166   1.438   5.450 -0.2711 -0.1324  0.2964
  208MOL   H19742011   2.150   1.708   5.161  1.6376  1.1407 -3.8511
  208MOL   H19842012   2.270   1.654   5.277 -1.4050 -1.4836  1.3179
  208MOL   H19942013   2.036   1.514   5.148  0.5675 -0.9502 -0.4241
  208MOL   H20042014   2.150   1.434   5.550  1.8875 -2.0478  0.6164
  208MOL   H20142015   2.252   1.392   5.422 -0.8303 -0.3703 -1.0619
  208MOL   H20242016   2.166   1.405   5.194 -1.0765  0.1983 -1.1048
  209MOL     C142017   1.902   2.986   3.543  0.4259  0.2039 -0.3139
  209MOL     C242018   1.983   3.018   3.671  0.0001  0.9467  0.4500
  209MOL     C342019   2.113   3.084   3.630 -0.2610  0.5001 -0.0186
  209MOL     O442020   2.189   3.044   3.536  0.2417 -0.4912  0.0875
  209MOL     N542021   2.153   3.189   3.704 -0.5356  0.2188 -0.4101
  209MOL     H642022   1.801   2.954   3.568  0.0150  1.0149 -0.8911
  209MOL     H742023   1.900   3.074   3.478  0.0538  1.3978  1.2746
  209MOL     H842024   1.923   3.086   3.732  0.8285  1.5088  0.6399
  209MOL     H942025   2.086   3.232   3.766  1.4678  2.7272  0.1324
  209MOL    H1042026   2.245   3.230   3.693 -1.1652  1.4955 -1.0797
  209MOL    H1142027   1.937   2.902   3.484 -1.2254  0.2449 -1.3779
  209MOL    C1242028   2.011   2.885   3.744 -0.2823 -0.5932  0.3502
  209MOL    C1342029   2.074   2.901   3.890  0.4105  0.5282  0.2013
  209MOL    C1442030   2.177   2.791   3.901 -0.7677  0.0405 -0.6332
  209MOL    O1542031   2.144   2.671   3.911  0.5289  0.1358  0.3577
  209MOL    N1642032   2.305   2.830   3.916  0.8337 -0.0836 -0.3977
  209MOL    H1742033   2.065   2.816   3.679  0.0054 -0.4148  0.3990
  209MOL    H1842034   1.918   2.830   3.760  0.2895 -1.2879  1.3731
  209MOL    H1942035   2.118   2.999   3.912  1.2421  0.7559 -2.3041
  209MOL    H2042036   2.362   2.746   3.924  1.0575  0.1475  0.4308
  209MOL    H2142037   2.348   2.917   3.942  1.4635 -0.1662 -1.1411
  209MOL    C2242038   1.972   2.885   4.007  0.5455  1.0056 -0.4388
  209MOL    C2342039   1.859   2.988   4.011 -0.2716  0.2730  0.3235
  209MOL    C2442040   1.912   3.131   4.020  0.7560 -0.2973  0.5273
  209MOL    O2542041   2.024   3.163   4.061  0.5213  0.1083 -0.2298
  209MOL    N2642042   1.835   3.216   3.955  0.2180  0.7566 -0.0515
  209MOL    H2742043   2.039   2.904   4.091 -1.1590 -0.1530  1.2211
  209MOL    H2842044   1.944   2.780   4.007  0.4405  1.0258 -1.4330
  209MOL    H2942045   1.807   2.986   3.915  2.1894  0.3163 -1.0393
  209MOL    H3042046   1.762   3.168   3.904  0.5540 -0.0583  0.2307
  209MOL    H3142047   1.864   3.309   3.928 -0.1200  0.8746 -0.0104
  209MOL    C3242048   1.752   2.964   4.123  0.1291 -0.2282 -0.4810
  209MOL    C3342049   1.788   2.884   4.249 -0.1491 -0.0323 -0.6222
  209MOL    C3442050   1.653   2.865   4.324 -0.3392 -0.0481 -0.3528
  209MOL    O3542051   1.607   2.954   4.396 -0.6936 -0.0499  0.2150
  209MOL    N3642052   1.595   2.748   4.294 -0.0220  0.2381  0.3974
  209MOL    H3742053   1.662   2.919   4.082 -1.3239  1.5495  0.6536
  209MOL    H3842054   1.720   3.064   4.153  0.8755 -0.9627  3.0174
  209MOL    H3942055   1.812   2.781   4.221  0.3887 -0.4556  1.3091
  209MOL    H4042056   1.640   2.669   4.251 -0.2827  0.0620  0.4456
  209MOL    H4142057   1.502   2.736   4.331 -0.2621  4.6421  1.5136
  209MOL    C4242058   1.911   2.927   4.336 -0.7317  0.0854 -0.4962
  209MOL    C4342059   1.996   2.812   4.388 -0.4491 -0.5841 -0.1459
  209MOL    C4442060   1.932   2.707   4.474 -0.2996  0.6550  0.3042
  209MOL    O4542061   1.932   2.722   4.595  0.3648 -0.2654 -0.1341
  209MOL    N4642062   1.888   2.597   4.408  0.9993  0.5812  0.2654
  209MOL    H4742063   1.872   2.984   4.421  0.6268  0.1121  0.1220
  209MOL    H4842064   1.975   2.983   4.268  0.1543 -0.6902 -0.3127
  209MOL    H4942065   2.026   2.759   4.297 -0.9062 -1.6592  0.3324
  209MOL    H5042066   1.881   2.595   4.307 -1.3216 -0.9296  0.4367
  209MOL    H5142067   1.853   2.519   4.461 -0.1476  0.5147 -0.5867
  209MOL    C5242068   2.142   2.866   4.432 -0.2473  0.3878 -0.2342
  209MOL    C5342069   2.261   2.811   4.348 -0.2739 -0.3083  0.1641
  209MOL    C5442070   2.254   2.656   4.343  0.4877  0.3781  0.0162
  209MOL    O5542071   2.272   2.600   4.448 -0.0156 -0.5299  0.1317
  209MOL    N5642072   2.251   2.596   4.226  0.4981  0.2426  0.4634
  209MOL    H5742073   2.166   2.831   4.532  0.2257  0.6535 -0.2509
  209MOL    H5842074   2.141   2.975   4.441 -0.7244  0.4165 -0.5790
  209MOL    H5942075   2.245   2.845   4.245  0.2732 -2.0783 -0.5194
  209MOL    H6042076   2.249   2.495   4.222 -1.3122  0.3308 -1.8828
  209MOL    H6142077   2.229   2.638   4.137 -1.8870  3.5499  2.5051
  209MOL    C6242078   2.391   2.881   4.394 -0.1212  0.0072 -0.1597
  209MOL    C6342079   2.509   2.900   4.290  0.5825 -0.4313 -0.0431
  209MOL    C6442080   2.593   2.778   4.278 -0.1810 -0.4597 -0.6982
  209MOL    O6542081   2.655   2.732   4.374 -0.2914 -0.8368 -0.2484
  209MOL    N6642082   2.607   2.709   4.164  0.0418 -0.2203  0.4416
  209MOL    H6742083   2.433   2.836   4.484  1.0912  1.6375  0.1134
  209MOL    H6842084   2.355   2.978   4.430  1.9083  1.5277 -2.0922
  209MOL    H6942085   2.481   2.923   4.187  1.2054  2.0638  0.3132
  209MOL    H7042086   2.558   2.729   4.078  0.1055  0.9684  0.6777
  209MOL    H7142087   2.662   2.624   4.166  1.1516  0.5095  1.9822
  209MOL    C7242088   2.584   3.023   4.338 -0.1016  0.0304  0.5934
  209MOL    C7342089   2.685   3.080   4.227 -0.4046 -0.4016 -0.3176
  209MOL    C7442090   2.774   3.193   4.287 -0.2054  0.0447  0.3349
  209MOL    O7542091   2.733   3.286   4.357  0.1726 -0.3346  0.9578
  209MOL    N7642092   2.900   3.192   4.250 -0.0452  0.7358 -0.8527
  209MOL    H7742093   2.638   3.001   4.430  0.8404 -3.0136 -0.6202
  209MOL    H7842094   2.513   3.102   4.363  0.7078  0.5357  1.3545
  209MOL    H7942095   2.753   3.002   4.195  0.6506 -0.0477  1.0043
  209MOL    H8042096   2.962   3.262   4.288 -1.5863  1.8639 -0.3757
  209MOL    H8142097   2.943   3.117   4.198  0.7022  1.6561 -1.5890
  209MOL    C8242098   2.630   3.137   4.092 -0.5783  0.0246 -0.4926
  209MOL    C8342099   2.513   3.240   4.102  0.3873  0.0094 -0.4135
  209MOL    C8442100   2.378   3.177   4.066 -0.6007  0.1553 -0.1528
  209MOL    O8542101   2.371   3.101   3.970  0.1892 -0.0447 -0.0279
  209MOL    N8642102   2.283   3.206   4.154 -0.1758 -0.2280  0.8345
  209MOL    H8742103   2.608   3.051   4.029  1.2291 -0.2092 -0.8279
  209MOL    H8842104   2.708   3.183   4.031 -3.0897  0.6768 -3.2999
  209MOL    H8942105   2.504   3.294   4.196  1.5292 -0.2236 -0.1652
  209MOL    H9042106   2.296   3.275   4.227  4.0690 -0.1234  0.1238
  209MOL    H9142107   2.188   3.185   4.129  0.2752 -2.8970  1.2566
  209MOL    C9242108   2.538   3.359   4.003 -0.3666 -0.3215 -0.2002
  209MOL    C9342109   2.439   3.480   4.001 -0.5239  0.0136  0.2160
  209MOL    C9442110   2.335   3.476   3.888  0.1834  0.2164 -0.1256
  209MOL    O9542111   2.368   3.464   3.767 -0.4174 -0.2471  0.8632
  209MOL    N9642112   2.210   3.493   3.925 -0.1346 -0.7633 -0.1807
  209MOL    H9742113   2.566   3.320   3.905 -0.5694 -2.1335  0.4386
  209MOL    H9842114   2.624   3.410   4.046 -0.6716 -0.6914  0.8775
  209MOL    H9942115   2.373   3.482   4.088 -2.0383  1.5732 -0.9397
  209MOL   H10042116   2.128   3.494   3.865 -0.8826  0.0857  0.8303
  209MOL   H10142117   2.181   3.498   4.022  0.1321  0.1880 -0.1498
  209MOL   C10242118   2.494   3.624   4.027  0.5036 -0.0333 -0.1917
  209MOL   C10342119   2.578   3.689   3.905  0.3316 -0.6932 -0.0262
  209MOL   C10442120   2.719   3.631   3.891 -0.2796 -0.4950  0.2332
  209MOL   O10542121   2.789   3.601   3.992 -0.1658  0.1225  0.0558
  209MOL   N10642122   2.764   3.600   3.770  0.6030 -0.0930  0.1201
  209MOL   H10742123   2.550   3.617   4.121  0.5055  1.5954 -0.0557
  209MOL   H10842124   2.409   3.689   4.051  1.1165  1.1794 -1.2270
  209MOL   H10942125   2.514   3.677   3.817  2.2290  0.3092 -1.5880
  209MOL   H11042126   2.712   3.626   3.687  0.8960  0.9450  0.2537
  209MOL   H11142127   2.847   3.544   3.753  2.1021  2.3165 -0.8829
  209MOL   C11242128   2.598   3.836   3.930 -0.3364 -0.0621  0.2284
  209MOL   C11342129   2.643   3.915   3.803 -0.4785 -0.1354  0.7208
  209MOL   C11442130   2.744   4.022   3.831 -0.3531  0.3129  0.0157
  209MOL   O11542131   2.713   4.137   3.834 -0.2285 -0.1552 -0.2583
  209MOL   N11642132   2.867   3.984   3.861  0.0508 -0.1816  0.1209
  209MOL   H11742133   2.658   3.855   4.019 -0.8793 -2.2955  1.0814
  209MOL   H11842134   2.510   3.895   3.954 -1.1694 -0.0607 -2.6277
  209MOL   H11942135   2.710   3.855   3.741 -1.5530 -0.6856  0.0774
  209MOL   H12042136   2.890   3.886   3.853 -0.1948 -0.2765  0.5853
  209MOL   H12142137   2.941   4.048   3.888 -1.2440  1.5980 -0.4382
  209MOL   C12242138   2.527   3.967   3.723  0.4185 -0.2919  0.4539
  209MOL   C12342139   2.435   3.872   3.652 -0.1468 -0.1205 -0.0836
  209MOL   C12442140   2.512   3.782   3.556  0.4469 -0.0384 -0.8296
  209MOL   O12542141   2.587   3.837   3.472  0.3166  0.8555  0.0848
  209MOL   N12642142   2.508   3.646   3.567  0.2573 -0.1663 -0.0982
  209MOL   H12742143   2.564   4.028   3.640 -1.0948  1.8121  1.2628
  209MOL   H12842144   2.469   4.023   3.796 -0.7477 -1.4991  0.4653
  209MOL   H12942145   2.389   3.814   3.732 -1.5865  0.7998 -0.2232
  209MOL   H13042146   2.451   3.594   3.632  0.1567 -1.4541 -1.1959
  209MOL   H13142147   2.568   3.596   3.503 -0.1177  0.0066 -0.5935
  209MOL   C13242148   2.316   3.954   3.586  0.6677  0.4634  0.0137
  209MOL   C13342149   2.198   3.865   3.536 -0.5565  0.4740 -0.4177
  209MOL   C13442150   2.173   3.882   3.386  0.3371  0.0005 -0.2150
  209MOL   O13542151   2.125   3.993   3.354 -0.4097 -0.2185 -0.0784
  209MOL   N13642152   2.215   3.787   3.296  1.0814 -0.5868  0.1084
  209MOL   H13742153   2.348   4.019   3.505  1.4503  1.5636  1.1748
  209MOL   H13842154   2.284   4.024   3.664 -1.9007  0.2076 -0.7663
  209MOL   H13942155   2.226   3.761   3.550  2.3621  1.0400 -1.5504
  209MOL   H14042156   2.206   3.809   3.198 -0.8155  0.1567  0.4324
  209MOL   H14142157   2.264   3.705   3.330  1.6314  0.6805  2.4371
  209MOL   C14242158   2.070   3.888   3.621 -0.0539  0.0894 -0.3231
  209MOL   C14342159   1.949   3.790   3.589  0.3429  0.6236  0.2051
  209MOL   C14442160   1.815   3.838   3.648 -0.1125 -0.9781  0.1916
  209MOL   O14542161   1.810   3.868   3.766 -0.8664  0.0148 -0.0378
  209MOL   N14642162   1.702   3.814   3.583 -0.1920  0.6066 -0.1143
  209MOL   H14742163   2.048   3.994   3.633 -1.5466 -0.2579  0.1602
  209MOL   H14842164   2.087   3.859   3.725  0.0821 -0.7552 -0.5808
  209MOL   H14942165   1.943   3.779   3.480 -0.4112  1.0055  0.2008
  209MOL   H15042166   1.707   3.789   3.486 -0.7141  0.3504 -0.0768
  209MOL   H15142167   1.610   3.824   3.624 -1.4751 -1.0185 -2.5091
  209MOL   C15242168   1.983   3.648   3.646  0.1695  0.0322  0.4783
  209MOL   C15342169   1.954   3.533   3.550 -0.1010 -0.8371 -0.1623
  209MOL   C15442170   1.900   3.407   3.623  0.1312  0.1169 -0.5377
  209MOL   O15542171   1.940   3.382   3.737  0.5640 -0.9973 -0.1889
  209MOL   N15642172   1.816   3.323   3.561  0.8912  0.6184 -0.1274
  209MOL   H15742173   1.922   3.633   3.735 -0.5996  0.7342  0.0797
  209MOL   H15842174   2.085   3.645   3.684 -0.2853 -0.8115  1.6802
  209MOL   H15942175   1.871   3.556   3.484 -0.6114  0.3410  0.8722
  209MOL   H16042176   1.785   3.250   3.623 -1.3222  0.7514 -1.0204
  209MOL   H16142177   1.797   3.325   3.462  0.2040 -2.3483 -0.0937
  209MOL   C16242178   2.090   3.498   3.480  0.4719 -0.2007 -0.0052
  209MOL   C16342179   2.106   3.398   3.365 -0.2969 -0.2912 -0.8721
  209MOL   C16442180   2.258   3.370   3.342 -0.6154  0.3555 -0.5265
  209MOL   O16542181   2.333   3.455   3.306  0.4993 -0.1371  0.4101
  209MOL   N16642182   2.301   3.253   3.388  0.2623 -0.0859  0.0671
  209MOL   H16742183   2.164   3.468   3.554  1.0160 -0.5961 -0.7000
  209MOL   H16842184   2.126   3.596   3.447  0.5268 -0.6688 -1.3800
  209MOL   H16942185   2.045   3.311   3.387  0.8058 -0.4722  1.7277
  209MOL   H17042186   2.234   3.190   3.430  0.1797  0.5364  0.8816
  209MOL   H17142187   2.397   3.225   3.382  1.3954  3.1849  1.7367
  209MOL   C17242188   2.032   3.452   3.240  1.0574 -1.5887 -0.0552
  209MOL   C17342189   1.980   3.346   3.134  0.0218 -0.3248 -0.6823
  209MOL   C17442190   1.841   3.292   3.180 -0.1554 -0.5748 -0.1840
  209MOL   O17542191   1.827   3.202   3.265  0.0269 -0.4268  0.5990
  209MOL   N17642192   1.741   3.359   3.126  0.4182 -0.9923  0.3678
  209MOL   H17742193   2.102   3.512   3.182  1.2780  0.4699  2.2421
  209MOL   H17842194   1.953   3.520   3.274  0.0394 -2.5351 -0.4974
  209MOL   H17942195   1.970   3.388   3.034  0.9108  0.1256 -0.5945
  209MOL   H18042196   1.650   3.315   3.136 -0.6847  1.3185  0.9550
  209MOL   H18142197   1.744   3.438   3.063 -1.0537  0.0461  1.5318
  209MOL   C18242198   2.091   3.239   3.103 -0.3316  0.6651 -0.5821
  209MOL   C18342199   2.081   3.151   2.978 -0.2956 -0.1791 -0.0563
  209MOL   C18442200   2.114   3.222   2.847  0.1459 -0.1167  0.3442
  209MOL   O18542201   2.051   3.320   2.803  0.0578  1.2097 -0.1018
  209MOL   N18642202   2.233   3.192   2.792  0.2584 -0.6569 -0.4336
  209MOL   H18742203   2.101   3.179   3.193  2.4201  1.0643 -0.5570
  209MOL   H18842204   2.187   3.291   3.091 -0.5563  0.8861 -1.4088
  209MOL   H18942205   2.157   3.075   2.998 -0.2727  0.1103  0.9391
  209MOL   H19042206   2.260   3.106   2.838  1.8735 -0.5091 -1.0825
  209MOL   H19142207   2.239   3.216   2.694 -0.2653 -0.7345 -0.4856
  209MOL   C19242208   1.953   3.072   2.964  0.5131  0.3769  0.5168
  209MOL   C19342209   1.966   2.937   2.890  0.1299  0.4408  0.0015
  209MOL   C19442210   1.839   2.857   2.896  0.2859  0.0143 -0.3383
  209MOL   O19542211   1.754   2.850   2.806 -0.4011  0.0739  0.1436
  209MOL   N19642212   1.817   2.795   3.011 -0.2310  0.0775 -0.7755
  209MOL   H19742213   1.871   3.118   2.909  1.3882  0.2130 -0.9394
  209MOL   H19842214   1.908   3.056   3.062 -0.0953  2.4140  0.6014
  209MOL   H19942215   1.966   2.967   2.785 -1.7796 -3.9398 -1.3521
  209MOL   H20042216   1.885   2.802   3.085 -0.0014  1.7044 -1.1217
  209MOL   H20142217   1.732   2.742   3.004  1.1291 -2.3475  0.3594
  209MOL   H20242218   2.061   2.884   2.898  0.7782  1.6370  0.3258
  210MOL     C142219   5.512   3.500   4.932 -0.2689 -0.5465  0.0734
  210MOL     C242220   5.575   3.550   5.065  0.1310 -0.3701  0.3249
  210MOL     C342221   5.694   3.637   5.024  0.5353  0.0038  0.2464
  210MOL     O442222   5.788   3.584   4.975  0.3036  0.3381  0.6480
  210MOL     N542223   5.694   3.768   5.035 -0.1937  0.6876 -0.4714
  210MOL     H642224   5.576   3.418   4.900 -1.0898 -0.6937 -1.2097
  210MOL     H742225   5.414   3.456   4.949 -1.0126  1.2610  0.6663
  210MOL     H842226   5.499   3.611   5.113  0.4870 -0.1874  0.6643
  210MOL     H942227   5.634   3.811   5.105 -1.5760  1.3036 -2.0034
  210MOL    H1042228   5.756   3.831   4.987  0.3936  0.0078 -0.6074
  210MOL    H1142229   5.506   3.574   4.852  0.6606  1.3315  1.6825
  210MOL    C1242230   5.625   3.437   5.157 -0.2197 -0.3275  0.1750
  210MOL    C1342231   5.657   3.481   5.306  0.2289 -0.0455  0.0683
  210MOL    C1442232   5.756   3.387   5.369 -0.5341  0.4741  0.1046
  210MOL    O1542233   5.781   3.278   5.317 -0.0283 -0.2353  0.3769
  210MOL    N1642234   5.830   3.432   5.479  0.1019  0.1445 -0.1069
  210MOL    H1742235   5.701   3.378   5.105  2.4307  0.9426  2.4375
  210MOL    H1842236   5.542   3.368   5.175 -1.6054  0.6355 -2.3011
  210MOL    H1942237   5.715   3.574   5.306  0.9162 -0.4704 -0.3757
  210MOL    H2042238   5.799   3.520   5.519 -0.9599 -0.0162 -0.5721
  210MOL    H2142239   5.906   3.375   5.513 -0.0578  0.4396  0.7440
  210MOL    C2242240   5.529   3.484   5.399 -0.0700 -0.7955  0.4134
  210MOL    C2342241   5.501   3.611   5.498 -0.8093 -0.2348 -0.5722
  210MOL    C2442242   5.625   3.703   5.511  0.0230  0.0785  0.0014
  210MOL    O2542243   5.726   3.678   5.573 -0.4427  0.2004 -0.2315
  210MOL    N2642244   5.624   3.818   5.445 -0.2923 -0.0499 -0.0999
  210MOL    H2742245   5.514   3.390   5.451  0.1870 -0.5346  0.9524
  210MOL    H2842246   5.446   3.481   5.328  0.9486 -0.7665 -0.7943
  210MOL    H2942247   5.428   3.665   5.437 -0.0516 -0.7810 -1.9828
  210MOL    H3042248   5.703   3.880   5.452 -1.8210  1.7921  1.3028
  210MOL    H3142249   5.553   3.827   5.373 -1.4066  1.4441  1.1487
  210MOL    C3242250   5.443   3.578   5.636  0.0549  0.0865 -0.5994
  210MOL    C3342251   5.290   3.548   5.653  0.4532  0.5099  0.2747
  210MOL    C3442252   5.222   3.687   5.635 -0.5097 -0.5078 -0.3008
  210MOL    O3542253   5.212   3.764   5.733  0.1694 -0.3478 -0.3819
  210MOL    N3642254   5.182   3.711   5.513  0.2048 -0.1547 -0.4956
  210MOL    H3742255   5.479   3.661   5.697 -2.5147  0.3995  0.5502
  210MOL    H3842256   5.495   3.488   5.668 -1.1255 -0.5441 -0.4335
  210MOL    H3942257   5.270   3.472   5.578 -0.7050  0.4822  0.5940
  210MOL    H4042258   5.196   3.639   5.444  2.4068  1.5428 -1.9060
  210MOL    H4142259   5.130   3.797   5.501 -2.3865 -1.4384  1.1189
  210MOL    C4242260   5.267   3.486   5.791 -0.1106  0.3657 -0.5454
  210MOL    C4342261   5.125   3.474   5.855 -0.2513  0.0556  0.3269
  210MOL    C4442262   5.133   3.395   5.986  0.5832  0.2281  0.7988
  210MOL    O4542263   5.215   3.308   5.999 -0.1948 -0.4080  0.0306
  210MOL    N4642264   5.057   3.434   6.088 -0.4855 -0.0915 -0.2073
  210MOL    H4742265   5.329   3.536   5.866 -0.7155 -2.3918  1.8448
  210MOL    H4842266   5.302   3.383   5.789  0.3938  0.5433 -2.9531
  210MOL    H4942267   5.091   3.573   5.886 -0.4600 -0.6952  2.5932
  210MOL    H5042268   5.065   3.390   6.178  1.5655  1.9424  0.6368
  210MOL    H5142269   5.014   3.525   6.081  0.6168  0.4276 -0.2990
  210MOL    C5242270   5.017   3.416   5.762 -0.0677  0.3922  0.1617
  210MOL    C5342271   5.018   3.266   5.730  1.1450  0.5517 -0.1056
  210MOL    C5442272   5.066   3.224   5.593 -0.4103 -0.2657 -0.3603
  210MOL    O5542273   5.166   3.157   5.572 -0.2933  0.2721 -0.4121
  210MOL    N5642274   4.988   3.262   5.487 -0.3756 -0.1829  0.2083
  210MOL    H5742275   5.011   3.471   5.668  0.2685 -1.5281 -0.9967
  210MOL    H5842276   4.922   3.437   5.811  0.2252  0.4927  0.6967
  210MOL    H5942277   5.098   3.224   5.790  0.2571 -0.7042  0.2282
  210MOL    H6042278   5.019   3.243   5.393 -1.6720  0.2433 -0.3196
  210MOL    H6142279   4.899   3.310   5.495  0.9413  2.3819 -0.3390
  210MOL    C6242280   4.880   3.186   5.766 -0.4248  0.4917 -0.3605
  210MOL    C6342281   4.876   3.033   5.745  0.2857  0.1607  0.2813
  210MOL    C6442282   4.727   2.994   5.715  0.0439 -0.5367 -0.0032
  210MOL    O6542283   4.662   2.917   5.782  0.1525  0.5818 -0.2985
  210MOL    N6642284   4.678   3.039   5.601 -0.0680 -0.4796 -0.1498
  210MOL    H6742285   4.807   3.234   5.701 -1.2507  1.5130  1.2694
  210MOL    H6842286   4.844   3.216   5.865 -1.4007  0.1052 -0.5990
  210MOL    H6942287   4.929   2.996   5.657  2.6074 -2.5179  2.7110
  210MOL    H7042288   4.589   3.014   5.560 -0.0790  0.5312 -0.7464
  210MOL    H7142289   4.740   3.106   5.559  2.4030 -1.9340  1.1073
  210MOL    C7242290   4.926   2.948   5.865  0.8287 -0.4972 -0.1603
  210MOL    C7342291   5.080   2.927   5.871  0.5966  0.4163 -0.3664
  210MOL    C7442292   5.130   2.842   5.754  0.7913 -0.2385 -0.7372
  210MOL    O7542293   5.103   2.721   5.745 -0.2139  0.1624  0.4018
  210MOL    N7642294   5.208   2.896   5.662  0.4169  0.7078 -0.1819
  210MOL    H7742295   4.874   2.853   5.875  1.0068 -0.9813 -3.5252
  210MOL    H7842296   4.879   2.999   5.949 -1.0133 -1.2583 -0.7130
  210MOL    H7942297   5.121   3.027   5.865 -0.3889  0.9580  1.5866
  210MOL    H8042298   5.214   2.994   5.642  0.4930  0.2372 -2.6303
  210MOL    H8142299   5.227   2.836   5.583  0.8900 -0.5589  0.8601
  210MOL    C8242300   5.121   2.870   6.012 -0.5504 -0.4874 -0.2302
  210MOL    C8342301   5.281   2.860   6.022 -0.6558  0.2634 -0.2024
  210MOL    C8442302   5.306   2.781   6.149 -0.0923 -0.5481 -0.3622
  210MOL    O8542303   5.258   2.821   6.257 -0.0161  0.4353 -0.5592
  210MOL    N8642304   5.369   2.670   6.135 -0.1612 -0.7749  0.0167
  210MOL    H8742305   5.086   2.767   6.022 -2.0242  0.0477  0.2958
  210MOL    H8842306   5.075   2.926   6.093 -0.4416  1.8925 -1.7627
  210MOL    H8942307   5.324   2.815   5.933 -3.0169 -0.4025 -1.0372
  210MOL    H9042308   5.366   2.599   6.207  2.2144 -0.8824  0.0525
  210MOL    H9142309   5.388   2.650   6.038 -0.1560 -1.6357  0.1987
  210MOL    C9242310   5.333   3.011   6.047 -0.6785 -0.6377 -0.0867
  210MOL    C9342311   5.483   3.036   6.009 -0.2840  0.0443  0.4422
  210MOL    C9442312   5.544   3.162   6.070 -0.4559 -0.7316 -0.1729
  210MOL    O9542313   5.659   3.154   6.115  0.1336  0.3257 -0.3491
  210MOL    N9642314   5.476   3.273   6.090 -0.1244 -0.4323 -0.7331
  210MOL    H9742315   5.310   3.046   6.147 -0.0279  0.0605 -0.1793
  210MOL    H9842316   5.274   3.072   5.980 -1.4641  1.0843  2.1285
  210MOL    H9942317   5.542   2.953   6.050 -1.4544 -0.4570  1.1194
  210MOL   H10042318   5.533   3.346   6.131  0.6279 -1.9623  1.0182
  210MOL   H10142319   5.380   3.281   6.057 -0.8399 -2.2113  0.8293
  210MOL   C10242320   5.499   3.034   5.849 -0.1969 -0.4635 -0.2855
  210MOL   C10342321   5.647   3.038   5.796 -0.3326 -0.5427 -0.1534
  210MOL   C10442322   5.640   3.083   5.650 -0.8456 -0.6613  0.3081
  210MOL   O10542323   5.563   3.031   5.571 -0.3382 -0.0787 -0.5122
  210MOL   N10642324   5.729   3.177   5.617  0.2958  0.1370 -0.4013
  210MOL   H10742325   5.438   3.114   5.808 -0.9314 -0.0823  1.5150
  210MOL   H10842326   5.458   2.945   5.802 -0.5151  0.1681 -1.2011
  210MOL   H10942327   5.705   3.118   5.844  2.3962 -2.1132 -0.7136
  210MOL   H11042328   5.726   3.209   5.521  1.5027 -1.0707 -0.8655
  210MOL   H11142329   5.749   3.241   5.691 -0.1124 -0.9799  0.6938
  210MOL   C11242330   5.729   2.902   5.795 -0.2046 -0.3388 -0.2405
  210MOL   C11342331   5.808   2.870   5.928 -0.3166  0.1965 -0.6203
  210MOL   C11442332   5.922   2.965   5.942  0.4233  0.1002  0.5582
  210MOL   O11542333   6.028   2.941   5.888  0.0930  0.0136  0.3133
  210MOL   N11642334   5.905   3.085   5.987  0.0315  0.2427  0.3199
  210MOL   H11742335   5.807   2.918   5.720  1.0605  1.1820  1.3549
  210MOL   H11842336   5.661   2.822   5.765  0.2097 -0.0693 -1.9366
  210MOL   H11942337   5.732   2.879   6.006 -0.0690  1.7463 -0.5419
  210MOL   H12042338   5.984   3.148   5.986 -1.2759  1.9306 -0.0245
  210MOL   H12142339   5.812   3.105   6.022 -0.1869  0.2996 -0.2782
  210MOL   C12242340   5.859   2.725   5.935 -0.8752  0.0552  1.0308
  210MOL   C12342341   5.770   2.615   5.999 -0.4082 -0.3457 -0.5105
  210MOL   C12442342   5.842   2.509   6.078 -0.0283 -0.2398 -0.5035
  210MOL   O12542343   5.779   2.439   6.159  0.1974  0.6582  0.1946
  210MOL   N12642344   5.973   2.500   6.058 -0.2075 -0.4586  0.0122
  210MOL   H12742345   5.946   2.730   6.001 -0.2319 -1.0589  0.2949
  210MOL   H12842346   5.901   2.686   5.842 -1.5187  0.5983  0.5170
  210MOL   H12942347   5.711   2.663   6.077  2.0598  0.9451  0.5912
  210MOL   H13042348   6.020   2.542   5.978 -0.1378 -2.7866 -1.1992
  210MOL   H13142349   6.031   2.445   6.118  0.5405 -1.4919 -1.6326
  210MOL   C13242350   5.675   2.552   5.898 -0.2645  0.7627  0.3655
  210MOL   C13342351   5.731   2.477   5.775 -0.0529 -0.1081  0.6828
  210MOL   C13442352   5.733   2.577   5.654 -0.7874  0.0920 -0.2415
  210MOL   O13542353   5.636   2.635   5.615 -0.1065  0.3478 -0.0209
  210MOL   N13642354   5.841   2.576   5.578 -0.9847 -0.8793 -0.0412
  210MOL   H13742355   5.597   2.621   5.866 -1.4158 -1.0079 -0.7592
  210MOL   H13842356   5.638   2.469   5.959  0.1017  0.8268  0.6781
  210MOL   H13942357   5.829   2.439   5.801  0.6927 -0.4235 -2.3175
  210MOL   H14042358   5.856   2.644   5.505  0.8370  0.2161  1.3160
  210MOL   H14142359   5.927   2.536   5.613  0.4533 -0.7576 -3.2470
  210MOL   C14242360   5.645   2.360   5.726 -0.3282  0.2688 -0.8812
  210MOL   C14342361   5.707   2.258   5.629 -0.9119  0.4926 -0.4951
  210MOL   C14442362   5.632   2.239   5.497 -0.1988  0.1847  0.7697
  210MOL   O14542363   5.556   2.146   5.474  0.5721  0.1393 -0.6628
  210MOL   N14642364   5.666   2.332   5.404  0.3385 -0.1913  0.3740
  210MOL   H14742365   5.552   2.398   5.683 -0.2857  2.3979  0.7628
  210MOL   H14842366   5.611   2.313   5.819 -0.9748  3.7773  0.7561
  210MOL   H14942367   5.802   2.298   5.595  0.0231 -2.0369 -0.9369
  210MOL   H15042368   5.629   2.332   5.310 -0.1549 -3.0955  0.5217
  210MOL   H15142369   5.727   2.407   5.435  0.7772 -0.6699  0.6608
  210MOL   C15242370   5.730   2.125   5.703 -0.3183 -0.3181  0.2206
  210MOL   C15342371   5.832   2.133   5.821 -0.5739  0.5172 -0.0638
  210MOL   C15442372   5.973   2.181   5.772  0.1053  0.2229  0.0031
  210MOL   O15542373   6.034   2.274   5.835  0.1032 -0.1792 -0.2254
  210MOL   N15642374   6.037   2.112   5.676 -0.1715  0.1176  0.0359
  210MOL   H15742375   5.760   2.055   5.625 -1.3560 -1.5340  0.8782
  210MOL   H15842376   5.634   2.094   5.744 -0.9366  1.4025  0.0781
  210MOL   H15942377   5.803   2.210   5.893  2.2825  1.3703  0.2211
  210MOL   H16042378   6.128   2.145   5.648 -0.3803 -0.3843 -1.2403
  210MOL   H16142379   6.003   2.033   5.624  1.8284 -0.6890 -0.0873
  210MOL   C16242380   5.838   1.998   5.902 -0.3351  0.2202 -0.6522
  210MOL   C16342381   5.828   2.016   6.057 -0.2903  0.0152  0.7143
  210MOL   C16442382   5.958   2.065   6.116  0.3893  0.0293  0.4836
  210MOL   O16542383   6.047   1.984   6.136  0.0608 -0.4832  0.4697
  210MOL   N16642384   5.961   2.196   6.155 -0.2217 -0.2276 -0.3666
  210MOL   H16742385   5.932   1.944   5.887  0.6215  1.2440  1.3414
  210MOL   H16842386   5.774   1.922   5.858  0.5063 -1.3863  0.8091
  210MOL   H16942387   5.740   2.078   6.071 -0.8280 -0.3570 -0.9814
  210MOL   H17042388   6.047   2.241   6.186 -0.9238  2.6450 -2.3977
  210MOL   H17142389   5.891   2.267   6.140 -0.7324 -0.9088 -1.2188
  210MOL   C17242390   5.789   1.879   6.116 -0.4962 -0.1826 -0.2775
  210MOL   C17342391   5.780   1.867   6.269  0.0790  0.1822 -0.0519
  210MOL   C17442392   5.774   1.719   6.312  0.1160 -0.7372  1.0545
  210MOL   O17542393   5.670   1.658   6.320  0.5702  0.0386  0.2743
  210MOL   N17642394   5.887   1.654   6.339  0.1355  0.1642  0.0666
  210MOL   H17742395   5.860   1.805   6.079 -0.5055 -0.1334 -0.3934
  210MOL   H17842396   5.690   1.882   6.069 -0.5037 -1.2163 -0.3348
  210MOL   H17942397   5.875   1.903   6.310  0.4182  0.1456 -0.8137
  210MOL   H18042398   5.878   1.556   6.363  0.6268 -0.4170 -1.9908
  210MOL   H18142399   5.978   1.698   6.340  0.3274 -0.2553  1.3080
  210MOL   C18242400   5.663   1.939   6.355 -0.5892 -0.2050 -0.1736
  210MOL   C18342401   5.681   2.083   6.394  0.0764  0.1170  0.2097
  210MOL   C18442402   5.789   2.106   6.501  0.3300 -0.3771 -0.6374
  210MOL   O18542403   5.901   2.066   6.483 -0.7769  0.2030  0.7125
  210MOL   N18642404   5.755   2.181   6.607  0.1711  0.2430  0.2633
  210MOL   H18742405   5.622   1.896   6.447  0.6072 -3.0504 -0.9184
  210MOL   H18842406   5.573   1.920   6.296  0.1006 -0.5307 -1.1242
  210MOL   H18942407   5.720   2.131   6.304  0.2795 -1.3192 -0.4778
  210MOL   H19042408   5.665   2.223   6.624  1.5985  3.1323  1.0380
  210MOL   H19142409   5.827   2.194   6.676  1.6827  1.9111 -1.5741
  210MOL   C19242410   5.540   2.150   6.432  0.3502 -0.0676  0.9312
  210MOL   C19342411   5.520   2.304   6.446  0.4932 -0.5581  0.3834
  210MOL   C19442412   5.436   2.366   6.333 -0.0952  0.0755  0.7918
  210MOL   O19542413   5.327   2.418   6.348 -0.3603 -0.2203  0.0871
  210MOL   N19642414   5.499   2.364   6.209  0.1920 -0.2605 -0.0871
  210MOL   H19742415   5.522   2.106   6.530 -0.6935  0.5761  1.0433
  210MOL   H19842416   5.464   2.103   6.370  0.4734  0.2662  0.5248
  210MOL   H19942417   5.462   2.328   6.535 -0.3551  1.0442 -0.5931
  210MOL   H20042418   5.598   2.347   6.199  0.2544  0.7849 -1.4569
  210MOL   H20142419   5.442   2.414   6.141  0.6754 -1.2947 -1.2756
  210MOL   H20242420   5.617   2.354   6.452  1.1654 -1.4307 -2.4904
  211MOL     C142421   4.145   0.089   3.745 -0.0624 -0.5195 -0.0716
  211MOL     C242422   4.198   0.169   3.628 -0.1081 -0.9227 -0.1598
  211MOL     C342423   4.350   0.211   3.648  0.3064  0.2308 -0.4425
  211MOL     O442424   4.381   0.331   3.638  0.0192  0.3908  0.0913
  211MOL     N542425   4.438   0.119   3.685  0.0614  0.1422 -0.0544
  211MOL     H642426   4.047   0.125   3.777 -0.0874 -0.6146 -0.0398
  211MOL     H742427   4.127   7.640   3.726  1.0176 -1.1062  2.1078
  211MOL     H842428   4.205   0.122   3.530 -0.1216 -0.5835 -0.3216
  211MOL     H942429   4.536   0.143   3.696 -0.2538  1.1218  0.6692
  211MOL    H1042430   4.403   0.026   3.703 -2.2810  1.0310  0.1706
  211MOL    H1142431   4.202   0.105   3.836 -1.3074 -0.2594  0.6775
  211MOL    C1242432   4.111   0.302   3.613  1.0799 -0.3413  0.5632
  211MOL    C1342433   3.980   0.286   3.524  0.1391 -0.1302 -0.6556
  211MOL    C1442434   4.010   0.269   3.374 -0.1246 -0.2030  0.0654
  211MOL    O1542435   4.121   0.295   3.320  0.1202  0.5547  0.4793
  211MOL    N1642436   3.909   0.226   3.297  0.1261  0.0539  0.2052
  211MOL    H1742437   4.160   0.388   3.568 -2.3663  1.2642 -0.3022
  211MOL    H1842438   4.084   0.328   3.716 -0.1008 -1.0304  0.4472
  211MOL    H1942439   3.933   0.193   3.554 -0.4234 -0.1906 -1.6840
  211MOL    H2042440   3.925   0.209   3.199 -1.3212 -0.7774  0.1013
  211MOL    H2142441   3.824   0.188   3.337  0.4717  1.0176  1.9495
  211MOL    C2242442   3.890   0.408   3.556  0.5111  0.6912 -0.0741
  211MOL    C2342443   3.748   0.433   3.493 -0.4801  0.1355 -0.2120
  211MOL    C2442444   3.644   0.319   3.510 -0.2216  0.1402 -0.4323
  211MOL    O2542445   3.663   0.216   3.449 -0.0318 -0.2682 -0.1315
  211MOL    N2642446   3.549   0.332   3.599 -0.2955 -0.2295 -0.5443
  211MOL    H2742447   3.943   0.501   3.536  0.6994  1.0647  2.0059
  211MOL    H2842448   3.875   0.412   3.664  1.1765 -3.5778  0.2189
  211MOL    H2942449   3.707   0.509   3.558  1.3385  1.7377 -0.8864
  211MOL    H3042450   3.539   0.417   3.653 -0.1627 -1.2661  1.1343
  211MOL    H3142451   3.480   0.260   3.614  0.1219 -0.9053 -1.7453
  211MOL    C3242452   3.753   0.503   3.355 -0.1600  0.3506  0.1287
  211MOL    C3342453   3.652   0.614   3.336 -0.6427  0.2202  0.8083
  211MOL    C3442454   3.593   0.601   3.192  0.0965 -0.7358  0.1563
  211MOL    O3542455   3.664   0.625   3.095 -0.2919 -0.3647  0.3100
  211MOL    N3642456   3.465   0.573   3.175  0.4185  0.0347  0.1734
  211MOL    H3742457   3.742   0.423   3.282  1.8343  0.5772 -0.4569
  211MOL    H3842458   3.851   0.534   3.318  0.1813 -0.9679 -0.0955
  211MOL    H3942459   3.567   0.607   3.403 -0.9795  0.6567  0.4252
  211MOL    H4042460   3.430   0.576   3.080 -0.3076  0.4765  0.4501
  211MOL    H4142461   3.395   0.553   3.245  1.2679  0.0563  1.0250
  211MOL    C4242462   3.722   0.753   3.361  0.3573 -0.1326 -0.0323
  211MOL    C4342463   3.638   0.863   3.438  0.5101  0.1942  0.0279
  211MOL    C4442464   3.601   0.813   3.575 -0.2983  0.1962 -1.0713
  211MOL    O4542465   3.505   0.744   3.603 -0.1856  0.0929  0.1604
  211MOL    N4642466   3.669   0.858   3.679 -0.0523  0.3041 -0.4187
  211MOL    H4742467   3.754   0.790   3.264  0.3347  0.6030  0.2381
  211MOL    H4842468   3.814   0.744   3.420  0.3584  0.0064 -0.0134
  211MOL    H4942469   3.701   0.949   3.458  0.4414 -0.0064  1.1706
  211MOL    H5042470   3.648   0.797   3.756  1.1977  1.0433  0.5186
  211MOL    H5142471   3.735   0.934   3.690 -1.3689  1.2578  1.1396
  211MOL    C5242472   3.518   0.919   3.361  0.3787 -0.4655  0.3301
  211MOL    C5342473   3.449   1.056   3.413  0.0692  0.2025 -0.0371
  211MOL    C5442474   3.304   1.077   3.359 -0.5075 -0.1206  0.0883
  211MOL    O5542475   3.289   1.103   3.243  0.0688  0.0437 -0.1937
  211MOL    N5642476   3.198   1.069   3.439  0.6200 -0.6803  0.5976
  211MOL    H5742477   3.445   0.840   3.340  2.0383 -1.4556 -1.9327
  211MOL    H5842478   3.561   0.938   3.262 -0.5777  0.1919  0.0379
  211MOL    H5942479   3.451   1.064   3.522 -1.1315 -0.8984  0.0790
  211MOL    H6042480   3.109   1.087   3.395  0.6161  1.2638  1.3321
  211MOL    H6142481   3.204   1.054   3.539 -0.6523 -0.8046  0.6567
  211MOL    C6242482   3.546   1.172   3.381 -0.2146  0.3313 -0.4418
  211MOL    C6342483   3.495   1.319   3.364 -1.1149  0.6614  0.1753
  211MOL    C6442484   3.598   1.410   3.281  0.3344 -0.1299 -0.8579
  211MOL    O6542485   3.715   1.404   3.317 -0.0379  0.1019  1.0370
  211MOL    N6642486   3.558   1.479   3.173 -0.2655  0.7367 -0.0345
  211MOL    H6742487   3.592   1.145   3.285 -0.8351 -3.6092  0.2912
  211MOL    H6842488   3.627   1.168   3.454  0.5664 -1.4751 -1.3693
  211MOL    H6942489   3.404   1.321   3.305 -0.7906 -0.2200 -0.3749
  211MOL    H7042490   3.461   1.467   3.147 -0.6438 -0.3581  1.7365
  211MOL    H7142491   3.622   1.541   3.126 -0.2646  0.5751 -0.2459
  211MOL    C7242492   3.451   1.387   3.494 -0.3982  0.1641 -0.2657
  211MOL    C7342493   3.557   1.400   3.602 -0.3740  0.6045  0.1683
  211MOL    C7442494   3.524   1.297   3.710 -0.8261 -0.5698  0.4877
  211MOL    O7542495   3.413   1.301   3.770  0.6380 -0.3232 -0.5104
  211MOL    N7642496   3.623   1.211   3.741  0.3656 -0.2131 -0.5261
  211MOL    H7742497   3.363   1.334   3.529 -0.7513  1.6750  1.1948
  211MOL    H7842498   3.415   1.485   3.463  2.4981  1.8524  1.4133
  211MOL    H7942499   3.658   1.380   3.565 -0.2900 -1.4830  1.4498
  211MOL    H8042500   3.705   1.193   3.685  0.2770 -0.3400 -0.6163
  211MOL    H8142501   3.608   1.149   3.820  1.5102 -0.7863 -0.7523
  211MOL    C8242502   3.553   1.537   3.674  0.3824  0.0503  0.3293
  211MOL    C8342503   3.668   1.569   3.781 -0.4159  0.1127  0.0399
  211MOL    C8442504   3.596   1.604   3.911 -0.0563  0.0549  1.4714
  211MOL    O8542505   3.576   1.518   3.998 -0.4473  0.3359 -0.3215
  211MOL    N8642506   3.557   1.723   3.929 -0.4780  0.0156  0.3047
  211MOL    H8742507   3.456   1.545   3.723  0.1328  0.2045 -0.1877
  211MOL    H8842508   3.557   1.612   3.595 -0.1192 -1.0578 -0.7665
  211MOL    H8942509   3.728   1.479   3.796  4.1562  2.7721 -1.4774
  211MOL    H9042510   3.563   1.801   3.865  3.0278 -0.2927  0.1417
  211MOL    H9142511   3.505   1.731   4.016 -2.3526  2.3659 -0.9626
  211MOL    C9242512   3.767   1.674   3.743  0.1427  0.1463  0.4874
  211MOL    C9342513   3.846   1.642   3.616  0.1912 -0.0241 -0.1832
  211MOL    C9442514   3.935   1.519   3.627 -0.5463 -0.6347  0.8706
  211MOL    O9542515   4.023   1.511   3.713 -0.0522  0.0311  0.6007
  211MOL    N9642516   3.918   1.419   3.543 -0.1638 -0.2727 -0.1367
  211MOL    H9742517   3.839   1.693   3.822 -0.9884  4.2737  0.6523
  211MOL    H9842518   3.712   1.768   3.731  0.3099  0.3073  0.9716
  211MOL    H9942519   3.770   1.624   3.540 -0.7814  0.6888  0.6041
  211MOL   H10042520   3.863   1.421   3.459  0.3478 -0.6896 -0.4927
  211MOL   H10142521   3.974   1.335   3.547  2.0656  1.1756  0.0826
  211MOL   C10242522   3.937   1.761   3.567 -0.0837  0.0799  0.1533
  211MOL   C10342523   3.992   1.752   3.429 -0.0486 -0.1034 -0.3244
  211MOL   C10442524   4.095   1.860   3.412 -0.2843 -0.4000 -0.7337
  211MOL   O10542525   4.057   1.978   3.426 -1.0393 -0.3632 -0.5819
  211MOL   N10642526   4.219   1.827   3.383  0.0102  0.1717  0.2897
  211MOL   H10742527   4.016   1.778   3.641 -0.9842 -1.3755  1.4812
  211MOL   H10842528   3.874   1.850   3.568  1.0866  0.9071  0.6527
  211MOL   H10942529   4.031   1.650   3.424  0.4806  0.0282  0.8400
  211MOL   H11042530   4.251   1.734   3.360 -0.5694 -0.2833  1.2795
  211MOL   H11142531   4.288   1.898   3.364  0.8880 -0.4850  1.0016
  211MOL   C11242532   3.884   1.750   3.318 -0.7816 -0.0347 -0.3452
  211MOL   C11342533   3.923   1.724   3.166  0.5642 -0.2923 -0.2317
  211MOL   C11442534   3.802   1.741   3.067  0.5629  0.3081 -0.6760
  211MOL   O11542535   3.711   1.664   3.057 -0.2244  0.6240 -0.2651
  211MOL   N11642536   3.808   1.845   2.985  0.0229 -0.5195 -0.3312
  211MOL   H11742537   3.827   1.842   3.324 -1.2165 -0.3458  0.3510
  211MOL   H11842538   3.820   1.665   3.341  0.5366 -0.6194  1.3326
  211MOL   H11942539   3.994   1.803   3.142  0.7430 -0.8874 -1.7140
  211MOL   H12042540   3.741   1.876   2.916  0.6191  2.3150  0.3188
  211MOL   H12142541   3.891   1.902   2.990  0.1818 -0.7701 -0.0284
  211MOL   C12242542   4.004   1.597   3.151  0.3233  0.3156  0.4381
  211MOL   C12342543   4.065   1.572   3.006 -0.2417  0.3035  0.0986
  211MOL   C12442544   3.984   1.455   2.941 -0.5414  0.6890  0.2909
  211MOL   O12542545   3.969   1.349   3.002 -0.1860 -0.2502  0.1754
  211MOL   N12642546   3.927   1.473   2.823  0.1367 -0.0815 -0.2271
  211MOL   H12742547   3.951   1.508   3.185  2.7867 -0.7404  1.6506
  211MOL   H12842548   4.081   1.606   3.228  0.2917  0.7495  0.4223
  211MOL   H12942549   4.041   1.661   2.948  0.4506  0.0910 -0.5367
  211MOL   H13042550   3.858   1.401   2.806  1.7875 -1.3951 -1.5576
  211MOL   H13142551   3.933   1.552   2.761  0.1041  0.1667  0.0840
  211MOL   C13242552   4.217   1.535   3.018 -0.4115 -0.4826 -0.0361
  211MOL   C13342553   4.314   1.631   2.953  0.5270  0.2154  0.0074
  211MOL   C13442554   4.326   1.755   3.037 -0.5303  0.0371 -0.5313
  211MOL   O13542555   4.246   1.847   3.046  0.4902  0.2849 -0.0945
  211MOL   N13642556   4.438   1.763   3.111 -0.3536 -0.3182 -0.5206
  211MOL   H13742557   4.226   1.438   2.971 -1.8994 -0.9412  0.5883
  211MOL   H13842558   4.248   1.508   3.119  1.1318 -1.5449 -0.7870
  211MOL   H13942559   4.411   1.583   2.962 -0.7256 -2.3936  0.0707
  211MOL   H14042560   4.507   1.690   3.113 -0.3200 -0.2602  3.2557
  211MOL   H14142561   4.455   1.847   3.164 -1.1240  0.3007 -1.2435
  211MOL   C14242562   4.276   1.647   2.803  0.7293 -0.2746  0.4749
  211MOL   C14342563   4.382   1.703   2.707 -0.6355 -0.2629 -0.5247
  211MOL   C14442564   4.463   1.811   2.761 -0.1361  0.7607  0.0832
  211MOL   O14542565   4.417   1.925   2.763  0.1552  0.1671 -1.0045
  211MOL   N14642566   4.586   1.788   2.804 -0.1946  0.0554 -0.4887
  211MOL   H14742567   4.189   1.710   2.782  0.6463 -0.3268  0.6656
  211MOL   H14842568   4.248   1.550   2.762  1.3248 -0.5049  0.6025
  211MOL   H14942569   4.450   1.620   2.686  0.3418  0.2197  0.7198
  211MOL   H15042570   4.640   1.861   2.849 -1.1501 -0.2223  1.1904
  211MOL   H15142571   4.622   1.695   2.819  0.1727  0.2230 -0.3211
  211MOL   C15242572   4.328   1.740   2.563 -0.1825 -0.4771  0.5610
  211MOL   C15342573   4.269   1.634   2.465  0.6387  0.1998 -0.5679
  211MOL   C15442574   4.295   1.674   2.320  0.7215 -0.1758  0.2819
  211MOL   O15542575   4.275   1.786   2.275  0.3208 -0.1693  0.4140
  211MOL   N15642576   4.346   1.584   2.231 -0.0997  0.4390  0.0319
  211MOL   H15742577   4.420   1.763   2.509  0.8766 -2.1544  1.6083
  211MOL   H15842578   4.265   1.828   2.572 -0.4667 -0.7042  0.8210
  211MOL   H15942579   4.329   1.544   2.477 -0.7249 -0.4108  1.9161
  211MOL   H16042580   4.370   1.619   2.140 -0.6277  2.7974  0.7507
  211MOL   H16142581   4.360   1.486   2.251  0.5282  0.5997  0.4062
  211MOL   C16242582   4.120   1.596   2.487  0.0292 -0.2419  0.4914
  211MOL   C16342583   4.020   1.712   2.467  0.2198 -0.4874  0.2129
  211MOL   C16442584   3.909   1.720   2.577 -0.3224 -0.1633  0.5686
  211MOL   O16542585   3.862   1.615   2.613  0.0070  0.3954  0.0012
  211MOL   N16642586   3.860   1.838   2.618  0.0921  0.3945 -0.1263
  211MOL   H16742587   4.105   1.555   2.587 -2.2378 -0.6042  0.0272
  211MOL   H16842588   4.101   1.517   2.415 -0.4250 -0.0409  0.3907
  211MOL   H16942589   4.070   1.809   2.471 -1.1865  0.2410  0.6472
  211MOL   H17042590   3.902   1.925   2.589 -0.6461  0.4459 -1.0458
  211MOL   H17142591   3.770   1.838   2.662  0.1201  1.9992 -0.0529
  211MOL   C17242592   3.946   1.692   2.331  0.2260 -0.0784  0.1131
  211MOL   C17342593   3.867   1.815   2.272  0.0476  0.1670  0.3430
  211MOL   C17442594   3.727   1.848   2.327  0.8582 -1.0524  0.3982
  211MOL   O17542595   3.665   1.757   2.381  0.7405 -1.2912  0.3338
  211MOL   N17642596   3.673   1.971   2.299 -0.1132 -0.3794 -0.2549
  211MOL   H17742597   3.882   1.604   2.341  0.6499 -0.5630 -1.3726
  211MOL   H17842598   4.029   1.667   2.265  0.8963  2.0883  0.1142
  211MOL   H17942599   3.924   1.905   2.296 -0.2190  0.2819  0.5457
  211MOL   H18042600   3.733   2.028   2.241 -0.1654 -0.5543 -0.4824
  211MOL   H18142601   3.586   2.009   2.333  0.1983  2.7388 -2.6695
  211MOL   C18242602   3.866   1.800   2.124 -0.0902  0.2688 -0.4228
  211MOL   C18342603   3.977   1.866   2.035 -0.2735  0.0783  1.1150
  211MOL   C18442604   3.966   2.022   2.030  0.3949 -0.3372  0.8066
  211MOL   O18542605   3.867   2.079   2.078 -0.2013 -0.1879  0.6375
  211MOL   N18642606   4.065   2.091   1.971  0.5112 -0.0790  0.0522
  211MOL   H18742607   3.770   1.833   2.085 -0.0036  0.4625 -0.4724
  211MOL   H18842608   3.866   1.694   2.098  0.7671  0.3759 -0.8581
  211MOL   H18942609   4.067   1.866   2.098  0.4410 -1.4109  0.1208
  211MOL   H19042610   4.053   2.192   1.966  1.4673  0.0356  0.0258
  211MOL   H19142611   4.145   2.041   1.935 -0.5890 -2.6382  1.0464
  211MOL   C19242612   3.973   1.797   1.896  0.3217 -0.1105  0.5411
  211MOL   C19342613   4.088   1.691   1.869 -0.4510 -0.1771  0.0157
  211MOL   C19442614   4.061   1.550   1.910  0.3280  0.2573 -0.5735
  211MOL   O19542615   3.946   1.507   1.939  0.2278 -0.1613 -0.3701
  211MOL   N19642616   4.158   1.464   1.913 -0.0175  0.1173  0.3881
  211MOL   H19742617   3.992   1.869   1.817  4.2208 -1.7221 -0.1091
  211MOL   H19842618   3.872   1.768   1.867 -0.0820  0.4097  1.3956
  211MOL   H19942619   4.100   1.689   1.760  0.9479 -1.2227  0.1744
  211MOL   H20042620   4.136   1.370   1.940  0.4281 -0.1288 -0.1020
  211MOL   H20142621   4.252   1.488   1.882 -0.7666 -0.3213 -2.3692
  211MOL   H20242622   4.181   1.730   1.911  0.1339 -0.3997 -1.0513
  212MOL     C142623   1.942   3.918   2.669  1.0760  0.2179  0.5256
  212MOL     C242624   2.038   3.847   2.759 -0.2367  0.4810  0.4557
  212MOL     C342625   1.971   3.716   2.816 -0.5258 -1.0052 -0.4923
  212MOL     O442626   1.892   3.717   2.908 -0.4277 -0.0451 -0.0912
  212MOL     N542627   1.998   3.601   2.751  0.3628  0.3651 -0.4000
  212MOL     H642628   1.971   4.014   2.626  0.1520  0.2131 -0.1156
  212MOL     H742629   1.913   3.856   2.585  4.5375 -0.3007 -0.3614
  212MOL     H842630   2.120   3.814   2.696 -2.2789 -1.2764 -1.3470
  212MOL     H942631   1.967   3.509   2.780  0.7870  0.4422  0.3148
  212MOL    H1042632   2.061   3.618   2.675 -0.6663  0.6322 -1.2030
  212MOL    H1142633   1.851   3.945   2.721  0.8721 -0.8921  0.7415
  212MOL    C1242634   2.089   3.950   2.867  0.3891  0.1314  0.4939
  212MOL    C1342635   2.248   3.956   2.894  0.1462 -0.2487  1.0979
  212MOL    C1442636   2.297   3.814   2.919  0.2622  0.4038  0.0224
  212MOL    O1542637   2.236   3.740   2.996  0.0191 -0.1039  0.2555
  212MOL    N1642638   2.406   3.777   2.855 -0.3964 -0.0045  0.1188
  212MOL    H1742639   2.032   3.938   2.960 -0.2676  2.9009  0.4973
  212MOL    H1842640   2.057   4.046   2.826 -0.5280 -0.9954 -1.5119
  212MOL    H1942641   2.287   3.995   2.800 -1.6189 -0.9392  0.0522
  212MOL    H2042642   2.442   3.684   2.872 -0.6236 -0.1949 -0.4327
  212MOL    H2142643   2.462   3.843   2.802  1.6599 -0.8030  1.2268
  212MOL    C2242644   2.275   4.055   3.014 -0.1024 -0.3234 -0.2259
  212MOL    C2342645   2.420   4.117   3.023 -0.2983  0.2945 -0.0874
  212MOL    C2442646   2.452   4.204   2.902 -0.2585  0.1020  0.8860
  212MOL    O2542647   2.513   4.160   2.804  0.7673  0.4653 -0.5307
  212MOL    N2642648   2.420   4.333   2.911 -0.0791 -0.2126  0.5086
  212MOL    H2742649   2.255   4.000   3.105 -2.7368 -2.1234 -1.8491
  212MOL    H2842650   2.215   4.146   3.009  1.9722  1.0301 -1.5039
  212MOL    H2942651   2.408   4.182   3.110  2.1457 -0.7837  1.0999
  212MOL    H3042652   2.365   4.362   2.991 -0.3286 -1.1505  0.6872
  212MOL    H3142653   2.432   4.401   2.837  3.6773 -0.6099  0.6611
  212MOL    C3242654   2.540   4.014   3.055  0.0910 -0.2834 -0.3445
  212MOL    C3342655   2.672   4.078   3.080  0.6284  0.4149 -0.0547
  212MOL    C3442656   2.785   3.989   3.016  0.4243  0.0674 -0.1537
  212MOL    O3542657   2.871   3.937   3.078  0.0415  0.0890 -0.4295
  212MOL    N3642658   2.768   3.972   2.886 -0.3526 -0.2491 -0.2183
  212MOL    H3742659   2.543   3.937   2.978 -0.0152 -0.0835 -0.5475
  212MOL    H3842660   2.507   3.959   3.143 -0.3979  0.8572  0.1891
  212MOL    H3942661   2.674   4.170   3.021  2.5707 -0.5695 -1.5597
  212MOL    H4042662   2.836   3.925   2.828  1.7358  0.4664  1.5866
  212MOL    H4142663   2.688   4.015   2.841 -0.2577  0.5749  0.3801
  212MOL    C4242664   2.682   4.099   3.231 -0.4732  0.1746  0.3425
  212MOL    C4342665   2.802   4.182   3.280  0.0947 -0.5959  0.0094
  212MOL    C4442666   2.794   4.179   3.434 -0.9297 -0.4165 -0.0726
  212MOL    O4542667   2.897   4.147   3.502 -0.3294 -0.2855 -0.1161
  212MOL    N4642668   2.684   4.222   3.497  0.1061  0.0620 -0.1720
  212MOL    H4742669   2.696   4.001   3.278 -0.4937 -0.4061 -0.8518
  212MOL    H4842670   2.594   4.148   3.273  0.0099  2.2690 -1.0457
  212MOL    H4942671   2.884   4.133   3.228  0.3760 -0.0959 -0.0202
  212MOL    H5042672   2.620   4.283   3.449 -2.5224  0.1805  3.2764
  212MOL    H5142673   2.684   4.231   3.597  2.0482 -0.1364 -0.1434
  212MOL    C5242674   2.801   4.332   3.233  0.6302 -0.6648 -0.8956
  212MOL    C5342675   2.927   4.389   3.159  0.4461 -0.0247  1.0268
  212MOL    C5442676   3.060   4.390   3.226 -0.3673 -0.5682  0.1661
  212MOL    O5542677   3.132   4.488   3.217 -0.2778  0.8209 -0.5859
  212MOL    N5642678   3.089   4.289   3.303  0.4977  0.6162  0.1794
  212MOL    H5742679   2.792   4.401   3.317 -0.9189 -0.7919 -0.9417
  212MOL    H5842680   2.714   4.347   3.169  0.1989 -1.6168 -0.5405
  212MOL    H5942681   2.926   4.325   3.070  0.3057 -0.1176  1.0952
  212MOL    H6042682   3.177   4.288   3.353  0.9737 -0.1609 -0.6500
  212MOL    H6142683   3.021   4.216   3.314 -0.0014  1.2668  1.4895
  212MOL    C6242684   2.889   4.527   3.097  0.2563  0.1259  0.0079
  212MOL    C6342685   2.858   4.644   3.190 -0.1302 -0.7978  1.0035
  212MOL    C6442686   2.712   4.646   3.248 -0.3727 -1.2834 -0.0796
  212MOL    O6542687   2.702   4.656   3.370 -0.5173 -0.0061 -0.2969
  212MOL    N6642688   2.611   4.625   3.166 -0.6957  0.1002 -0.4644
  212MOL    H6742689   2.807   4.502   3.030  1.0748 -0.9323 -0.6250
  212MOL    H6842690   2.963   4.559   3.024 -0.8228  0.3688 -0.9870
  212MOL    H6942691   2.923   4.644   3.277 -0.1571 -0.2633  1.0233
  212MOL    H7042692   2.620   4.601   3.068 -1.4510  0.7536 -0.7016
  212MOL    H7142693   2.515   4.652   3.184  0.4608  4.3229 -0.0486
  212MOL    C7242694   2.881   4.783   3.114 -0.5076  0.1139 -0.2080
  212MOL    C7342695   3.033   4.823   3.078 -0.2512  0.0375  0.0496
  212MOL    C7442696   3.107   4.890   3.190  0.4334  0.6093 -0.5599
  212MOL    O7542697   3.129   5.007   3.182  0.6689  0.1599 -0.2835
  212MOL    N7642698   3.138   4.824   3.303 -0.1059  0.0018 -1.3016
  212MOL    H7742699   2.852   4.867   3.177 -1.1481 -0.1128 -0.1998
  212MOL    H7842700   2.811   4.800   3.032 -0.1096 -1.8073 -0.9641
  212MOL    H7942701   3.081   4.725   3.076 -3.7089 -1.7519  0.1037
  212MOL    H8042702   3.155   4.878   3.387 -1.7381  0.3902 -1.2053
  212MOL    H8142703   3.116   4.726   3.307  0.3056 -0.0235  0.4819
  212MOL    C8242704   3.052   4.884   2.945  0.3536 -0.2845  0.2057
  212MOL    C8342705   3.203   4.876   2.884  0.8548 -0.9253 -0.0290
  212MOL    C8442706   3.238   4.993   2.797  0.0059 -0.5360 -0.1523
  212MOL    O8542707   3.203   4.996   2.678 -0.4805 -0.4074  0.4589
  212MOL    N8642708   3.295   5.101   2.850 -0.9114  0.7590  0.2205
  212MOL    H8742709   3.013   4.986   2.951  4.0249  1.2738 -0.4619
  212MOL    H8842710   2.984   4.835   2.876  2.3505 -0.7867 -1.4888
  212MOL    H8942711   3.269   4.885   2.970 -0.8785 -1.0046  1.3392
  212MOL    H9042712   3.296   5.114   2.950 -0.3204  0.3089  0.2711
  212MOL    H9142713   3.311   5.186   2.798  2.4509 -0.4307 -0.7930
  212MOL    C9242714   3.229   4.741   2.813 -0.0600  0.2573 -0.1453
  212MOL    C9342715   3.271   4.616   2.890  0.1616 -0.0932  0.1808
  212MOL    C9442716   3.400   4.649   2.964 -0.8147 -1.4152  0.3526
  212MOL    O9542717   3.507   4.660   2.904 -0.4691  0.5442  0.3911
  212MOL    N9642718   3.391   4.659   3.095 -0.5069 -0.2667 -0.0591
  212MOL    H9742719   3.313   4.749   2.745  1.1570 -1.6231  1.0849
  212MOL    H9842720   3.137   4.712   2.761 -1.3881 -0.4877  2.4897
  212MOL    H9942721   3.190   4.601   2.961 -0.9026 -0.4890 -1.0980
  212MOL   H10042722   3.464   4.707   3.145  1.1883 -0.2338 -2.4807
  212MOL   H10142723   3.307   4.628   3.142  0.0114  0.2815  1.2389
  212MOL   C10242724   3.278   4.500   2.789 -0.0822  0.0001  0.5078
  212MOL   C10342725   3.355   4.371   2.831 -0.1931  0.4017  0.5999
  212MOL   C10442726   3.365   4.282   2.709 -0.0721 -0.5394 -0.7285
  212MOL   O10542727   3.279   4.273   2.625  0.1228 -0.0762 -0.0254
  212MOL   N10642728   3.467   4.211   2.699  0.3014  0.0643  0.0764
  212MOL   H10742729   3.295   4.531   2.686 -0.3358 -0.2727  0.3820
  212MOL   H10842730   3.174   4.468   2.791 -0.6362  1.8192  2.6575
  212MOL   H10942731   3.455   4.406   2.857  0.3466  0.8273 -1.9442
  212MOL   H11042732   3.551   4.208   2.755  0.2943 -2.9094  0.0055
  212MOL   H11142733   3.458   4.156   2.615 -4.8125  1.0906 -0.1961
  212MOL   C11242734   3.287   4.306   2.951 -0.2167  0.3025 -0.7474
  212MOL   C11342735   3.369   4.211   3.042 -0.4965  0.0961 -0.2464
  212MOL   C11442736   3.501   4.288   3.084 -0.1500 -0.7107  0.0669
  212MOL   O11542737   3.607   4.266   3.027  0.1254  0.8756 -0.0629
  212MOL   N11642738   3.491   4.374   3.186  0.0970 -0.1757  0.1985
  212MOL   H11742739   3.200   4.252   2.915 -1.3957  0.3875  1.8230
  212MOL   H11842740   3.242   4.374   3.024 -0.8379 -0.3122 -0.5452
  212MOL   H11942741   3.316   4.201   3.136 -1.1722  1.2015 -0.5042
  212MOL   H12042742   3.402   4.377   3.234  0.0346  1.3631  0.0021
  212MOL   H12142743   3.565   4.439   3.210 -0.9763  2.1752 -2.4952
  212MOL   C12242744   3.395   4.065   2.985 -0.4729 -0.3026 -0.1494
  212MOL   C12342745   3.267   3.974   2.994  0.3054 -0.3940  0.1388
  212MOL   C12442746   3.251   3.914   3.132  0.0199  0.0201  0.1263
  212MOL   O12542747   3.341   3.886   3.208 -0.3253 -0.3754  0.6475
  212MOL   N12642748   3.126   3.897   3.164 -0.4810  0.2362  0.2178
  212MOL   H12742749   3.483   4.016   3.027  1.0534  0.3215 -2.5509
  212MOL   H12842750   3.441   4.074   2.887  0.3393  0.0635  0.2550
  212MOL   H12942751   3.173   4.027   2.981 -0.1471 -0.7821  1.7529
  212MOL   H13042752   3.050   3.920   3.102 -0.3682  2.1516  0.7572
  212MOL   H13142753   3.110   3.865   3.259  0.9266  0.5772  0.5758
  212MOL   C13242754   3.268   3.858   2.880 -0.1663 -0.1554 -0.4163
  212MOL   C13342755   3.225   3.912   2.740 -0.3100 -0.3177  0.1983
  212MOL   C13442756   3.087   3.978   2.734  0.4159  0.2746 -0.2713
  212MOL   O13542757   2.986   3.909   2.720 -0.1883  0.2272  0.7810
  212MOL   N13642758   3.073   4.114   2.722 -0.3135  0.3938 -0.8223
  212MOL   H13742759   3.201   3.779   2.911 -1.0908  0.6799 -0.2596
  212MOL   H13842760   3.361   3.802   2.870  0.3419 -0.1104  3.3671
  212MOL   H13942761   3.303   3.975   2.698  1.7584 -2.9801 -0.1150
  212MOL   H14042762   3.153   4.175   2.728 -0.7088  0.8111  0.2700
  212MOL   H14142763   2.981   4.148   2.701 -1.5547 -1.3281  1.5634
  212MOL   C14242764   3.231   3.790   2.637  0.1008  0.2390  0.0753
  212MOL   C14342765   3.379   3.742   2.588  0.9622 -0.0364  0.1707
  212MOL   C14442766   3.441   3.849   2.497  0.1439 -0.7217 -0.3995
  212MOL   O14542767   3.499   3.948   2.535 -0.4966  0.6041 -0.3770
  212MOL   N14642768   3.425   3.823   2.370 -0.0500 -0.8163  0.4223
  212MOL   H14742769   3.171   3.803   2.546 -0.8041  0.6349  0.7251
  212MOL   H14842770   3.174   3.714   2.691  0.2135 -0.0003 -0.1406
  212MOL   H14942771   3.444   3.737   2.675 -0.6817 -0.9518  1.3795
  212MOL   H15042772   3.369   3.746   2.340 -0.3442 -1.0559  1.5483
  212MOL   H15142773   3.459   3.895   2.307 -0.9620  0.9167  1.8511
  212MOL   C15242774   3.363   3.604   2.515  0.0635 -0.2551  0.3481
  212MOL   C15342775   3.343   3.475   2.601  0.4568  0.3957 -0.0195
  212MOL   C15442776   3.448   3.470   2.715 -0.3480  0.0999 -0.1283
  212MOL   O15542777   3.564   3.503   2.684  0.0394  0.1569 -0.2309
  212MOL   N15642778   3.408   3.464   2.842  0.1977 -0.3087  0.2851
  212MOL   H15742779   3.447   3.584   2.447 -1.0982  0.9139 -1.4716
  212MOL   H15842780   3.274   3.610   2.453  1.5331  1.4832 -1.6460
  212MOL   H15942781   3.250   3.482   2.657  1.4949  2.4375  1.5167
  212MOL   H16042782   3.310   3.452   2.866  0.1500 -0.7592 -0.1262
  212MOL   H16142783   3.468   3.483   2.921 -1.5624  0.4323  1.4712
  212MOL   C16242784   3.359   3.350   2.521 -0.8354  0.5494  0.0278
  212MOL   C16342785   3.263   3.331   2.402 -0.7021  0.2375  0.1690
  212MOL   C16442786   3.118   3.322   2.449  0.7519 -0.9684 -1.3249
  212MOL   O16542787   3.092   3.224   2.522 -0.0319  0.2769 -0.2635
  212MOL   N16642788   3.025   3.407   2.420  0.6420  0.5810  0.7352
  212MOL   H16742789   3.377   3.253   2.567  0.6010  1.0279  0.5112
  212MOL   H16842790   3.454   3.370   2.471 -0.6235  2.0923  1.0269
  212MOL   H16942791   3.262   3.420   2.340 -1.3286 -1.3930 -2.2190
  212MOL   H17042792   2.929   3.388   2.445  0.5290  0.7455  0.4297
  212MOL   H17142793   3.033   3.482   2.353 -1.1562 -1.5818 -1.9692
  212MOL   C17242794   3.304   3.213   2.310  0.4881  0.3764 -0.9297
  212MOL   C17342795   3.219   3.190   2.185  0.1107  0.3339 -0.5091
  212MOL   C17442796   3.250   3.050   2.136  0.0945 -0.6253 -0.3449
  212MOL   O17542797   3.351   3.024   2.072 -0.4039  0.4559 -0.1556
  212MOL   N17642798   3.153   2.961   2.144 -0.0648  0.4487 -0.5624
  212MOL   H17742799   3.305   3.129   2.380 -1.1881  1.5054  0.4727
  212MOL   H17842800   3.408   3.216   2.277  0.4295  1.4225 -1.0244
  212MOL   H17942801   3.114   3.181   2.214  0.3920 -0.9052  0.1476
  212MOL   H18042802   3.167   2.869   2.105  2.2388  1.0799 -1.2821
  212MOL   H18142803   3.070   2.962   2.201  0.9645 -0.2073  0.9966
  212MOL   C18242804   3.234   3.306   2.083  0.1318 -0.0510  0.0348
  212MOL   C18342805   3.383   3.347   2.035  0.5427 -0.1850 -0.0181
  212MOL   C18442806   3.450   3.459   2.120  0.5981 -0.1582 -0.4117
  212MOL   O18542807   3.392   3.567   2.135  0.6604 -0.2002 -0.6641
  212MOL   N18642808   3.571   3.431   2.169  0.0158  0.1113 -0.3405
  212MOL   H18742809   3.173   3.389   2.120 -1.5738  0.0251 -2.8405
  212MOL   H18842810   3.181   3.283   1.991  0.2476  1.2561 -0.3787
  212MOL   H18942811   3.448   3.260   2.044  0.5782 -0.1848 -0.2640
  212MOL   H19042812   3.627   3.498   2.221  0.7773 -2.0195  1.6806
  212MOL   H19142813   3.610   3.341   2.148  0.2867 -0.5633  2.7354
  212MOL   C19242814   3.395   3.376   1.879 -0.0746  0.5720  0.4459
  212MOL   C19342815   3.529   3.335   1.822  0.3774  0.4663 -0.2156
  212MOL   C19442816   3.550   3.363   1.676 -0.3575 -0.2766 -0.3901
  212MOL   O19542817   3.467   3.424   1.605  0.4017 -0.2432 -0.1119
  212MOL   N19642818   3.668   3.322   1.633  0.6464 -0.1551  0.0714
  212MOL   H19742819   3.369   3.476   1.846  0.8486  1.3071  1.9172
  212MOL   H19842820   3.327   3.306   1.829  1.2633  0.4703 -1.2991
  212MOL   H19942821   3.601   3.389   1.883 -0.8245  2.5172 -0.5390
  212MOL   H20042822   3.679   3.318   1.533  0.6120  1.1115  0.0039
  212MOL   H20142823   3.748   3.305   1.693  0.8909 -0.3895 -0.3249
  212MOL   H20242824   3.543   3.228   1.837 -0.3575  0.2623 -0.9568
  213MOL     C142825   3.369   2.639   6.393 -0.3018 -0.0246 -0.0991
  213MOL     C242826   3.453   2.575   6.499 -0.2932 -0.0153  0.4461
  213MOL     C342827   3.374   2.497   6.604 -0.0071  0.3416  0.5688
  213MOL     O442828   3.273   2.551   6.657 -0.2806  0.5185  0.4017
  213MOL     N542829   3.409   2.373   6.633  0.0123  0.3053  0.1471
  213MOL     H642830   3.304   2.556   6.365 -1.2321  0.2241  1.2458
  213MOL     H742831   3.305   2.721   6.424  0.1756 -0.2514  1.5733
  213MOL     H842832   3.518   2.510   6.441  0.3418  0.9981  0.0142
  213MOL     H942833   3.497   2.334   6.602 -1.6171 -1.7848 -2.0287
  213MOL    H1042834   3.364   2.330   6.712 -2.1299  0.5758 -0.9046
  213MOL    H1142835   3.430   2.670   6.309 -0.1385  2.5730  0.9274
  213MOL    C1242836   3.550   2.681   6.563  0.1920  0.0123  0.3904
  213MOL    C1342837   3.690   2.627   6.586 -0.0627  0.5456  0.4742
  213MOL    C1442838   3.765   2.716   6.685 -0.8060 -0.5834 -0.8418
  213MOL    O1542839   3.796   2.833   6.656  0.3358  0.0347 -0.1396
  213MOL    N1642840   3.819   2.660   6.798  0.4366  0.2709  0.2582
  213MOL    H1742841   3.519   2.726   6.657 -2.5091 -0.6786 -0.1301
  213MOL    H1842842   3.557   2.769   6.500  2.4297 -1.5374 -1.6368
  213MOL    H1942843   3.679   2.533   6.640  2.2336  0.0138  0.0854
  213MOL    H2042844   3.816   2.560   6.811  0.2814  0.4664  1.7869
  213MOL    H2142845   3.880   2.714   6.858  2.7143  0.8412 -2.5004
  213MOL    C2242846   3.773   2.610   6.461 -0.1459 -0.6771  0.2580
  213MOL    C2342847   3.913   2.541   6.474 -0.4410  0.2703 -0.6497
  213MOL    C2442848   4.033   2.641   6.483 -0.5442  0.3313 -0.5346
  213MOL    O2542849   4.033   2.739   6.410  0.3555  0.0756 -0.0970
  213MOL    N2642850   4.135   2.609   6.561 -0.3727 -0.4684 -1.1021
  213MOL    H2742851   3.767   2.705   6.409  1.1610 -0.8032 -0.1379
  213MOL    H2842852   3.718   2.549   6.389  0.3431 -2.5511  1.4467
  213MOL    H2942853   3.914   2.490   6.570  2.4550  2.3454  0.4987
  213MOL    H3042854   4.211   2.674   6.576  1.6062 -2.9497 -0.1350
  213MOL    H3142855   4.129   2.526   6.618  0.8794 -0.7060 -1.3145
  213MOL    C3242856   3.934   2.427   6.372 -0.2559 -0.4078  0.6897
  213MOL    C3342857   4.003   2.469   6.232  0.2812 -0.1841 -0.1896
  213MOL    C3442858   3.933   2.384   6.123 -0.6154 -0.1510  0.3323
  213MOL    O3542859   3.825   2.415   6.077  0.8174  0.2460 -0.8165
  213MOL    N3642860   3.982   2.261   6.095 -0.0702  0.2382  0.6501
  213MOL    H3742861   3.844   2.368   6.351  0.9016 -2.3590  1.0329
  213MOL    H3842862   3.998   2.354   6.423  1.1545  0.2308 -0.1518
  213MOL    H3942863   3.964   2.569   6.212 -0.8526 -0.2114  1.7859
  213MOL    H4042864   3.934   2.207   6.023 -0.8238  0.3411  1.0652
  213MOL    H4142865   4.066   2.233   6.144  0.3283 -2.0391 -1.1967
  213MOL    C4242866   4.160   2.466   6.226 -0.3798 -0.4821  0.5750
  213MOL    C4342867   4.224   2.573   6.132 -0.0175  0.0285 -0.1632
  213MOL    C4442868   4.241   2.512   5.995  0.0770  0.0207  1.3881
  213MOL    O4542869   4.288   2.401   5.984  0.1652 -0.4521 -0.0280
  213MOL    N4642870   4.207   2.590   5.894  0.2230 -0.1712 -0.7094
  213MOL    H4742871   4.199   2.365   6.214 -1.2949 -0.7838  0.1365
  213MOL    H4842872   4.201   2.482   6.326  1.3082 -3.4663  0.4052
  213MOL    H4942873   4.164   2.663   6.130  0.2120  0.1873  0.0672
  213MOL    H5042874   4.152   2.673   5.908 -0.7287 -0.3801 -3.0510
  213MOL    H5142875   4.248   2.569   5.804 -1.9323 -3.0080 -1.0898
  213MOL    C5242876   4.351   2.631   6.193  0.1201 -0.0352  0.0336
  213MOL    C5342877   4.418   2.751   6.120  0.2213  0.3175  0.1652
  213MOL    C5442878   4.558   2.765   6.179 -0.6605  0.5515  0.1725
  213MOL    O5542879   4.569   2.771   6.301 -0.1888 -0.0836  0.2611
  213MOL    N5642880   4.660   2.778   6.096 -0.3233  0.2126 -0.0532
  213MOL    H5742881   4.427   2.554   6.208  0.2505  0.1268  0.2071
  213MOL    H5842882   4.327   2.670   6.292 -0.4374 -1.2970  0.4111
  213MOL    H5942883   4.422   2.738   6.012 -1.1043  1.5102 -0.0304
  213MOL    H6042884   4.648   2.782   5.996 -1.1744  1.5186  0.0851
  213MOL    H6142885   4.748   2.798   6.142  0.4048 -1.1759 -0.8088
  213MOL    C6242886   4.344   2.891   6.142 -0.1748  0.2197  0.1610
  213MOL    C6342887   4.366   2.996   6.034  0.0942 -0.3765 -0.2311
  213MOL    C6442888   4.486   3.086   6.079  0.4152  0.5657 -0.5251
  213MOL    O6542889   4.483   3.147   6.184  0.4510 -0.2331 -0.4416
  213MOL    N6642890   4.594   3.086   6.003  0.2861 -0.6484  0.5109
  213MOL    H6742891   4.363   2.924   6.244  0.0739 -0.6404  0.3896
  213MOL    H6842892   4.238   2.869   6.140 -0.1905  0.3439 -1.0664
  213MOL    H6942893   4.386   2.949   5.938  2.7075  1.1481 -0.4795
  213MOL    H7042894   4.599   3.025   5.924  0.1419  1.0636 -0.8511
  213MOL    H7142895   4.675   3.139   6.033  1.3287 -2.5102  1.0440
  213MOL    C7242896   4.242   3.093   6.020  0.0802  0.2533  0.1797
  213MOL    C7342897   4.246   3.196   5.908  0.6519 -0.7665  0.2141
  213MOL    C7442898   4.125   3.284   5.926 -0.3027 -0.0215 -0.1172
  213MOL    O7542899   4.021   3.271   5.855  0.1982  0.6658  0.1901
  213MOL    N7642900   4.129   3.376   6.022 -0.2041 -0.8063  0.6810
  213MOL    H7742901   4.221   3.143   6.115 -3.1609 -0.2658 -0.2229
  213MOL    H7842902   4.158   3.032   5.989 -0.6437  0.1604  2.2784
  213MOL    H7942903   4.332   3.261   5.922 -0.1396  0.0383  1.4526
  213MOL    H8042904   4.220   3.412   6.047 -0.6660  0.7228  0.2534
  213MOL    H8142905   4.043   3.424   6.047 -1.8956 -3.7098  0.6409
  213MOL    C8242906   4.265   3.121   5.773 -0.0453  0.2674  0.1104
  213MOL    C8342907   4.265   3.201   5.640  0.4976  0.8284  0.4769
  213MOL    C8442908   4.236   3.105   5.523 -0.0919  0.2686 -0.6905
  213MOL    O8542909   4.326   3.057   5.450  0.4328 -0.0927  0.0133
  213MOL    N8642910   4.110   3.062   5.511 -0.0765  0.3413 -0.7880
  213MOL    H8742911   4.181   3.051   5.770  1.0239 -1.0145 -0.4570
  213MOL    H8842912   4.355   3.061   5.781 -0.6884 -0.5887  1.1295
  213MOL    H8942913   4.179   3.268   5.634 -0.3698 -0.4517 -3.1613
  213MOL    H9042914   4.080   2.986   5.453 -1.9153 -0.6041  1.3324
  213MOL    H9142915   4.037   3.109   5.562  1.1443  1.1747  0.2230
  213MOL    C9242916   4.389   3.285   5.623 -0.5088  0.1304  0.1604
  213MOL    C9342917   4.387   3.416   5.532 -0.0952  0.1327 -0.4975
  213MOL    C9442918   4.256   3.507   5.557 -0.0366  0.2155 -0.2376
  213MOL    O9542919   4.146   3.480   5.507 -0.4829  0.3058  0.5375
  213MOL    N9642920   4.264   3.616   5.629 -0.0313 -0.2062  0.0006
  213MOL    H9742921   4.471   3.221   5.589  0.7416  1.0094  1.4653
  213MOL    H9842922   4.418   3.314   5.724  1.8320 -0.4993 -0.2894
  213MOL    H9942923   4.476   3.473   5.557 -0.2780  0.4098 -0.4659
  213MOL   H10042924   4.176   3.665   5.636  0.3336  0.8773 -2.6081
  213MOL   H10142925   4.352   3.639   5.673 -0.0442 -0.6480  0.2536
  213MOL   C10242926   4.399   3.385   5.378  0.4147  0.2124 -0.3864
  213MOL   C10342927   4.533   3.423   5.313 -0.6860  0.4843  0.0719
  213MOL   C10442928   4.632   3.318   5.369 -0.1155 -0.7021  0.1154
  213MOL   O10542929   4.709   3.344   5.460  0.2667  0.2272 -0.3044
  213MOL   N10642930   4.650   3.201   5.305  0.8979 -0.0520 -0.3745
  213MOL   H10742931   4.319   3.442   5.333 -2.8587 -3.3238  0.6638
  213MOL   H10842932   4.365   3.283   5.359 -0.7198  0.4876  0.1103
  213MOL   H10942933   4.529   3.392   5.209  5.1619 -2.8785  0.5937
  213MOL   H11042934   4.714   3.125   5.324  0.5909  0.1960  1.7101
  213MOL   H11142935   4.589   3.176   5.229  1.9826  0.0151 -1.2889
  213MOL   C11242936   4.575   3.573   5.318 -1.0656 -0.2252 -0.3117
  213MOL   C11342937   4.686   3.618   5.217  0.7139  0.7341  0.4912
  213MOL   C11442938   4.640   3.591   5.076  0.2894  0.3445  0.4848
  213MOL   O11542939   4.645   3.479   5.021 -0.1378  0.1108 -0.3363
  213MOL   N11642940   4.583   3.697   5.015 -0.4677 -0.1223 -0.1393
  213MOL   H11742941   4.598   3.598   5.422 -0.5021 -1.8949 -0.0279
  213MOL   H11842942   4.478   3.619   5.298 -1.7270 -1.2946  0.3653
  213MOL   H11942943   4.696   3.726   5.229 -0.3537  0.7716  1.1031
  213MOL   H12042944   4.573   3.789   5.054  0.0275  1.2932 -3.1973
  213MOL   H12142945   4.554   3.689   4.918  0.2445 -0.5299 -0.3247
  213MOL   C12242946   4.826   3.559   5.250 -0.1769  0.4467  0.0639
  213MOL   C12342947   4.945   3.624   5.179 -0.2311  0.2771  0.0854
  213MOL   C12442948   5.071   3.540   5.196  0.1689 -0.3462  0.0661
  213MOL   O12542949   5.122   3.518   5.306  0.6055 -0.0605  0.5173
  213MOL   N12642950   5.130   3.476   5.091 -0.2427 -0.3369 -0.3199
  213MOL   H12742951   4.810   3.452   5.233 -2.9897  0.6642  1.0686
  213MOL   H12842952   4.853   3.569   5.355  1.9216 -1.1565 -0.2916
  213MOL   H12942953   4.916   3.612   5.074 -0.6525 -1.7600  0.3986
  213MOL   H13042954   5.204   3.408   5.104 -1.0644 -0.9436  1.3428
  213MOL   H13142955   5.102   3.500   4.997 -1.0760 -0.1893 -0.0347
  213MOL   C13242956   4.969   3.771   5.216 -0.0399 -0.6152  0.2799
  213MOL   C13342957   4.896   3.875   5.119 -0.0850 -0.2008  0.5478
  213MOL   C13442958   4.951   3.863   4.976  0.1820  0.0832  0.2610
  213MOL   O13542959   5.068   3.874   4.952 -0.6037  0.1424 -0.9016
  213MOL   N13642960   4.864   3.856   4.877  0.6250 -0.6193  0.6481
  213MOL   H13742961   5.076   3.792   5.221 -0.5298  2.1299 -0.0010
  213MOL   H13842962   4.928   3.778   5.317  0.3922  0.4888  0.3820
  213MOL   H13942963   4.789   3.858   5.118 -0.1330  0.0587 -0.9792
  213MOL   H14042964   4.763   3.855   4.882  0.4593  1.4287 -1.2372
  213MOL   H14142965   4.900   3.840   4.784 -1.3607 -0.4480 -0.1814
  213MOL   C14242966   4.901   4.021   5.169 -0.2037 -0.7461 -0.4206
  213MOL   C14342967   4.826   4.134   5.087 -1.1736  0.3876  0.1802
  213MOL   C14442968   4.932   4.229   5.014  0.3098 -0.1642  0.1979
  213MOL   O14542969   4.993   4.311   5.080 -0.4908 -0.5021 -0.3289
  213MOL   N14642970   4.942   4.222   4.884 -0.1171  0.4580  0.9575
  213MOL   H14742971   5.006   4.051   5.175 -0.5104  0.1036  0.9415
  213MOL   H14842972   4.866   4.023   5.272 -0.5365  0.0248 -0.5452
  213MOL   H14942973   4.777   4.092   4.999  0.0929  0.7954 -0.7436
  213MOL   H15042974   4.993   4.303   4.850 -1.1325  0.6990 -0.0194
  213MOL   H15142975   4.896   4.150   4.829 -0.1560  0.7426  0.6127
  213MOL   C15242976   4.738   4.229   5.168 -1.1555  0.6614  0.0725
  213MOL   C15342977   4.624   4.154   5.245  0.1673 -0.0553 -0.5050
  213MOL   C15442978   4.537   4.072   5.143 -0.1681  1.0180  0.3509
  213MOL   O15542979   4.570   3.958   5.120 -0.9016  0.0627 -0.0166
  213MOL   N15642980   4.430   4.128   5.091  0.0591  0.4437 -0.1244
  213MOL   H15742981   4.701   4.312   5.108 -2.3112 -0.2027 -0.4148
  213MOL   H15842982   4.802   4.270   5.246 -2.2035  0.1107  1.2450
  213MOL   H15942983   4.655   4.083   5.321 -2.7908  0.0596  0.8954
  213MOL   H16042984   4.377   4.061   5.037  0.0228 -1.0019  1.6528
  213MOL   H16142985   4.401   4.210   5.143  1.9278  1.5857 -0.8527
  213MOL   C16242986   4.546   4.252   5.324 -0.5382 -0.8019 -0.1638
  213MOL   C16342987   4.421   4.199   5.396 -0.3614  0.0090  0.5181
  213MOL   C16442988   4.365   4.302   5.497  1.2414  0.3191 -0.2491
  213MOL   O16542989   4.431   4.360   5.578 -0.0530 -0.1637  0.0528
  213MOL   N16642990   4.241   4.329   5.485  1.0365  0.0431  0.5239
  213MOL   H16742991   4.513   4.332   5.258 -0.5493 -0.6271  0.0529
  213MOL   H16842992   4.621   4.291   5.393 -0.7386 -0.5295 -0.1003
  213MOL   H16942993   4.339   4.191   5.324 -0.4949 -1.2659  0.7844
  213MOL   H17042994   4.207   4.400   5.548  1.2036  0.7022 -0.1219
  213MOL   H17142995   4.177   4.277   5.426  2.1661  0.1732 -0.8286
  213MOL   C17242996   4.443   4.059   5.475  0.2412 -0.3649 -0.1115
  213MOL   C17342997   4.314   3.989   5.532  0.2019  0.2402  0.5327
  213MOL   C17442998   4.194   3.988   5.433  0.3261 -0.2392 -0.0459
  213MOL   O17542999   4.131   4.091   5.412  0.5854 -0.2414 -0.2162
  213MOL   N17643000   4.172   3.873   5.369 -0.1742  0.7653  0.3996
  213MOL   H17743001   4.509   4.081   5.559 -0.6361 -1.4304  0.8923
  213MOL   H17843002   4.488   3.981   5.414  2.3812  0.9563 -0.2799
  213MOL   H17943003   4.349   3.886   5.538 -0.6000 -0.0050  1.1366
  213MOL   H18043004   4.231   3.795   5.394 -0.2694  0.0802 -1.4067
  213MOL   H18143005   4.093   3.855   5.310 -1.5324  1.0863  2.0882
  213MOL   C18243006   4.273   4.037   5.674  0.7285  0.8629 -0.2930
  213MOL   C18343007   4.202   3.943   5.762  0.3802 -0.1630 -0.8065
  213MOL   C18443008   4.105   4.020   5.847 -0.2505  0.2978 -0.0288
  213MOL   O18543009   4.128   4.128   5.895 -0.3502  0.2190 -0.4100
  213MOL   N18643010   3.989   3.954   5.866  0.0731  0.4342 -0.2788
  213MOL   H18743011   4.206   4.122   5.661 -0.0414  0.4506  0.9226
  213MOL   H18843012   4.356   4.079   5.731 -1.4342 -0.4236  4.0083
  213MOL   H18943013   4.155   3.871   5.695 -0.8875  1.4516 -1.7019
  213MOL   H19043014   3.913   3.990   5.922 -1.3758 -0.9736 -1.3004
  213MOL   H19143015   3.974   3.872   5.808  1.4889 -0.6450  0.8241
  213MOL   C19243016   4.306   3.874   5.853 -0.1008 -0.1950 -0.4711
  213MOL   C19343017   4.237   3.758   5.921  0.3668  0.2460 -0.8706
  213MOL   C19443018   4.343   3.656   5.978 -0.0572 -0.0057 -0.4269
  213MOL   O19543019   4.350   3.535   5.946  0.4170 -0.1259 -0.3026
  213MOL   N19643020   4.423   3.698   6.071  0.1608  0.1847 -0.1692
  213MOL   H19743021   4.345   3.947   5.924 -0.2953 -0.7659  0.2213
  213MOL   H19843022   4.386   3.839   5.788 -0.5321 -0.6495 -0.7603
  213MOL   H19943023   4.188   3.811   6.003  1.7063  1.5034 -0.8509
  213MOL   H20043024   4.424   3.796   6.096  3.4326  0.1047  0.1395
  213MOL   H20143025   4.472   3.635   6.133 -1.6311 -1.3640 -0.2640
  213MOL   H20243026   4.161   3.699   5.870 -1.4691  1.2546  0.6374
  214MOL     C143027   7.625   1.232   0.873  0.9249 -0.7236  0.1968
  214MOL     C243028   0.115   1.212   0.910  0.0147  0.2175 -0.5623
  214MOL     C343029   0.159   1.066   0.903  0.0793  0.3411  0.2043
  214MOL     O443030   0.140   0.990   0.999  0.6967  0.4696  0.3223
  214MOL     N543031   0.217   1.022   0.797  0.4353 -0.2666 -0.0062
  214MOL     H643032   7.601   1.337   0.886 -1.0513 -1.1557  0.2298
  214MOL     H743033   7.604   1.213   0.767 -0.1963 -3.7118  0.9200
  214MOL     H843034   0.179   1.265   0.839  1.0762 -1.5917 -0.9723
  214MOL     H943035   0.258   0.930   0.799 -1.1999 -0.9947  0.7273
  214MOL    H1043036   0.218   1.072   0.709 -2.2929 -0.3633 -0.1611
  214MOL    H1143037   7.554   1.175   0.933 -0.5817 -1.6221 -2.3137
  214MOL    C1243038   0.141   1.278   1.050 -0.0412  1.1882  1.2244
  214MOL    C1343039   0.289   1.302   1.078 -0.1350  0.5376 -1.0004
  214MOL    C1443040   0.321   1.270   1.226 -0.2289  0.0888  0.0503
  214MOL    O1543041   0.249   1.302   1.322  0.0446  0.1532  0.3182
  214MOL    N1643042   0.434   1.208   1.251 -0.8138  0.2758  0.3250
  214MOL    H1743043   0.101   1.222   1.135 -1.5958  0.7947  0.2590
  214MOL    H1843044   0.087   1.372   1.058 -2.8595 -0.3817  1.3189
  214MOL    H1943045   0.339   1.234   1.009  1.3494 -0.5980  1.1626
  214MOL    H2043046   0.448   1.180   1.347 -0.9994 -1.8298 -0.2262
  214MOL    H2143047   0.485   1.183   1.168 -2.3590 -1.1803 -0.2311
  214MOL    C2243048   0.335   1.447   1.032 -0.6393 -0.0603 -0.5973
  214MOL    C2343049   0.332   1.498   0.885 -0.7687 -0.0953  0.2833
  214MOL    C2443050   0.418   1.409   0.794  0.1695 -0.1268  0.1096
  214MOL    O2543051   0.536   1.396   0.825  0.1035  0.6212 -0.1002
  214MOL    N2643052   0.365   1.350   0.681  0.1079 -0.9791 -0.4231
  214MOL    H2743053   0.438   1.457   1.068 -0.7284  0.8840 -0.5940
  214MOL    H2843054   0.276   1.518   1.091 -0.6242 -0.2965 -0.2981
  214MOL    H2943055   0.231   1.484   0.847 -0.6009 -1.3945  0.2955
  214MOL    H3043056   0.420   1.281   0.630  0.5870  0.2080 -1.5319
  214MOL    H3143057   0.282   1.396   0.648  1.4019  2.0860  0.4145
  214MOL    C3243058   0.357   1.652   0.874 -0.0060 -0.5830 -0.0578
  214MOL    C3343059   0.270   1.731   0.777 -0.0523 -0.5447  0.0674
  214MOL    C3443060   0.285   1.678   0.637  0.2279  0.5726 -0.6432
  214MOL    O3543061   0.193   1.603   0.599  0.0363 -0.0428 -0.3152
  214MOL    N3643062   0.382   1.714   0.553 -0.2389  0.6008  0.0332
  214MOL    H3743063   0.459   1.678   0.844 -0.8870  1.6310 -1.2443
  214MOL    H3843064   0.352   1.697   0.973  1.4718 -1.4418  0.4254
  214MOL    H3943065   0.171   1.703   0.813  0.5076 -2.9744 -0.2136
  214MOL    H4043066   0.445   1.787   0.583  0.8943 -0.6016  0.5966
  214MOL    H4143067   0.397   1.687   0.457 -2.4268 -1.0715  0.1224
  214MOL    C4243068   0.297   1.885   0.776  0.3366 -0.1114  0.5250
  214MOL    C4343069   0.203   1.959   0.874  0.0106  0.3009  0.2972
  214MOL    C4443070   0.056   1.939   0.824  0.0967  0.1728  0.2015
  214MOL    O4543071   0.020   1.992   0.715  0.1832 -0.2626 -0.5590
  214MOL    N4643072   7.628   1.855   0.889 -0.1191 -0.0318  0.6276
  214MOL    H4743073   0.272   1.922   0.677 -2.7317 -0.6082  1.0715
  214MOL    H4843074   0.402   1.900   0.800  0.5516 -0.7087 -0.0531
  214MOL    H4943075   0.214   1.901   0.966 -1.2896  1.0975  0.9767
  214MOL    H5043076   7.544   1.837   0.836  0.7011  2.7149 -1.6845
  214MOL    H5143077   7.654   1.806   0.974  0.9385  0.1856  0.4449
  214MOL    C5243078   0.238   2.108   0.885 -0.9955 -0.5518  0.3953
  214MOL    C5343079   0.371   2.151   0.956 -0.8459 -0.3948 -0.3382
  214MOL    C5443080   0.486   2.163   0.855  0.4020 -0.1343 -0.5389
  214MOL    O5543081   0.483   2.237   0.761 -0.6063 -0.3288  0.4777
  214MOL    N5643082   0.594   2.085   0.865 -0.1971 -0.2533 -0.2453
  214MOL    H5743083   0.156   2.153   0.941  0.2094  1.5858  0.4948
  214MOL    H5843084   0.232   2.161   0.790 -1.8029 -1.9834 -0.3799
  214MOL    H5943085   0.358   2.255   0.987  0.0274  0.1491 -1.7673
  214MOL    H6043086   0.660   2.098   0.789 -2.6862 -2.9721 -3.0648
  214MOL    H6143087   0.609   2.006   0.926  0.7057 -0.1698 -0.3504
  214MOL    C6243088   0.413   2.074   1.080 -0.3041 -0.3996  0.7550
  214MOL    C6343089   0.319   2.104   1.200 -0.0792 -0.5847  0.1234
  214MOL    C6443090   0.337   2.246   1.250 -0.3339  0.0925  0.1022
  214MOL    O6543091   0.446   2.282   1.303 -0.5269 -0.0841 -0.0476
  214MOL    N6643092   0.239   2.340   1.250 -0.2565 -0.6775 -0.8971
  214MOL    H6743093   0.516   2.085   1.115 -0.2869  0.3977  0.4720
  214MOL    H6843094   0.412   1.970   1.049 -1.5359  0.1524 -1.1959
  214MOL    H6943095   0.218   2.107   1.158  0.5877 -0.7243 -1.5405
  214MOL    H7043096   0.153   2.317   1.202 -1.8944  0.7388  1.2486
  214MOL    H7143097   0.257   2.435   1.278  0.0554 -0.6866 -1.0637
  214MOL    C7243098   0.330   2.008   1.320 -0.6970  0.0430  0.1129
  214MOL    C7343099   0.190   1.960   1.380 -0.2058 -0.1487 -0.7653
  214MOL    C7443100   0.107   1.871   1.282 -0.1342  0.1408 -0.0243
  214MOL    O7543101   0.011   1.923   1.216  0.1017 -0.1443 -0.6731
  214MOL    N7643102   0.147   1.742   1.276 -0.0126 -1.0783  0.0724
  214MOL    H7743103   0.401   2.034   1.399 -0.1785 -0.1227 -0.2982
  214MOL    H7843104   0.369   1.915   1.280  1.6894  0.1182  2.1281
  214MOL    H7943105   0.203   1.890   1.463 -0.1915  0.6852 -0.0504
  214MOL    H8043106   0.103   1.682   1.207  0.4605 -0.4523 -0.7781
  214MOL    H8143107   0.220   1.703   1.334  0.8868 -0.7757 -0.8431
  214MOL    C8243108   0.098   2.072   1.437  0.2951 -0.1233  0.5140
  214MOL    C8343109   7.628   2.033   1.525 -1.0848 -0.1384 -0.5765
  214MOL    C8443110   7.558   2.160   1.575  0.9219 -0.1519  0.1226
  214MOL    O8543111   7.626   2.262   1.588  0.2668  0.0961  0.5166
  214MOL    N8643112   7.428   2.157   1.611  0.2440 -0.0988 -0.2156
  214MOL    H8743113   0.058   2.126   1.351  0.4687 -0.9806 -0.1086
  214MOL    H8843114   0.155   2.152   1.486 -0.1488  0.5384 -0.0426
  214MOL    H8943115   7.560   1.993   1.449 -1.6453  0.8276 -0.5896
  214MOL    H9043116   7.384   2.067   1.613 -1.5174  0.7505 -0.1225
  214MOL    H9143117   7.380   2.232   1.658  2.1427 -0.9972  3.3342
  214MOL    C9243118   7.652   1.938   1.637 -0.5588  0.2632 -0.5371
  214MOL    C9343119   0.070   2.001   1.762  0.2561  0.7062 -1.2925
  214MOL    C9443120   0.215   2.019   1.730 -0.4823  0.8657  0.2280
  214MOL    O9543121   0.278   1.926   1.691  0.0639  0.5894 -0.5890
  214MOL    N9643122   0.277   2.133   1.742 -0.2356 -0.0422 -0.0341
  214MOL    H9743123   0.044   1.845   1.606 -0.6501 -0.7073  2.1284
  214MOL    H9843124   7.561   1.896   1.679 -0.2277  1.5668  1.5705
  214MOL    H9943125   0.046   2.106   1.771 -1.2549  0.5411 -2.9741
  214MOL   H10043126   0.225   2.203   1.791 -0.7561 -0.6456  0.2784
  214MOL   H10143127   0.377   2.142   1.734 -0.3852  0.6619 -1.2658
  214MOL   C10243128   0.048   1.932   1.899 -0.0194  0.1451  0.9452
  214MOL   C10343129   0.032   1.775   1.892 -0.0401  0.4646 -0.2867
  214MOL   C10443130   7.540   1.731   1.890  0.2081 -0.0981  0.1030
  214MOL   O10543131   7.460   1.774   1.972 -0.8344 -0.5169 -0.1305
  214MOL   N10643132   7.501   1.654   1.792 -0.3017  0.0807 -0.7204
  214MOL   H10743133   7.612   1.973   1.938 -0.6537  0.1051 -0.5033
  214MOL   H10843134   0.122   1.962   1.973  0.8622 -0.7039  0.4103
  214MOL   H10943135   0.079   1.747   1.798  0.1915  1.3208 -0.4312
  214MOL   H11043136   7.570   1.633   1.721 -1.8176  2.0160 -2.8363
  214MOL   H11143137   7.405   1.623   1.786  0.1888 -1.7745  0.6477
  214MOL   C11243138   0.103   1.695   2.007 -0.1355  0.4554  0.1090
  214MOL   C11343139   0.238   1.632   1.974  0.0197 -0.2479  0.7423
  214MOL   C11443140   0.235   1.560   1.837  0.2065  0.4152 -0.3116
  214MOL   O11543141   0.160   1.459   1.826  0.9101  0.4950 -0.4263
  214MOL   N11643142   0.310   1.603   1.734  0.3779 -0.7947 -0.4220
  214MOL   H11743143   0.046   1.605   2.030  3.0458 -1.3667  1.2442
  214MOL   H11843144   0.106   1.754   2.098 -2.2617 -0.0347  0.5182
  214MOL   H11943145   0.305   1.717   1.959  0.6650 -1.1121 -1.4079
  214MOL   H12043146   0.365   1.687   1.749 -0.6674 -0.3069  0.8058
  214MOL   H12143147   0.302   1.547   1.651 -1.5010 -0.9825 -0.1370
  214MOL   C12243148   0.292   1.544   2.093  0.5584 -0.0899  0.0950
  214MOL   C12343149   0.452   1.520   2.096  0.5283  0.5550  0.6580
  214MOL   C12443150   0.507   1.414   2.000 -0.3764 -0.5965  0.0664
  214MOL   O12543151   0.482   1.295   2.008  0.1710 -0.6639  0.0347
  214MOL   N12643152   0.569   1.464   1.891 -0.1930  0.5590 -0.7365
  214MOL   H12743153   0.250   1.444   2.089  0.5909 -0.1913  1.8054
  214MOL   H12843154   0.254   1.570   2.192  0.0045  0.2405 -0.2037
  214MOL   H12943155   0.501   1.615   2.076  0.1626  1.0058  1.8411
  214MOL   H13043156   0.595   1.392   1.825  0.0536  0.4407 -0.5153
  214MOL   H13143157   0.551   1.557   1.856  0.5832  1.8706  2.1409
  214MOL   C13243158   0.499   1.502   2.241 -0.1159  0.7326 -0.5008
  214MOL   C13343159   0.635   1.439   2.278  0.1182 -0.0459 -0.0573
  214MOL   C13443160   0.639   1.393   2.431  0.1810  0.3846  0.7620
  214MOL   O13543161   0.679   1.471   2.519 -0.5071  0.0534  0.0459
  214MOL   N13643162   0.633   1.259   2.451 -0.3767 -0.5287 -0.4374
  214MOL   H13743163   0.425   1.441   2.293 -0.2171  1.7045  0.5110
  214MOL   H13843164   0.496   1.602   2.284  0.4577  1.4230 -2.0378
  214MOL   H13943165   0.639   1.347   2.219  0.0170  0.4489 -0.8458
  214MOL   H14043166   0.631   1.205   2.536  0.8659 -0.0811 -0.1264
  214MOL   H14143167   0.604   1.208   2.369 -1.3548 -0.3502 -0.2169
  214MOL   C14243168   0.755   1.521   2.232 -0.1537  0.2088  0.1534
  214MOL   C14343169   0.897   1.454   2.229 -0.1187 -0.0306  0.5365
  214MOL   C14443170   1.009   1.565   2.227  0.0748  0.5707 -0.3777
  214MOL   O14543171   1.043   1.627   2.126 -0.4847 -0.2784  0.0231
  214MOL   N14643172   1.079   1.589   2.335  0.0564  0.7229  0.0119
  214MOL   H14743173   0.769   1.594   2.311 -0.3755  0.3321  0.0794
  214MOL   H14843174   0.732   1.577   2.141 -0.2218  0.3154  0.2379
  214MOL   H14943175   0.907   1.398   2.322  1.4104  2.1348  1.7046
  214MOL   H15043176   1.158   1.652   2.328  0.2862  0.2489 -1.9381
  214MOL   H15143177   1.047   1.575   2.430 -0.8269 -0.4343 -0.4510
  214MOL   C15243178   0.909   1.359   2.109  0.4676 -0.0724 -0.3869
  214MOL   C15343179   1.026   1.254   2.116 -0.1637 -0.2822 -0.6632
  214MOL   C15443180   1.119   1.282   1.995 -0.2458  0.1960 -0.0912
  214MOL   O15543181   1.085   1.256   1.881 -0.2738 -0.5668  0.1763
  214MOL   N15643182   1.236   1.343   2.010  0.4061  0.4398  0.3151
  214MOL   H15743183   0.914   1.417   2.016 -3.1052 -1.0628 -1.3042
  214MOL   H15843184   0.817   1.300   2.108  0.5891 -0.2828 -2.5953
  214MOL   H15943185   1.081   1.296   2.201  0.0162 -2.1192  0.1600
  214MOL   H16043186   1.285   1.374   1.927 -2.9220 -1.0108 -2.2776
  214MOL   H16143187   1.263   1.380   2.100  0.6269  1.7206 -0.2610
  214MOL   C16243188   1.008   1.102   2.138 -0.3038 -0.4052  0.0587
  214MOL   C16343189   0.957   1.064   2.277 -0.6914  0.3982 -0.2231
  214MOL   C16443190   1.075   1.082   2.381  0.0816  0.2034 -0.8238
  214MOL   O16543191   1.176   1.016   2.378  0.3537  0.2240  0.0751
  214MOL   N16643192   1.050   1.163   2.489  0.0369  0.0900 -0.0032
  214MOL   H16743193   1.096   1.044   2.109 -1.0025 -2.1898  1.4665
  214MOL   H16843194   0.935   1.065   2.066  1.3583  0.7472 -2.3209
  214MOL   H16943195   0.877   1.129   2.313 -1.4433 -0.8837  0.4231
  214MOL   H17043196   0.952   1.186   2.500 -0.2762 -0.8824 -0.6891
  214MOL   H17143197   1.116   1.146   2.563  1.2503  1.5866 -0.7157
  214MOL   C17243198   0.918   0.913   2.276 -0.0672 -0.4644  0.0713
  214MOL   C17343199   0.778   0.890   2.325 -0.1469  0.0669  0.2309
  214MOL   C17443200   0.765   0.921   2.479  0.0180  0.3107  0.6666
  214MOL   O17543201   0.851   0.895   2.555 -0.4773 -0.1237  0.4426
  214MOL   N17643202   0.661   0.995   2.512 -0.0114 -0.0439  0.0095
  214MOL   H17743203   0.984   0.845   2.330  1.5503  0.3385 -0.8686
  214MOL   H17843204   0.932   0.878   2.174 -0.8468 -0.0667 -0.1772
  214MOL   H17943205   0.707   0.945   2.263 -0.1036  0.0323  0.1505
  214MOL   H18043206   0.638   0.994   2.611 -1.1263 -3.0133 -0.2371
  214MOL   H18143207   0.590   1.015   2.444  0.0086  0.7887  0.2185
  214MOL   C18243208   0.735   0.738   2.312  0.8734 -0.0999  0.4579
  214MOL   C18343209   0.755   0.673   2.170  0.8114  0.0680  0.3133
  214MOL   C18443210   0.697   0.757   2.059  0.3201 -0.2872  0.3197
  214MOL   O18543211   0.582   0.792   2.054 -0.4299 -0.6588  0.0507
  214MOL   N18643212   0.787   0.797   1.972  1.1505 -0.1106  0.7683
  214MOL   H18743213   0.633   0.732   2.351  0.5680  1.4228 -0.0458
  214MOL   H18843214   0.778   0.676   2.390  0.9967 -4.6951 -3.0401
  214MOL   H18943215   0.862   0.664   2.152  1.1226 -0.5111  2.2439
  214MOL   H19043216   0.884   0.785   1.997  1.2953 -1.3118 -0.2955
  214MOL   H19143217   0.758   0.858   1.897  0.8080  1.7010  2.3637
  214MOL   C19243218   0.676   0.539   2.177 -0.1026  0.2354  0.0864
  214MOL   C19343219   0.725   0.437   2.066  0.3388 -0.3330 -0.2442
  214MOL   C19443220   0.825   0.348   2.135  0.3004 -0.0701 -0.4352
  214MOL   O19543221   0.943   0.369   2.139  0.9010 -0.3482  0.0360
  214MOL   N19643222   0.775   0.235   2.186 -0.3245  0.2871  0.2253
  214MOL   H19743223   0.575   0.559   2.143 -0.4914 -0.4389  0.8183
  214MOL   H19843224   0.669   0.503   2.280  0.1142 -0.3557 -0.1005
  214MOL   H19943225   0.641   0.371   2.048  0.3869 -0.8778  1.4370
  214MOL   H20043226   0.677   0.217   2.201  0.2188 -0.7191  2.7913
  214MOL   H20143227   0.847   0.188   2.238 -0.5502  1.2172  1.3971
  214MOL   H20243228   0.750   0.495   1.977  1.7904 -0.1867  0.2463
  215MOL     C143229   6.254   6.459   6.332  0.0306 -0.3587 -0.4100
  215MOL     C243230   6.275   6.556   6.212  0.7371  0.1478 -0.0271
  215MOL     C343231   6.423   6.595   6.193 -0.3504  0.3052 -0.3345
  215MOL     O443232   6.495   6.633   6.286  0.1539  0.2854 -0.0794
  215MOL     N543233   6.479   6.585   6.073 -0.8628  0.3302 -0.4789
  215MOL     H643234   6.182   6.384   6.300 -0.0595  0.0750 -1.2314
  215MOL     H743235   6.339   6.411   6.381 -0.4501  0.2214  1.0192
  215MOL     H843236   6.254   6.491   6.127  1.6176  0.8483 -0.7964
  215MOL     H943237   6.573   6.623   6.064 -0.4115 -0.7352 -0.3693
  215MOL    H1043238   6.429   6.547   5.994  0.2257 -0.2421 -0.8972
  215MOL    H1143239   6.207   6.517   6.412  2.7091  0.5705  0.5561
  215MOL    C1243240   6.189   6.681   6.204  0.4137  0.1074 -0.3285
  215MOL    C1343241   6.035   6.661   6.213 -0.5490  0.1666 -0.0421
  215MOL    C1443242   5.984   6.609   6.076  0.7389 -0.0232  0.6095
  215MOL    O1543243   5.978   6.683   5.977  1.3740  0.2098 -0.1386
  215MOL    N1643244   5.927   6.491   6.082  0.1107 -0.0470  0.0076
  215MOL    H1743245   6.213   6.740   6.116  0.6468 -0.4427 -0.6322
  215MOL    H1843246   6.227   6.730   6.294  1.1859  1.2324 -1.2478
  215MOL    H1943247   6.022   6.587   6.293  1.7430 -0.2525 -0.0227
  215MOL    H2043248   5.918   6.436   6.166  0.2191  0.3284  0.2605
  215MOL    H2143249   5.869   6.466   6.002 -2.0385 -0.8964  1.7802
  215MOL    C2243250   5.967   6.787   6.256 -0.0194 -0.2325  0.2157
  215MOL    C2343251   5.905   6.804   6.389 -0.9724  0.6071 -1.2604
  215MOL    C2443252   5.803   6.688   6.412  0.3382  0.4328  0.1917
  215MOL    O2543253   5.711   6.677   6.330  0.0381 -0.1186 -0.3302
  215MOL    N2643254   5.810   6.610   6.521  0.1779  0.1243 -0.6580
  215MOL    H2743255   5.885   6.806   6.186  0.0686 -1.3678 -0.2025
  215MOL    H2843256   6.038   6.870   6.246 -0.0845  0.0165  1.7673
  215MOL    H2943257   5.981   6.804   6.468  0.6375  0.9725 -2.7755
  215MOL    H3043258   5.882   6.627   6.590 -2.4749 -1.9482  2.7824
  215MOL    H3143259   5.733   6.553   6.554 -1.5281  1.5911 -2.0686
  215MOL    C3243260   5.835   6.944   6.403 -0.1516  0.3604 -0.3708
  215MOL    C3343261   5.803   6.990   6.543 -0.1553  0.5720 -1.3739
  215MOL    C3443262   5.678   6.921   6.598  0.5764  1.3089 -0.4194
  215MOL    O3543263   5.676   6.867   6.711 -0.3025  0.0329 -0.1724
  215MOL    N3643264   5.563   6.930   6.534  0.2605  0.1911 -0.0493
  215MOL    H3743265   5.745   6.930   6.344 -0.2560  0.9546 -0.3576
  215MOL    H3843266   5.895   7.016   6.346 -0.9036  0.0688 -1.5304
  215MOL    H3943267   5.877   6.944   6.609 -1.2262 -0.1872 -0.6876
  215MOL    H4043268   5.492   6.861   6.548  1.1699 -0.9818 -1.0724
  215MOL    H4143269   5.570   6.990   6.453 -2.4555  0.7264  0.0756
  215MOL    C4243270   5.802   7.143   6.568  0.0348  0.4276 -0.3890
  215MOL    C4343271   5.926   7.221   6.525 -0.5147  0.3252  0.1562
  215MOL    C4443272   6.056   7.145   6.568 -0.0211 -0.4480 -0.0972
  215MOL    O4543273   6.100   7.138   6.683 -0.3269  0.2565 -0.3666
  215MOL    N4643274   6.138   7.104   6.478  0.0228  0.2757 -0.1488
  215MOL    H4743275   5.800   7.159   6.676  0.8349  2.0952 -0.5964
  215MOL    H4843276   5.712   7.186   6.524 -0.2208 -0.4275 -0.6948
  215MOL    H4943277   5.938   7.222   6.417  0.9172  1.4794  0.3045
  215MOL    H5043278   6.228   7.067   6.505  0.6584  0.9553 -1.2995
  215MOL    H5143279   6.105   7.116   6.383  0.7780  1.4961 -0.2661
  215MOL    C5243280   5.913   7.362   6.582 -0.6811  0.0973  0.4715
  215MOL    C5343281   6.012   7.482   6.564  0.0567 -0.8476  0.4982
  215MOL    C5443282   5.970   7.600   6.650  0.1479 -0.2781 -0.6132
  215MOL    O5543283   5.850   7.619   6.674 -0.1463  0.2179 -0.1576
  215MOL    N5643284   6.070   0.021   6.701  1.0515  0.0275 -0.8492
  215MOL    H5743285   5.905   7.348   6.690  1.3471 -0.3243  0.5798
  215MOL    H5843286   5.813   7.394   6.554 -0.6248  1.2771  1.5535
  215MOL    H5943287   6.110   7.454   6.603  0.3988 -2.7392 -1.6428
  215MOL    H6043288   6.162   7.636   6.705  1.1481  0.2297 -0.8911
  215MOL    H6143289   6.042   0.090   6.769 -1.1190 -1.2656 -0.3973
  215MOL    C6243290   6.026   7.533   6.417 -0.2278 -0.0997 -0.3429
  215MOL    C6343291   6.143   7.480   6.334 -0.0678  0.3324 -1.0717
  215MOL    C6443292   6.280   7.534   6.382  0.1513 -0.6067 -0.0769
  215MOL    O6543293   6.290   7.646   6.426 -0.1867 -0.4573  0.1689
  215MOL    N6643294   6.388   7.458   6.359  0.2602 -0.0763  0.1938
  215MOL    H6743295   6.021   7.641   6.408  0.7905 -0.0844 -0.7357
  215MOL    H6843296   5.932   7.501   6.372 -0.2377 -0.3817 -0.1261
  215MOL    H6943297   6.143   7.372   6.346 -1.6833  0.5665  1.4885
  215MOL    H7043298   6.386   7.376   6.301  4.0487  0.4691 -0.8545
  215MOL    H7143299   6.473   7.489   6.404  0.9484  0.9504 -1.7910
  215MOL    C7243300   6.128   7.514   6.181  0.0077 -0.5245 -0.5074
  215MOL    C7343301   6.196   7.414   6.080  0.0019 -0.4435 -0.3283
  215MOL    C7443302   6.305   7.493   5.996  0.2523 -0.2093 -0.0826
  215MOL    O7543303   6.270   7.588   5.931 -0.3582 -0.5707  0.2144
  215MOL    N7643304   6.431   7.469   6.021  0.0536  0.0138 -0.1244
  215MOL    H7743305   6.170   7.614   6.169  1.0471 -1.2109 -2.9170
  215MOL    H7843306   6.022   7.516   6.156 -0.0719 -1.4353 -0.2388
  215MOL    H7943307   6.257   7.342   6.134  2.3177  0.4871 -1.6160
  215MOL    H8043308   6.499   7.537   5.992 -0.2532  0.1017 -0.6463
  215MOL    H8143309   6.458   7.395   6.085 -0.3811  1.2725  1.5439
  215MOL    C8243310   6.097   7.350   5.981  0.7732  0.4763  0.4529
  215MOL    C8343311   5.979   7.264   6.041  0.0905  0.4889  0.5166
  215MOL    C8443312   6.017   7.119   6.090 -0.0057 -0.4328 -0.1079
  215MOL    O8543313   6.086   7.109   6.187 -0.3779 -0.0725  0.0245
  215MOL    N8643314   5.997   7.013   6.008 -0.3590 -0.0135 -0.2630
  215MOL    H8743315   6.150   7.281   5.915  0.2081 -0.6686  1.1722
  215MOL    H8843316   6.051   7.424   5.916  0.4897  0.8024  1.0254
  215MOL    H8943317   5.958   7.319   6.133 -0.7305  0.8402  0.1244
  215MOL    H9043318   6.014   6.923   6.050  0.2519  0.5124  0.6464
  215MOL    H9143319   5.948   7.015   5.920 -1.1423  0.3561  0.1745
  215MOL    C9243320   5.837   7.276   5.973 -0.2243  0.4542 -0.4162
  215MOL    C9343321   5.821   7.232   5.822 -0.8917 -0.0232 -0.4880
  215MOL    C9443322   5.873   7.341   5.722  0.2178  0.0284 -0.1534
  215MOL    O9543323   5.827   7.451   5.713 -0.0563 -0.3358 -0.0473
  215MOL    N9643324   5.979   7.314   5.650 -0.6896  0.5689  0.5420
  215MOL    H9743325   5.804   7.380   5.978 -0.8607  0.2631 -0.5690
  215MOL    H9843326   5.765   7.220   6.033  0.8623 -0.2867  0.2092
  215MOL    H9943327   5.870   7.136   5.809  0.3672  0.2395  1.9359
  215MOL   H10043328   6.019   7.221   5.648 -1.3241  0.2702  1.6268
  215MOL   H10143329   6.032   7.392   5.612 -3.2781  2.4251  0.6526
  215MOL   C10243330   5.669   7.214   5.800 -0.0358  0.4067  0.3790
  215MOL   C10343331   5.624   7.138   5.671 -0.1970  0.6037 -0.4266
  215MOL   C10443332   5.566   7.236   5.564  0.4627 -0.1485  0.1362
  215MOL   O10543333   5.457   7.296   5.584 -0.0026 -0.6316 -0.4647
  215MOL   N10643334   5.641   7.254   5.451 -0.0800 -0.0961 -0.3653
  215MOL   H10743335   5.633   7.315   5.783  1.1733  0.4178 -2.4106
  215MOL   H10843336   5.619   7.162   5.882  2.9795 -3.0392  0.1766
  215MOL   H10943337   5.711   7.083   5.634 -0.7618  0.3803 -1.4314
  215MOL   H11043338   5.609   7.317   5.378 -1.1304  1.6873  1.5758
  215MOL   H11143339   5.728   7.210   5.427 -0.5457  0.2141 -2.7352
  215MOL   C11243340   5.525   7.021   5.706  0.3313 -0.4663 -0.8088
  215MOL   C11343341   5.498   6.927   5.581  0.1004  0.4191  0.3550
  215MOL   C11443342   5.343   6.914   5.580  0.3610 -0.5152 -0.6233
  215MOL   O11543343   5.294   6.840   5.670  0.1110  0.6870  0.0541
  215MOL   N11643344   5.278   6.976   5.483 -0.1041  0.2187  0.5846
  215MOL   H11743345   5.434   7.065   5.746  0.2511 -1.5041  0.1968
  215MOL   H11843346   5.575   6.969   5.788  3.0590  2.6702 -0.3896
  215MOL   H11943347   5.524   6.987   5.493  0.3254 -0.5280 -0.2354
  215MOL   H12043348   5.179   6.955   5.474 -0.3262  1.6328 -0.4788
  215MOL   H12143349   5.315   7.048   5.423 -3.8278  3.1335  1.5810
  215MOL   C12243350   5.568   6.792   5.567 -0.1972 -0.6186 -0.5463
  215MOL   C12343351   5.721   6.780   5.546  0.5109 -0.2799 -0.2859
  215MOL   C12443352   5.810   6.798   5.668  0.0627  0.6015 -0.5491
  215MOL   O12543353   5.831   6.908   5.722  0.0207  0.5090  0.2221
  215MOL   N12643354   5.861   6.686   5.715  0.2348  0.5028  0.0197
  215MOL   H12743355   5.517   6.742   5.485 -2.8122 -2.2337  1.9483
  215MOL   H12843356   5.546   6.725   5.651 -0.2630  1.5213  1.1975
  215MOL   H12943357   5.736   6.678   5.509  1.4853 -0.3644  0.3028
  215MOL   H13043358   5.918   6.678   5.798 -1.1899 -0.6262  0.9310
  215MOL   H13143359   5.843   6.603   5.660 -1.7786  0.9847 -0.1058
  215MOL   C13243360   5.772   6.871   5.431  0.2858  0.0934  0.2006
  215MOL   C13343361   5.697   6.849   5.295  0.7817 -0.1899  0.1709
  215MOL   C13443362   5.725   6.711   5.235  0.2875  0.2860  0.5838
  215MOL   O13543363   5.842   6.664   5.218  0.4685 -0.6805 -0.6193
  215MOL   N13643364   5.625   6.635   5.191 -0.2376  0.1290  0.4590
  215MOL   H13743365   5.880   6.856   5.433  0.2838  0.3102  1.8646
  215MOL   H13843366   5.759   6.975   5.460  2.8770  0.6650 -0.5308
  215MOL   H13943367   5.589   6.864   5.298  0.7279 -0.2485 -1.2451
  215MOL   H14043368   5.641   6.551   5.138  3.3297  1.0659 -0.1054
  215MOL   H14143369   5.530   6.669   5.197 -0.1556  0.5107 -0.3818
  215MOL   C14243370   5.732   6.949   5.183 -0.9625 -0.5883 -0.6306
  215MOL   C14343371   5.879   6.979   5.150  0.5183 -0.1361 -0.6744
  215MOL   C14443372   5.934   7.088   5.240 -0.4134 -0.1912  0.5889
  215MOL   O14543373   5.880   7.196   5.262 -0.1420  0.6189  0.2494
  215MOL   N14643374   6.042   7.045   5.309  0.2575 -0.2157 -0.1424
  215MOL   H14743375   5.681   7.043   5.204  3.6544  2.0644 -0.4032
  215MOL   H14843376   5.680   6.906   5.097 -0.2988 -1.7025 -0.4877
  215MOL   H14943377   5.928   6.886   5.178  1.1320  0.4869  0.3293
  215MOL   H15043378   6.088   6.959   5.287 -0.2094 -0.8149  1.1503
  215MOL   H15143379   6.080   7.104   5.383 -0.3700  0.7735 -0.6000
  215MOL   C15243380   5.906   7.022   5.008 -0.4920  0.6853 -0.0112
  215MOL   C15343381   5.842   7.148   4.950  0.1689  0.4442  0.0793
  215MOL   C15443382   5.695   7.126   4.913 -0.2735  0.1552  0.4900
  215MOL   O15543383   5.667   7.044   4.826  0.2274 -0.1384  0.3301
  215MOL   N15643384   5.601   7.201   4.970  0.6594  0.1907  0.2727
  215MOL   H15743385   5.886   6.939   4.941 -1.7829  2.5181 -1.9624
  215MOL   H15843386   6.013   7.042   4.995 -0.5620  0.0028 -1.8357
  215MOL   H15943387   5.840   7.234   5.018 -1.9406  1.7352 -1.5528
  215MOL   H16043388   5.508   7.179   4.939  0.8793  1.4577 -1.4003
  215MOL   H16143389   5.607   7.262   5.050 -0.3611 -2.3244  2.3372
  215MOL   C16243390   5.920   7.184   4.819 -0.0853  0.8129 -0.1816
  215MOL   C16343391   6.037   7.285   4.842  0.5162 -0.6058  0.0871
  215MOL   C16443392   6.003   7.431   4.879 -0.3352 -0.2356 -0.2880
  215MOL   O16543393   5.914   7.450   4.959 -0.5858 -0.3197  0.0081
  215MOL   N16643394   6.086   7.522   4.840 -0.4476  0.3236  0.2121
  215MOL   H16743395   5.848   7.223   4.746 -0.8527  1.2975  0.8164
  215MOL   H16843396   5.960   7.095   4.771 -2.0048 -2.0767  3.3540
  215MOL   H16943397   6.093   7.250   4.929  0.2776  1.0194  0.9008
  215MOL   H17043398   6.167   7.486   4.791 -1.0516 -2.1605  0.9620
  215MOL   H17143399   6.087   7.621   4.860 -1.4538 -0.1881  2.9209
  215MOL   C17243400   6.132   7.272   4.720  0.0021 -0.6279 -0.4040
  215MOL   C17343401   6.072   7.286   4.575  0.0445  0.2338  0.0335
  215MOL   C17443402   6.047   7.153   4.503 -0.4905  0.4836  0.8882
  215MOL   O17543403   6.103   7.046   4.536  0.4526 -0.2575 -0.1952
  215MOL   N17643404   5.946   7.152   4.417  0.1460 -0.0582 -0.4724
  215MOL   H17743405   6.180   7.174   4.727  2.0249  0.4105  0.5167
  215MOL   H17843406   6.211   7.346   4.731  0.1730 -0.7638 -0.7231
  215MOL   H17943407   5.977   7.337   4.588 -1.0396 -1.9434  0.8855
  215MOL   H18043408   5.912   7.067   4.375  1.8841 -0.1593 -1.7165
  215MOL   H18143409   5.899   7.241   4.407  0.1402 -0.0720 -0.5658
  215MOL   C18243410   6.169   7.371   4.495 -0.5102 -0.0341  0.5422
  215MOL   C18343411   6.141   7.528   4.486  0.0177 -0.8263 -0.5808
  215MOL   C18443412   6.027   7.565   4.378  0.2347  0.1659  0.4172
  215MOL   O18543413   5.928   7.493   4.362 -0.3640  0.0307  0.0146
  215MOL   N18643414   6.038   0.017   4.306  0.1113 -0.2329  0.1478
  215MOL   H18743415   6.177   7.348   4.389 -1.9271 -0.7909  0.5809
  215MOL   H18843416   6.271   7.343   4.519  0.3456  0.9927 -1.7483
  215MOL   H18943417   6.087   7.558   4.576 -1.7642  0.6258 -2.0898
  215MOL   H19043418   5.962   0.045   4.245  0.6817  1.8070  0.3473
  215MOL   H19143419   6.117   0.078   4.318 -1.1510  1.5414 -0.3309
  215MOL   C19243420   6.266   7.617   4.488  0.0527  0.1912 -0.3826
  215MOL   C19343421   6.376   7.592   4.384 -0.2741 -0.3774  0.6855
  215MOL   C19443422   6.491   0.037   4.409  0.4748  0.1679  0.1253
  215MOL   O19543423   6.514   0.138   4.346 -0.5373  0.6129  0.5237
  215MOL   N19643424   6.572   7.648   4.502 -0.7656 -0.2050  0.4338
  215MOL   H19743425   6.312   7.617   4.586 -4.0663  1.9353  1.6755
  215MOL   H19843426   6.222   0.059   4.479 -1.0929 -0.2866 -0.2795
  215MOL   H19943427   6.410   7.491   4.407 -1.5168 -0.6061  1.5762
  215MOL   H20043428   6.561   7.557   4.546  1.0053  0.2240  1.8073
  215MOL   H20143429   6.657   0.044   4.515  1.0819 -2.9298 -0.1536
  215MOL   H20243430   6.335   7.602   4.283 -0.4197 -0.8613  0.6935
  216MOL     C143431   1.546   3.608   2.739 -0.6431 -0.1399  0.1493
  216MOL     C243432   1.420   3.698   2.754 -0.1907 -0.3109 -0.6271
  216MOL     C343433   1.402   3.797   2.643 -0.3803  0.2290  1.0137
  216MOL     O443434   1.425   3.921   2.661 -0.0332  0.4573 -0.7728
  216MOL     N543435   1.382   3.748   2.520  0.4683 -0.3706  0.6589
  216MOL     H643436   1.558   3.569   2.638  1.3193 -0.3777  0.4620
  216MOL     H743437   1.639   3.658   2.762 -1.8257  1.9718  0.4319
  216MOL     H843438   1.333   3.634   2.736 -0.2913  0.3197 -2.4565
  216MOL     H943439   1.378   3.806   2.437 -0.4572 -0.2627  0.7747
  216MOL    H1043440   1.374   3.648   2.511  0.4252 -0.3243  0.1366
  216MOL    H1143441   1.546   3.516   2.798  1.0255  0.0764  0.4853
  216MOL    C1243442   1.411   3.774   2.887 -0.8198  0.1784  0.0648
  216MOL    C1343443   1.410   3.683   3.011 -0.0596 -0.5874  0.1689
  216MOL    C1443444   1.278   3.600   3.024 -0.3552 -0.8750  0.1406
  216MOL    O1543445   1.181   3.642   3.078 -0.5798 -0.2937 -0.3166
  216MOL    N1643446   1.274   3.483   2.957  0.3568 -0.0634  0.2692
  216MOL    H1743447   1.327   3.842   2.889  0.1830  1.4669 -1.2678
  216MOL    H1843448   1.496   3.842   2.891 -0.1193 -0.7191  1.0215
  216MOL    H1943449   1.496   3.616   3.016 -0.1559 -0.8511 -1.5873
  216MOL    H2043450   1.195   3.420   2.956  1.4281 -1.4545  1.5967
  216MOL    H2143451   1.348   3.451   2.896 -0.5599 -0.6752 -0.5512
  216MOL    C2243452   1.435   3.778   3.139  0.1493  0.6465 -0.3919
  216MOL    C2343453   1.587   3.829   3.156  0.4380 -0.1947  0.0087
  216MOL    C2443454   1.667   3.711   3.213  0.1436  0.5132  0.7931
  216MOL    O2543455   1.660   3.675   3.327  0.8404  0.1224  0.1738
  216MOL    N2643456   1.761   3.657   3.136 -0.5871  0.4008  0.5566
  216MOL    H2743457   1.390   3.753   3.235 -1.5311 -1.1665 -1.6163
  216MOL    H2843458   1.376   3.864   3.110 -1.5516  0.1415  1.4607
  216MOL    H2943459   1.638   3.855   3.063  1.6343 -2.0030  0.1421
  216MOL    H3043460   1.784   3.678   3.040  1.0660 -0.6781  0.6883
  216MOL    H3143461   1.814   3.580   3.175 -0.0693  0.6604  0.3685
  216MOL    C3243462   1.599   3.945   3.251 -0.0609 -0.6294 -0.2034
  216MOL    C3343463   1.742   4.016   3.248 -0.8107 -0.5171 -0.6031
  216MOL    C3443464   1.755   4.124   3.361  0.9691  0.2628  0.1448
  216MOL    O3543465   1.655   4.187   3.402 -0.3980  0.3539  0.1964
  216MOL    N3643466   1.870   4.151   3.415 -0.8957  0.6187 -0.0437
  216MOL    H3743467   1.577   3.921   3.355 -1.5419 -0.8808 -0.5682
  216MOL    H3843468   1.529   4.020   3.215  0.0818 -0.3940 -0.0009
  216MOL    H3943469   1.818   3.947   3.285 -0.7671 -0.6909 -1.0054
  216MOL    H4043470   1.947   4.086   3.406 -0.7517  0.5490  1.5303
  216MOL    H4143471   1.887   4.229   3.477 -0.4998 -0.1038  0.7690
  216MOL    C4243472   1.793   4.070   3.120 -0.1614  0.4605  0.0419
  216MOL    C4343473   1.702   4.181   3.066 -0.4165  0.0911  0.0524
  216MOL    C4443474   1.611   4.129   2.954  0.3274  0.3903  0.9133
  216MOL    O4543475   1.499   4.094   2.981 -0.8203 -0.9793  0.1029
  216MOL    N4643476   1.653   4.124   2.829 -0.4558  0.1759 -0.1684
  216MOL    H4743477   1.801   3.983   3.055 -3.1967  1.3068 -1.5558
  216MOL    H4843478   1.898   4.099   3.129  0.2979 -1.5623  1.5175
  216MOL    H4943479   1.644   4.225   3.148  0.9954 -0.6408  1.4867
  216MOL    H5043480   1.597   4.080   2.757  2.4372 -0.2015 -2.2750
  216MOL    H5143481   1.736   4.169   2.794  0.1202 -0.9937 -0.3388
  216MOL    C5243482   1.782   4.304   3.011 -0.0826  0.2969 -0.5935
  216MOL    C5343483   1.860   4.395   3.111  0.7594 -0.1924 -0.3526
  216MOL    C5443484   1.842   4.544   3.066 -0.7777 -0.5701  0.3769
  216MOL    O5543485   1.911   4.596   2.984  0.4531 -0.2588 -0.0885
  216MOL    N5643486   1.732   4.603   3.108  0.1358 -0.5149  0.1015
  216MOL    H5743487   1.713   4.357   2.945  0.0127 -0.8399 -1.6186
  216MOL    H5843488   1.862   4.263   2.950  1.1186 -1.9114  2.3152
  216MOL    H5943489   1.805   4.389   3.205  2.1685 -1.3120  0.4236
  216MOL    H6043490   1.728   4.703   3.095 -1.4592 -0.6691 -0.7456
  216MOL    H6143491   1.678   4.574   3.189 -0.3718 -0.4031 -0.1921
  216MOL    C6243492   2.009   4.354   3.126  0.0962 -0.0254  0.1210
  216MOL    C6343493   2.088   4.440   3.230 -0.0361 -0.1837 -0.6757
  216MOL    C6443494   2.188   4.526   3.158  0.2830  0.7366 -0.5428
  216MOL    O6543495   2.278   4.475   3.096 -0.1652 -0.6164  0.3582
  216MOL    N6643496   2.181   4.659   3.185  0.0934  0.2777 -0.6484
  216MOL    H6743497   2.056   4.350   3.028 -2.3444 -0.9714 -1.0518
  216MOL    H6843498   2.010   4.252   3.167 -2.7453  0.8166  2.4459
  216MOL    H6943499   2.018   4.510   3.276 -0.0678  0.7856 -2.1909
  216MOL    H7043500   2.265   4.715   3.178  0.5895 -0.2530  0.8976
  216MOL    H7143501   2.101   4.689   3.240  1.4145 -0.3055  1.6581
  216MOL    C7243502   2.163   4.349   3.334 -0.2710 -0.0136 -0.1367
  216MOL    C7343503   2.238   4.409   3.454 -0.9247 -0.4062 -0.2392
  216MOL    C7443504   2.384   4.450   3.420  0.3042  0.3311 -0.8653
  216MOL    O7543505   2.465   4.372   3.368  0.1727 -0.1303  0.7813
  216MOL    N7643506   2.426   4.569   3.456 -0.0377  0.4206  0.0931
  216MOL    H7743507   2.232   4.289   3.276 -0.9549 -1.9378  0.9904
  216MOL    H7843508   2.088   4.287   3.382 -2.4530  3.1606  0.7706
  216MOL    H7943509   2.185   4.500   3.481 -1.6091 -1.3280  1.7034
  216MOL    H8043510   2.371   4.634   3.511 -1.5397 -1.0265  0.3716
  216MOL    H8143511   2.517   4.598   3.424  0.7442  1.1900  2.9148
  216MOL    C8243512   2.246   4.299   3.567  0.5433  0.2471 -0.3421
  216MOL    C8343513   2.167   4.314   3.698 -0.2918 -0.0234 -0.4954
  216MOL    C8443514   2.019   4.336   3.676  0.0560  0.0671 -0.8001
  216MOL    O8543515   1.971   4.371   3.567 -0.3892 -0.5317  0.1176
  216MOL    N8643516   1.941   4.319   3.788  0.1026 -0.3676 -0.4491
  216MOL    H8743517   2.351   4.279   3.587  0.7559  0.3091 -1.3329
  216MOL    H8843518   2.204   4.212   3.517 -1.4332  1.1073 -0.1967
  216MOL    H8943519   2.172   4.224   3.760  1.5670  1.9427  2.3468
  216MOL    H9043520   1.978   4.291   3.878  1.1664 -1.0515 -1.0941
  216MOL    H9143521   1.842   4.335   3.773 -0.2210 -0.4776  1.4307
  216MOL    C9243522   2.216   4.435   3.780 -0.1197  0.7123 -0.7681
  216MOL    C9343523   2.362   4.441   3.826 -0.1421  0.1966 -0.3569
  216MOL    C9443524   2.378   4.364   3.959  0.0163 -0.6965 -0.4899
  216MOL    O9543525   2.318   4.410   4.061  0.2289  0.5996 -0.6008
  216MOL    N9643526   2.455   4.254   3.959 -0.0640  0.5292  0.0936
  216MOL    H9743527   2.163   4.449   3.875  0.3586  1.0804 -0.5561
  216MOL    H9843528   2.190   4.523   3.722 -2.6644 -1.8377 -3.6770
  216MOL    H9943529   2.416   4.380   3.754 -2.7830 -2.9424  0.2318
  216MOL   H10043530   2.468   4.203   4.045  0.7860  0.6146  0.0165
  216MOL   H10143531   2.502   4.220   3.876  1.4184 -0.6243  1.3714
  216MOL   C10243532   2.403   4.594   3.835  0.0192 -0.2887  0.5241
  216MOL   C10343533   2.528   4.646   3.917 -0.2752  0.9630 -0.0482
  216MOL   C10443534   2.505   4.789   3.959 -0.2040 -0.4752  0.2659
  216MOL   O10543535   2.515   4.884   3.884 -0.3451 -0.5590 -0.1940
  216MOL   N10643536   2.481   4.811   4.088  0.3288 -0.2415 -0.2388
  216MOL   H10743537   2.319   4.646   3.883  0.4032  1.6463 -0.8584
  216MOL   H10843538   2.400   4.644   3.739 -1.5871 -0.3302  0.5305
  216MOL   H10943539   2.530   4.581   4.004 -1.3535  2.7087  1.3279
  216MOL   H11043540   2.477   4.739   4.158  0.0912  0.3992  0.4086
  216MOL   H11143541   2.476   4.909   4.112  4.0966  0.0186 -0.3562
  216MOL   C11243542   2.651   4.633   3.819  0.5166 -0.2211 -0.7506
  216MOL   C11343543   2.736   4.495   3.820 -0.5192  0.7343 -0.0614
  216MOL   C11443544   2.792   4.465   3.958 -0.3822  0.3074  0.6878
  216MOL   O11543545   2.825   4.550   4.037 -0.9757 -0.2600 -0.6425
  216MOL   N11643546   2.802   4.336   3.991 -0.7415 -0.3469  0.6316
  216MOL   H11743547   2.721   4.713   3.840 -0.1122  0.4046 -1.0030
  216MOL   H11843548   2.599   4.647   3.724 -2.0168  0.9277  0.7606
  216MOL   H11943549   2.660   4.421   3.794  0.2972 -0.6641  1.4535
  216MOL   H12043550   2.845   4.312   4.079 -0.7600 -1.7442  0.2770
  216MOL   H12143551   2.750   4.268   3.936  0.3509 -1.3495  0.8238
  216MOL   C12243552   2.845   4.484   3.706  0.5410  0.0685  0.5293
  216MOL   C12343553   2.977   4.555   3.733  0.3440  0.8177  0.3018
  216MOL   C12443554   2.975   4.711   3.743 -0.7726  0.4887 -0.4277
  216MOL   O12543555   2.955   4.773   3.642 -0.5931 -0.2269  0.0141
  216MOL   N12643556   2.971   4.761   3.865 -0.2559  0.6467 -0.2226
  216MOL   H12743557   2.797   4.532   3.621  0.5051 -1.2255 -0.1989
  216MOL   H12843558   2.859   4.380   3.677 -1.6489  0.2627 -1.3903
  216MOL   H12943559   3.036   4.513   3.815  1.0021 -1.1301 -1.1325
  216MOL   H13043560   2.942   4.856   3.884 -0.5311  1.4221 -4.0924
  216MOL   H13143561   2.957   4.687   3.931 -0.0931  1.2728  0.5176
  216MOL   C13243562   3.086   4.520   3.627 -0.2168 -0.0639  0.0862
  216MOL   C13343563   3.235   4.562   3.664 -0.2048 -0.2082  0.4148
  216MOL   C13443564   3.300   4.649   3.554  0.1238 -0.4560 -0.5559
  216MOL   O13543565   3.327   4.605   3.444  0.5085  0.1512  0.0477
  216MOL   N13643566   3.322   4.777   3.576 -0.3249 -0.0247  0.2583
  216MOL   H13743567   3.064   4.553   3.525  0.2168 -1.6925 -0.5371
  216MOL   H13843568   3.089   4.412   3.619  0.7223 -0.0129 -0.3533
  216MOL   H13943569   3.215   4.635   3.742 -2.2020  0.1260 -0.3870
  216MOL   H14043570   3.381   4.836   3.519  1.3772 -1.2109  0.7244
  216MOL   H14143571   3.311   4.801   3.674  0.7665  3.5143 -0.4379
  216MOL   C14243572   3.329   4.457   3.726  0.4787  0.9525  0.0344
  216MOL   C14343573   3.385   4.478   3.866 -0.6265  0.5347 -0.2135
  216MOL   C14443574   3.472   4.612   3.873 -0.0041  0.6613  0.3548
  216MOL   O14543575   3.564   4.630   3.795 -0.2761  0.3876  0.2690
  216MOL   N14643576   3.427   4.711   3.955  0.7056  0.4146  0.3979
  216MOL   H14743577   3.408   4.441   3.652  0.1178 -0.7030  0.0030
  216MOL   H14843578   3.272   4.364   3.720  2.8776 -0.4645 -1.4818
  216MOL   H14943579   3.294   4.498   3.922  0.1054 -0.4010  1.3474
  216MOL   H15043580   3.476   4.799   3.944  0.8791  0.6474  2.8188
  216MOL   H15143581   3.339   4.698   4.003  0.2482 -0.4330 -0.6500
  216MOL   C15243582   3.458   4.353   3.920 -0.3272  1.0102 -0.7230
  216MOL   C15343583   3.474   4.343   4.076 -0.1095  0.6527 -0.0972
  216MOL   C15443584   3.549   4.217   4.131 -0.3571 -0.3091  0.1536
  216MOL   O15543585   3.517   4.105   4.091 -0.1934  0.0580 -0.5502
  216MOL   N15643586   3.649   4.233   4.215 -0.0046 -0.2287 -0.0340
  216MOL   H15743587   3.557   4.339   3.878  0.2193  0.3273  0.7356
  216MOL   H15843588   3.405   4.265   3.885  1.6996 -1.2493  1.6434
  216MOL   H15943589   3.536   4.431   4.094 -1.2504  1.7209 -1.3269
  216MOL   H16043590   3.690   4.323   4.236  0.8267 -0.7549  0.6470
  216MOL   H16143591   3.676   4.156   4.275 -1.1383 -0.3922  0.2664
  216MOL   C16243592   3.356   4.361   4.161 -0.6135  0.0469  0.1583
  216MOL   C16343593   3.241   4.258   4.152 -0.0922  1.2130 -0.4374
  216MOL   C16443594   3.146   4.280   4.028  0.6401 -0.8804  0.4368
  216MOL   O16543595   3.086   4.384   4.024  0.8743 -0.1606 -0.0355
  216MOL   N16643596   3.135   4.184   3.939  0.4899 -0.2944 -0.0795
  216MOL   H16743597   3.314   4.460   4.144  0.4640  0.3744 -0.6235
  216MOL   H16843598   3.393   4.367   4.264 -1.4558 -2.7949  0.6927
  216MOL   H16943599   3.286   4.159   4.145 -0.4995  0.9194  0.8325
  216MOL   H17043600   3.186   4.101   3.965  0.2694  0.1166  1.7586
  216MOL   H17143601   3.081   4.194   3.855  3.2222  1.6327 -1.6678
  216MOL   C17243602   3.157   4.250   4.279  0.2084 -0.8163  0.0407
  216MOL   C17343603   3.197   4.171   4.408 -0.0294 -0.0838 -0.0060
  216MOL   C17443604   3.154   4.029   4.386 -0.6033 -0.4671 -0.0753
  216MOL   O17543605   3.039   3.996   4.418 -0.5523 -0.1669 -0.3920
  216MOL   N17643606   3.242   3.938   4.339  0.5839  0.2756  0.0382
  216MOL   H17743607   3.058   4.211   4.254 -0.2295  0.3247 -0.0323
  216MOL   H17843608   3.129   4.351   4.309 -1.2116 -0.8497 -1.1113
  216MOL   H17943609   3.305   4.186   4.422  0.1145 -1.0456 -0.0399
  216MOL   H18043610   3.335   3.974   4.326  0.0016  1.3217 -1.3363
  216MOL   H18143611   3.220   3.841   4.324 -0.1226  0.5033 -0.4162
  216MOL   C18243612   3.128   4.221   4.536  0.1935 -0.6647  0.0052
  216MOL   C18343613   3.198   4.343   4.602 -0.5256 -0.3079  0.0385
  216MOL   C18443614   3.314   4.303   4.696 -0.4758 -0.0625  0.1815
  216MOL   O18543615   3.333   4.189   4.729  0.3458  0.9106 -0.2187
  216MOL   N18643616   3.384   4.407   4.739 -0.6082  0.4244  0.1632
  216MOL   H18743617   3.127   4.139   4.608 -1.4847 -0.2431  0.4858
  216MOL   H18843618   3.028   4.248   4.502  0.6699  0.5043 -0.4963
  216MOL   H18943619   3.236   4.402   4.519 -2.6145 -0.3778 -1.0027
  216MOL   H19043620   3.371   4.499   4.700 -0.6641  0.8637  1.1929
  216MOL   H19143621   3.454   4.404   4.812 -0.0189  1.6563 -0.3274
  216MOL   C19243622   3.107   4.449   4.667 -0.5211  0.1567 -0.0869
  216MOL   C19343623   3.061   4.420   4.809 -0.4555 -0.5324  0.1886
  216MOL   C19443624   2.964   4.526   4.861  0.5925 -0.3565 -0.3271
  216MOL   O19543625   2.940   4.630   4.803  0.0441 -0.2896 -0.1831
  216MOL   N19643626   2.909   4.500   4.980 -0.2657 -0.1772 -0.7493
  216MOL   H19743627   3.020   4.466   4.603 -2.4690 -0.1173  2.3803
  216MOL   H19843628   3.160   4.544   4.671  2.2633 -1.3755  0.5871
  216MOL   H19943629   3.024   4.318   4.799 -1.4256 -0.3100  1.3991
  216MOL   H20043630   2.896   4.588   5.028  3.0563  0.0668 -0.2386
  216MOL   H20143631   2.924   4.418   5.038  1.3104 -0.0652 -0.9956
  216MOL   H20243632   3.147   4.427   4.876 -1.0887  0.8048  0.8784
  217MOL     C143633   2.428   6.406   2.704 -0.0347  0.2834 -0.1904
  217MOL     C243634   2.313   6.306   2.723 -0.6482 -0.0373  0.0824
  217MOL     C343635   2.199   6.335   2.622  0.1929  1.0911 -0.4078
  217MOL     O443636   2.208   6.287   2.509 -0.7363 -0.2534  0.2858
  217MOL     N543637   2.089   6.404   2.663 -0.5502  1.0000  0.1422
  217MOL     H643638   2.394   6.510   2.704  0.7085  0.5262  0.1382
  217MOL     H743639   2.503   6.409   2.782 -1.1832  2.1926  0.8734
  217MOL     H843640   2.358   6.208   2.706  3.7030  1.5142  2.0667
  217MOL     H943641   2.081   6.427   2.761 -0.0845  1.5559  0.0549
  217MOL    H1043642   2.011   6.434   2.606 -1.3519 -0.1172  0.6355
  217MOL    H1143643   2.466   6.383   2.605 -0.1386 -4.7856  0.8298
  217MOL    C1243644   2.271   6.311   2.871 -0.4465  0.6487  0.3552
  217MOL    C1343645   2.200   6.189   2.928  0.1787 -1.0619 -0.1486
  217MOL    C1443646   2.054   6.167   2.876 -0.5969 -0.5217  0.4618
  217MOL    O1543647   1.968   6.238   2.922  0.2569  0.5034 -0.3243
  217MOL    N1643648   2.031   6.073   2.789 -0.7193  0.0381  0.1063
  217MOL    H1743649   2.207   6.395   2.898  0.6404  1.3827  0.7115
  217MOL    H1843650   2.367   6.324   2.921 -0.0896  0.3700 -0.2503
  217MOL    H1943651   2.250   6.100   2.890 -0.4329 -1.1641 -0.7150
  217MOL    H2043652   2.104   6.010   2.758  1.0894  2.7830 -1.4317
  217MOL    H2143653   1.937   6.043   2.767 -1.3320  1.7109  0.3411
  217MOL    C2243654   2.202   6.189   3.078  0.3581  0.4907 -0.9964
  217MOL    C2343655   2.131   6.080   3.164  0.0969 -0.6793 -0.4293
  217MOL    C2443656   2.082   6.146   3.292 -0.1723 -0.0056 -0.1301
  217MOL    O2543657   2.162   6.162   3.385 -0.1018  0.5042 -0.3334
  217MOL    N2643658   1.960   6.191   3.300 -0.9157  0.6172  0.2649
  217MOL    H2743659   2.164   6.283   3.118 -4.0523 -0.1672 -3.2795
  217MOL    H2843660   2.303   6.184   3.118  0.5250 -1.8712 -1.6369
  217MOL    H2943661   2.033   6.070   3.118 -0.1880  2.6156 -0.6528
  217MOL    H3043662   1.924   6.230   3.386  0.2284  1.5874  0.3148
  217MOL    H3143663   1.903   6.165   3.221  0.0940  0.7917 -0.5460
  217MOL    C3243664   2.210   5.948   3.193 -0.7215 -0.4667  0.3196
  217MOL    C3343665   2.124   5.832   3.250  0.1300 -0.3791  0.7311
  217MOL    C3443666   2.220   5.733   3.316 -0.2867 -0.1128 -0.0014
  217MOL    O3543667   2.225   5.726   3.438 -0.0904 -0.4090 -0.1283
  217MOL    N3643668   2.305   5.661   3.237  0.5555  0.4466  0.4575
  217MOL    H3743669   2.296   5.964   3.258  1.1874 -1.4159 -1.9012
  217MOL    H3843670   2.248   5.920   3.094 -0.7602  1.3980 -0.2455
  217MOL    H3943671   2.058   5.868   3.328 -1.4564 -0.2626 -0.6285
  217MOL    H4043672   2.384   5.610   3.274 -0.4950 -0.0120  2.1450
  217MOL    H4143673   2.297   5.679   3.138 -0.1847 -0.0889  0.4165
  217MOL    C4243674   2.036   5.766   3.147  1.0178  0.1273  0.2305
  217MOL    C4343675   1.912   5.695   3.197  0.0165  0.0812  0.2129
  217MOL    C4443676   1.931   5.556   3.265 -0.5272  0.0165  0.3347
  217MOL    O4543677   2.013   5.469   3.220  0.2394 -0.1234 -0.7903
  217MOL    N4643678   1.866   5.526   3.371 -0.4081 -0.6511 -0.0965
  217MOL    H4743679   2.086   5.697   3.080  0.4088  0.8897 -1.0357
  217MOL    H4843680   1.995   5.846   3.085 -2.1356 -2.1094 -0.6907
  217MOL    H4943681   1.873   5.768   3.268  1.9579  1.2102  0.1544
  217MOL    H5043682   1.842   5.432   3.400  1.4308 -0.1781  3.0878
  217MOL    H5143683   1.810   5.601   3.408  0.9624  0.5674 -0.4442
  217MOL    C5243684   1.812   5.687   3.074  0.3292  0.1549 -0.7787
  217MOL    C5343685   1.693   5.787   3.093 -0.6019 -0.5342 -0.1535
  217MOL    C5443686   1.730   5.939   3.103  0.3697  0.5902  0.1630
  217MOL    O5543687   1.725   5.999   3.204 -0.4475 -0.3016  0.0768
  217MOL    N5643688   1.754   5.998   2.990 -0.3726  0.0258 -0.3618
  217MOL    H5743689   1.772   5.587   3.052  0.3572  0.3516 -1.7611
  217MOL    H5843690   1.863   5.720   2.983 -0.4484  0.6265 -1.0487
  217MOL    H5943691   1.634   5.776   3.002  0.3315 -1.8037 -0.6288
  217MOL    H6043692   1.754   5.942   2.907 -2.8247 -2.5240  1.2505
  217MOL    H6143693   1.778   6.096   2.988  0.4513 -0.1224  1.0610
  217MOL    C6243694   1.603   5.746   3.212 -0.0000 -0.3950 -0.2802
  217MOL    C6343695   1.466   5.824   3.232  0.1751 -0.3921  0.3201
  217MOL    C6443696   1.408   5.786   3.367 -0.2226  0.3627  0.3843
  217MOL    O6543697   1.359   5.674   3.381  0.1394 -0.3846 -0.7643
  217MOL    N6643698   1.434   5.866   3.468  0.2000  0.0937 -0.8516
  217MOL    H6743699   1.662   5.753   3.304 -1.5501 -0.1237  0.7161
  217MOL    H6843700   1.588   5.638   3.215 -1.4095 -0.2170 -0.4911
  217MOL    H6943701   1.476   5.932   3.248  2.8212 -0.3136 -1.5030
  217MOL    H7043702   1.396   5.843   3.558 -0.7697  0.1180 -1.2480
  217MOL    H7143703   1.489   5.951   3.457  0.4520  0.0124 -0.2371
  217MOL    C7243704   1.375   5.789   3.111 -0.2374 -0.7069 -0.3475
  217MOL    C7343705   1.238   5.858   3.099 -0.3333  0.3622  0.1184
  217MOL    C7443706   1.152   5.780   2.993 -0.4580 -0.2206  0.2230
  217MOL    O7543707   1.108   5.833   2.890 -0.5247  0.0700  0.3319
  217MOL    N7643708   1.124   5.653   3.012 -0.1235 -0.9759  0.2223
  217MOL    H7743709   1.359   5.682   3.101  0.3978 -0.7237 -1.3090
  217MOL    H7843710   1.425   5.809   3.016 -0.1703  0.8870  0.0047
  217MOL    H7943711   1.181   5.856   3.192 -0.2211 -0.2903  0.1761
  217MOL    H8043712   1.068   5.595   2.951 -0.6384 -0.0333 -0.2250
  217MOL    H8143713   1.159   5.615   3.098 -2.3958  0.1335  1.6989
  217MOL    C8243714   1.260   6.005   3.065  0.1176  0.2980 -0.1994
  217MOL    C8343715   1.131   6.096   3.084  0.6710  0.3314  0.0389
  217MOL    C8443716   1.095   6.167   2.954 -0.7388  0.6726 -0.3436
  217MOL    O8543717   1.129   6.284   2.932 -0.1220  0.0027  0.5206
  217MOL    N8643718   1.013   6.109   2.870  0.4347  0.1966 -0.0374
  217MOL    H8743719   1.296   6.012   2.962 -0.6420  2.1116 -0.3555
  217MOL    H8843720   1.339   6.041   3.132 -0.9051 -2.2605  2.4781
  217MOL    H8943721   1.052   6.023   3.100 -0.2171  1.5050  1.1013
  217MOL    H9043722   0.983   6.158   2.786 -1.2642 -1.4505 -0.4081
  217MOL    H9143723   1.012   6.009   2.876  2.1386  0.0824 -1.1693
  217MOL    C9243724   1.141   6.185   3.212 -1.1277  0.3355 -0.4246
  217MOL    C9343725   1.153   6.118   3.351  0.0929 -0.4250 -0.3998
  217MOL    C9443726   1.028   6.049   3.401  0.9251  0.2948 -0.1640
  217MOL    O9543727   0.919   6.056   3.345 -0.0107 -0.2778 -0.0215
  217MOL    N9643728   1.047   5.973   3.508 -0.1040 -0.3929  0.1754
  217MOL    H9743729   1.050   6.246   3.219 -1.2203  0.2363 -0.7521
  217MOL    H9843730   1.217   6.260   3.190  0.7671 -1.6084 -0.5820
  217MOL    H9943731   1.226   6.038   3.342 -1.3597 -1.8256  0.0134
  217MOL   H10043732   1.128   5.968   3.569  1.5594  2.2335 -1.6788
  217MOL   H10143733   0.966   5.917   3.529  0.3081 -0.4334  1.7263
  217MOL   C10243734   1.207   6.220   3.459  0.6848  0.5014 -0.1806
  217MOL   C10343735   1.341   6.297   3.443  0.7941 -0.1538 -0.1840
  217MOL   C10443736   1.461   6.212   3.391  0.7976  0.8339 -0.1358
  217MOL   O10543737   1.521   6.141   3.473  0.6169 -0.2793 -0.3606
  217MOL   N10643738   1.504   6.218   3.262 -0.0852 -0.1632  0.5290
  217MOL   H10743739   1.222   6.163   3.551  2.3946  1.4099  0.1305
  217MOL   H10843740   1.129   6.290   3.490  2.1813  1.9520  0.3952
  217MOL   H10943741   1.338   6.369   3.362 -0.2846 -1.5771 -1.4377
  217MOL   H11043742   1.588   6.168   3.237 -2.1415 -2.6105 -1.7699
  217MOL   H11143743   1.458   6.270   3.189 -0.5942  0.4271  1.2690
  217MOL   C11243744   1.392   6.363   3.581 -0.0229 -0.0174 -0.0406
  217MOL   C11343745   1.324   6.489   3.633 -0.7482  0.5169 -0.2357
  217MOL   C11443746   1.368   6.598   3.532  0.0689  0.1794 -0.2328
  217MOL   O11543747   1.483   6.641   3.528 -0.4635  0.3917 -0.6883
  217MOL   N11643748   1.272   6.631   3.444 -0.0363  0.2046  0.3967
  217MOL   H11743749   1.498   6.386   3.564  0.2337 -1.7661 -0.9492
  217MOL   H11843750   1.385   6.281   3.653  0.5241 -0.6982 -0.7484
  217MOL   H11943751   1.217   6.468   3.642 -0.2917 -0.4647  3.6482
  217MOL   H12043752   1.187   6.580   3.425 -0.0851 -0.0141  1.1947
  217MOL   H12143753   1.302   6.687   3.366 -0.5752 -0.3472 -0.2143
  217MOL   C12243754   1.369   6.518   3.778 -0.1082  0.3898  0.4316
  217MOL   C12343755   1.286   6.611   3.864  0.5287 -0.0921 -0.2594
  217MOL   C12443756   1.247   6.750   3.803  0.2133  0.1970  0.6421
  217MOL   O12543757   1.330   6.822   3.757 -1.0148 -0.3972 -0.2016
  217MOL   N12643758   1.123   6.789   3.810  0.4394  0.4534 -0.3265
  217MOL   H12743759   1.474   6.544   3.781  0.0011  0.1879 -1.1190
  217MOL   H12843760   1.381   6.418   3.819  1.6251  0.5294  0.2799
  217MOL   H12943761   1.194   6.554   3.879  0.1003  0.7040  0.1922
  217MOL   H13043762   1.047   6.735   3.850 -0.9010  2.6650  0.2082
  217MOL   H13143763   1.087   6.875   3.772  0.5445  0.2987 -0.7726
  217MOL   C13243764   1.351   6.633   3.996  0.7909 -0.7263 -0.1551
  217MOL   C13343765   1.259   6.687   4.114 -0.0172  0.1863 -0.5138
  217MOL   C13443766   1.362   6.754   4.213  0.1465  0.7322 -0.5343
  217MOL   O13543767   1.432   6.854   4.178  0.1038  0.1472 -0.1922
  217MOL   N13643768   1.375   6.714   4.341 -0.0106 -0.0331 -0.2740
  217MOL   H13743769   1.441   6.691   3.978 -1.2348  2.1468 -1.4750
  217MOL   H13843770   1.390   6.535   4.024 -1.8544 -2.3328 -1.8264
  217MOL   H13943771   1.195   6.767   4.075 -1.0586  0.2518  1.2786
  217MOL   H14043772   1.431   6.761   4.411  0.6822 -1.4053  0.0947
  217MOL   H14143773   1.320   6.636   4.374  2.5665 -1.8661 -0.1942
  217MOL   C14243774   1.161   6.576   4.172  0.4239 -0.2354  0.5021
  217MOL   C14343775   1.057   6.638   4.268  0.2991 -0.5566 -0.7592
  217MOL   C14443776   1.038   6.530   4.376 -0.0699 -0.6062  0.2937
  217MOL   O14543777   1.125   6.506   4.457  0.6176 -0.8899  0.1396
  217MOL   N14643778   0.930   6.456   4.392 -0.4595 -0.3959 -1.3240
  217MOL   H14743779   1.223   6.496   4.213  1.5527  0.2995 -0.1435
  217MOL   H14843780   1.098   6.531   4.095 -1.1846  1.0549  1.0362
  217MOL   H14943781   1.105   6.718   4.324 -1.6004 -1.4427  2.2628
  217MOL   H15043782   0.842   6.457   4.342 -2.3729 -2.3850  1.8503
  217MOL   H15143783   0.932   6.401   4.476  0.0333 -0.5752 -1.4575
  217MOL   C15243784   0.917   6.690   4.201 -0.4544  0.4213  0.7062
  217MOL   C15343785   0.831   6.802   4.268  0.5452 -0.4048  0.2481
  217MOL   C15443786   0.916   6.926   4.285  0.2964  0.4828  0.1767
  217MOL   O15543787   0.994   6.928   4.377 -0.3257 -0.2955 -0.5071
  217MOL   N15643788   0.916   7.015   4.186  0.0101 -0.8851 -0.7466
  217MOL   H15743789   0.856   6.600   4.189  0.5866 -0.4570  1.7711
  217MOL   H15843790   0.937   6.720   4.099  0.0054 -0.6237  0.4857
  217MOL   H15943791   0.762   6.845   4.196 -1.6534 -0.4610  2.2736
  217MOL   H16043792   0.842   7.012   4.117  0.9463 -0.3758 -1.7880
  217MOL   H16143793   0.982   7.092   4.185  0.9810 -1.7133 -1.0130
  217MOL   C16243794   0.755   6.759   4.399 -0.2499  0.1563 -0.3918
  217MOL   C16343795   0.617   6.841   4.416 -0.8736  0.1388 -0.9866
  217MOL   C16443796   0.569   6.844   4.562 -0.4038  0.8812 -0.0685
  217MOL   O16543797   0.643   6.890   4.648 -0.0137 -0.1774  0.4586
  217MOL   N16643798   0.445   6.809   4.595  0.1609  0.0665 -0.9104
  217MOL   H16743799   0.809   6.780   4.492 -1.8016  1.7551  0.1903
  217MOL   H16843800   0.739   6.652   4.386  1.9841 -0.2573 -0.0054
  217MOL   H16943801   0.635   6.948   4.405 -2.2401  0.5350  0.4409
  217MOL   H17043802   0.421   6.811   4.693  0.8140 -0.5188 -0.7357
  217MOL   H17143803   0.385   6.755   4.535  0.8202 -2.0717  0.3233
  217MOL   C17243804   0.500   6.801   4.303  0.1077 -0.1822 -0.3393
  217MOL   C17343805   0.455   6.658   4.267  0.4514 -0.6931 -0.0317
  217MOL   C17443806   0.425   6.576   4.391  0.1623 -0.7439  0.3542
  217MOL   O17543807   0.328   6.591   4.456 -0.0644  0.0275 -0.2199
  217MOL   N17643808   0.507   6.482   4.429  0.3201 -0.1441  0.0176
  217MOL   H17743809   0.540   6.834   4.207  1.4144 -2.0842 -0.4954
  217MOL   H17843810   0.410   6.857   4.327  0.9043  1.7059 -1.6512
  217MOL   H17943811   0.354   6.678   4.233  1.2092  1.0313 -1.3586
  217MOL   H18043812   0.481   6.414   4.499  0.7076 -0.1523  0.1556
  217MOL   H18143813   0.591   6.465   4.376  0.8920 -0.7196  1.0738
  217MOL   C18243814   0.531   6.573   4.161  0.1002  0.6943  0.3098
  217MOL   C18343815   0.511   6.633   4.017  0.9413 -0.5585  0.0374
  217MOL   C18443816   0.406   6.557   3.939  0.3378  0.0959  0.5318
  217MOL   O18543817   0.395   6.436   3.954  0.1279  0.4278 -0.6447
  217MOL   N18643818   0.326   6.623   3.856 -0.1663 -0.0738  0.5903
  217MOL   H18743819   0.509   6.467   4.168  1.9370  0.3285  0.8284
  217MOL   H18843820   0.637   6.585   4.186  0.7021 -3.1047 -0.1988
  217MOL   H18943821   0.467   6.731   4.033 -0.2163 -1.2510  1.2638
  217MOL   H19043822   0.318   6.724   3.858 -0.7037 -0.1191  0.7666
  217MOL   H19143823   0.266   6.565   3.799  2.1624 -1.0766 -0.9174
  217MOL   C19243824   0.640   6.644   3.923  0.6811 -0.1935 -0.2495
  217MOL   C19343825   0.713   6.508   3.908  0.2968 -0.5943  0.2577
  217MOL   C19443826   0.851   6.519   3.833 -0.7538  0.2504  0.2767
  217MOL   O19543827   0.928   6.617   3.858 -0.4507  0.8304  0.1372
  217MOL   N19643828   0.894   6.417   3.752 -0.8843  0.1122  0.1099
  217MOL   H19743829   0.709   6.720   3.960  1.2108 -1.3683  1.2279
  217MOL   H19843830   0.613   6.685   3.826 -1.4446 -2.1477 -0.5016
  217MOL   H19943831   0.739   6.461   4.003 -1.6784  0.1532  1.2010
  217MOL   H20043832   0.835   6.340   3.724 -0.2241  0.1086 -1.3053
  217MOL   H20143833   0.983   6.424   3.705 -1.9812  0.3141 -1.9836
  217MOL   H20243834   0.651   6.442   3.848  1.1325  0.1800 -1.4747
  218MOL     C143835   1.014   2.770   0.827 -0.2251 -0.5904  0.0784
  218MOL     C243836   0.947   2.841   0.713  0.2868 -0.0477 -0.8504
  218MOL     C343837   0.837   2.947   0.756  0.0760 -0.2351  0.2719
  218MOL     O443838   0.824   2.972   0.877 -0.6613  0.4295 -0.4662
  218MOL     N543839   0.765   3.013   0.665  0.4520  0.0293 -0.1992
  218MOL     H643840   0.938   2.738   0.898 -0.2580  0.5850  0.5737
  218MOL     H743841   1.074   2.685   0.794  1.7385  0.7563  0.0974
  218MOL     H843842   1.026   2.900   0.666  2.4972 -2.3766 -0.2272
  218MOL     H943843   0.704   3.090   0.690  0.3578 -0.0198 -0.2758
  218MOL    H1043844   0.784   3.007   0.566  3.0693  1.2759  0.1786
  218MOL    H1143845   1.084   2.844   0.865 -0.4775 -0.6869  0.7204
  218MOL    C1243846   0.895   2.749   0.605 -0.6677 -0.6917  0.0087
  218MOL    C1343847   0.988   2.744   0.480  0.7150  0.5601  0.4735
  218MOL    C1443848   0.995   2.882   0.416  0.0152  0.6145 -0.0918
  218MOL    O1543849   0.902   2.964   0.416 -0.1692  0.2080  0.2010
  218MOL    N1643850   1.108   2.920   0.364  0.2784 -0.2789  0.5357
  218MOL    H1743851   0.802   2.788   0.564  1.6800  1.5597 -3.3499
  218MOL    H1843852   0.872   2.648   0.642  1.1463 -1.2919 -0.4404
  218MOL    H1943853   1.089   2.726   0.518  0.4387  0.8601  1.3788
  218MOL    H2043854   1.113   3.004   0.309  0.1999 -0.9041 -0.4444
  218MOL    H2143855   1.202   2.882   0.366  1.1936  1.9605  0.7788
  218MOL    C2243856   0.938   2.629   0.382  0.4920  0.1211 -0.4100
  218MOL    C2343857   0.999   2.497   0.411 -0.0806 -0.5021 -0.0663
  218MOL    C2443858   1.133   2.471   0.347  1.1024  0.4138 -0.3061
  218MOL    O2543859   1.137   2.415   0.236 -0.3594  0.4486 -0.1936
  218MOL    N2643860   1.236   2.517   0.405 -0.1003  0.3427 -0.3365
  218MOL    H2743861   0.942   2.651   0.275 -1.1984  0.5468 -0.3853
  218MOL    H2843862   0.833   2.618   0.405  0.8790 -2.8820  0.1069
  218MOL    H2943863   1.013   2.485   0.518  0.2267  1.1945  0.0975
  218MOL    H3043864   1.221   2.582   0.482 -0.3507  1.5365 -1.3726
  218MOL    H3143865   1.332   2.504   0.377 -0.1688  2.4849 -1.7337
  218MOL    C3243866   0.900   2.377   0.367 -0.1780 -0.0539  0.9865
  218MOL    C3343867   0.769   2.343   0.448 -0.7024  0.0715  0.1180
  218MOL    C3443868   0.816   2.296   0.587 -0.1203  0.4061  0.2727
  218MOL    O3543869   0.891   2.198   0.604  0.7040 -0.8802  0.2788
  218MOL    N3643870   0.781   2.373   0.688  0.0679  0.1412 -0.7138
  218MOL    H3743871   0.960   2.287   0.352  0.2949  0.2283  1.1830
  218MOL    H3843872   0.872   2.401   0.265 -0.2255  0.8521  1.2085
  218MOL    H3943873   0.710   2.434   0.457 -0.9406 -0.1982  1.3743
  218MOL    H4043874   0.831   2.356   0.774  0.8481  0.8624 -1.0183
  218MOL    H4143875   0.722   2.454   0.675 -0.5522 -0.3277 -0.8004
  218MOL    C4243876   0.693   2.235   0.361  0.0269  0.2391  1.1044
  218MOL    C4343877   0.582   2.156   0.437 -0.7286 -0.0795 -0.1761
  218MOL    C4443878   0.604   2.001   0.450 -0.6415  0.2675 -0.0152
  218MOL    O4543879   0.548   1.942   0.536 -0.1340  0.0991 -0.4519
  218MOL    N4643880   0.687   1.931   0.380 -0.5114  0.2230  0.0806
  218MOL    H4743881   0.773   2.169   0.328  1.3033  2.6681 -0.8947
  218MOL    H4843882   0.655   2.274   0.267 -0.5027 -2.0366  0.3442
  218MOL    H4943883   0.596   2.185   0.541  0.4480  1.1135 -0.6459
  218MOL    H5043884   0.728   1.974   0.298 -0.2428 -0.3829 -0.1040
  218MOL    H5143885   0.708   1.833   0.392  0.4107  0.5167  0.8785
  218MOL    C5243886   0.441   2.206   0.409 -0.4316 -0.4231 -0.7488
  218MOL    C5343887   0.376   2.149   0.276  0.7896  0.2405 -0.2247
  218MOL    C5443888   0.293   2.259   0.205  0.7637 -0.7738 -0.2207
  218MOL    O5543889   0.179   2.237   0.162 -0.1404  0.4211  0.4594
  218MOL    N5643890   0.345   2.377   0.197 -0.3579  0.0959  0.1776
  218MOL    H5743891   0.465   2.312   0.416 -0.8749 -0.4652  1.5819
  218MOL    H5843892   0.383   2.192   0.500  0.4433  1.6125  0.1462
  218MOL    H5943893   0.452   2.107   0.209  1.2460 -0.0309  0.4598
  218MOL    H6043894   0.437   2.404   0.229 -0.0643  2.0738 -2.2410
  218MOL    H6143895   0.269   2.440   0.177 -0.0498  0.4223  0.0228
  218MOL    C6243896   0.283   2.027   0.312 -0.5092 -0.0187 -0.4824
  218MOL    C6343897   0.218   1.945   0.197  0.4818  0.2564  0.4218
  218MOL    C6443898   0.063   1.926   0.214  0.2503 -0.5877  0.7479
  218MOL    O6543899   0.007   1.823   0.259  0.4585  0.7530 -0.4897
  218MOL    N6643900   7.648   2.032   0.179  0.0332  0.0617  0.3871
  218MOL    H6743901   0.208   2.067   0.379 -0.9343  0.5807 -1.3087
  218MOL    H6843902   0.337   1.963   0.382  0.7650  1.9070  0.3389
  218MOL    H6943903   0.237   1.995   0.102  0.4951 -1.2960 -0.4120
  218MOL    H7043904   7.547   2.030   0.180  0.0493 -1.2003  0.8466
  218MOL    H7143905   0.037   2.119   0.158 -1.2559  1.1225  1.8071
  218MOL    C7243906   0.279   1.797   0.193 -0.1441 -0.0200  0.1330
  218MOL    C7343907   0.414   1.782   0.118 -0.8549  0.1742  0.4529
  218MOL    C7443908   0.393   1.810   7.625 -0.1433 -0.5581  0.0589
  218MOL    O7543909   0.331   1.736   7.553 -0.0214  0.0852  0.0264
  218MOL    N7643910   0.433   1.918   7.569  0.6136  0.4840 -0.0242
  218MOL    H7743911   0.218   1.723   0.140 -0.9465  0.1675  0.7900
  218MOL    H7843912   0.290   1.763   0.296 -0.6292  1.3291  0.6398
  218MOL    H7943913   0.484   1.854   0.162 -0.4365 -0.8025  1.4005
  218MOL    H8043914   0.501   1.980   7.611  1.1105 -0.9342  1.3470
  218MOL    H8143915   0.416   1.937   7.472 -0.6546 -0.9099 -0.0830
  218MOL    C8243916   0.469   1.633   0.134 -0.0210  0.5093 -0.8018
  218MOL    C8343917   0.626   1.616   0.126  0.6990 -0.1657 -0.6553
  218MOL    C8443918   0.670   1.640   7.646 -0.3287  0.1293  0.5122
  218MOL    O8543919   0.645   1.556   7.562 -0.5834 -0.0150 -0.1680
  218MOL    N8643920   0.731   1.754   7.621 -0.3632 -0.0245  0.3843
  218MOL    H8743921   0.424   1.573   0.055  0.6325  2.4212 -2.6742
  218MOL    H8843922   0.438   1.590   0.230 -0.9791 -0.5273 -1.5641
  218MOL    H8943923   0.663   1.699   0.185 -1.4728  0.1595  0.2928
  218MOL    H9043924   0.766   1.777   7.529 -0.0556 -0.6268  0.3497
  218MOL    H9143925   0.756   1.807   0.046  0.9813 -2.5045  1.6680
  218MOL    C9243926   0.662   1.477   0.187  0.1684 -0.3345  0.1441
  218MOL    C9343927   0.762   1.472   0.300  0.4707  0.2163 -0.1879
  218MOL    C9443928   0.705   1.553   0.421 -0.1413  0.0766 -0.1905
  218MOL    O9543929   0.750   1.661   0.447 -0.0379  0.2167  0.9932
  218MOL    N9643930   0.615   1.498   0.493  0.8156  0.1713 -0.3525
  218MOL    H9743931   0.707   1.409   0.114  0.8922 -1.8307  1.9601
  218MOL    H9843932   0.574   1.423   0.222  0.8833 -1.9186 -0.4639
  218MOL    H9943933   0.776   1.368   0.331 -2.3971  0.3151  1.6271
  218MOL   H10043934   0.581   1.552   0.572  0.9943 -0.5219  0.1974
  218MOL   H10143935   0.563   1.412   0.481 -0.8339  1.1456 -0.3805
  218MOL   C10243936   0.897   1.521   0.257 -0.2697  0.2843 -0.7271
  218MOL   C10343937   0.972   1.428   0.161 -0.2549  0.1639 -0.2038
  218MOL   C10443938   1.035   1.309   0.232  0.1658 -0.0366  0.8032
  218MOL   O10543939   1.116   1.327   0.326 -0.1553 -0.3365  0.2469
  218MOL   N10643940   0.996   1.190   0.185  0.1140 -0.9316  0.0362
  218MOL   H10743941   0.951   1.522   0.351 -3.0216 -0.5517  0.9495
  218MOL   H10843942   0.905   1.628   0.239 -2.6084  0.6629  0.2953
  218MOL   H10943943   0.901   1.394   0.086  0.1904 -0.4900 -0.3397
  218MOL   H11043944   1.043   1.111   0.227  0.1039 -0.4901  0.8945
  218MOL   H11143945   0.925   1.176   0.115  0.0886  2.4848 -0.6905
  218MOL   C11243946   1.085   1.508   0.090 -1.1012  0.0365  0.4840
  218MOL   C11343947   1.035   1.591   7.629 -0.2623  0.0203  0.7429
  218MOL   C11443948   1.011   1.507   7.497  0.2865  0.2683  0.0112
  218MOL   O11543949   1.105   1.444   7.442 -0.2271 -0.2163 -0.1077
  218MOL   N11643950   0.893   1.497   7.450 -0.3316  0.2920  0.6624
  218MOL   H11743951   1.162   1.437   0.060 -2.8149 -0.6005 -2.6719
  218MOL   H11843952   1.126   1.577   0.163 -0.4958  0.0209  0.1622
  218MOL   H11943953   0.943   1.634   0.010 -0.0991  0.1356  1.0109
  218MOL   H12043954   0.879   1.468   7.354  2.9392 -1.8823  0.7693
  218MOL   H12143955   0.813   1.532   7.501 -1.6414 -0.9209 -0.5060
  218MOL   C12243956   1.131   1.713   7.595  0.4901  0.2817  0.3634
  218MOL   C12343957   1.057   1.839   7.541  0.5610 -0.5734 -0.1996
  218MOL   C12443958   0.980   1.818   7.406  0.0756  0.0355 -0.3729
  218MOL   O12543959   0.864   1.847   7.406 -0.1445  0.0590 -0.0362
  218MOL   N12643960   1.042   1.756   7.305 -0.0148 -0.0178  0.4061
  218MOL   H12743961   1.207   1.688   7.521 -0.8079 -1.4590 -0.4242
  218MOL   H12843962   1.177   1.751   0.029  0.6273  1.5457 -0.2218
  218MOL   H12943963   0.978   1.850   7.616 -0.3726  0.0777 -1.2545
  218MOL   H13043964   1.143   1.752   7.312  0.0002 -2.5310 -0.7109
  218MOL   H13143965   0.997   1.745   7.215  0.8299 -1.0673  0.0944
  218MOL   C13243966   1.158   1.953   7.538 -0.2039 -0.0104 -0.5900
  218MOL   C13343967   1.094   2.094   7.512 -1.0273  0.0847 -0.1539
  218MOL   C13443968   1.178   2.180   7.419 -0.1225 -0.3334  0.0301
  218MOL   O13543969   1.279   2.232   7.463 -0.0271  1.0274  0.0416
  218MOL   N13643970   1.148   2.187   7.287 -0.0798 -0.3839 -0.2256
  218MOL   H13743971   1.223   1.922   7.456 -0.8167 -1.1047 -0.6669
  218MOL   H13843972   1.206   1.956   7.636 -1.4897 -0.7395  0.0633
  218MOL   H13943973   1.000   2.087   7.458 -1.3339  1.1391  0.2436
  218MOL   H14043974   1.205   2.242   7.225 -0.9576  0.4025 -0.3287
  218MOL   H14143975   1.072   2.129   7.254  0.5940  0.8820 -4.1905
  218MOL   C14243976   1.054   2.176   7.634  0.3284  0.1907 -0.2147
  218MOL   C14343977   0.918   2.155   0.051  0.1215 -0.0720 -0.0220
  218MOL   C14443978   0.919   2.043   0.155  0.0539 -0.8313 -0.0058
  218MOL   O14543979   0.855   1.942   0.141 -0.0271  0.0997 -0.4903
  218MOL   N14643980   0.995   2.050   0.261  0.0545  0.5555  0.4474
  218MOL   H14743981   1.063   2.280   7.604 -0.4029  0.0372 -0.9803
  218MOL   H14843982   1.140   2.179   0.045  0.9933 -0.3920 -1.0235
  218MOL   H14943983   0.908   2.244   0.112  0.0348  1.1313 -1.7574
  218MOL   H15043984   0.997   1.967   0.318  0.6885  0.5664  0.4487
  218MOL   H15143985   1.065   2.122   0.273  1.7520 -1.1249  0.9503
  218MOL   C15243986   0.788   2.161   7.617  0.0975 -0.6266 -0.2728
  218MOL   C15343987   0.745   2.298   7.565 -0.0688 -0.2849 -0.2927
  218MOL   C15443988   0.597   2.312   7.563  0.3301 -0.1038  1.4480
  218MOL   O15543989   0.536   2.220   7.519 -0.4333 -0.5423  0.1199
  218MOL   N15643990   0.538   2.425   7.597 -0.2625 -0.0465  0.5372
  218MOL   H15743991   0.708   2.112   0.015 -0.5891 -0.0755 -0.7795
  218MOL   H15843992   0.805   2.094   7.532  1.5526  0.0325 -0.5166
  218MOL   H15943993   0.778   2.379   7.630  0.2881 -0.7892  0.1662
  218MOL   H16043994   0.437   2.422   7.588 -0.0430 -1.8165 -1.9869
  218MOL   H16143995   0.596   2.504   7.621  2.3546 -1.8224  0.2684
  218MOL   C16243996   0.819   2.335   7.430  0.1823 -0.2484  0.5256
  218MOL   C16343997   0.791   2.456   7.341 -0.1271 -0.9111  0.1078
  218MOL   C16443998   0.875   2.444   7.215 -0.4465 -0.7174  0.4108
  218MOL   O16543999   0.990   2.485   7.206 -0.0143  0.3199  0.3237
  218MOL   N16644000   0.823   2.379   7.106 -0.2005  0.2602 -0.9768
  218MOL   H16744001   0.808   2.248   7.366 -2.0713  2.0953 -2.4426
  218MOL   H16844002   0.924   2.351   7.454  0.0117  0.3123  0.9067
  218MOL   H16944003   0.688   2.443   7.308  0.4057  1.4219 -2.6922
  218MOL   H17044004   0.727   2.347   7.101 -0.2759  0.2339  0.4448
  218MOL   H17144005   0.880   2.341   7.032  1.0731  1.0850 -0.4368
  218MOL   C17244006   0.791   2.599   7.409 -0.3087 -0.0780  0.6924
  218MOL   C17344007   0.911   2.656   7.483  0.0066  0.6639  0.2849
  218MOL   C17444008   0.938   2.603   7.625  0.4070  1.0273  0.0725
  218MOL   O17544009   0.846   2.595   0.053  0.3721 -0.0539  0.1268
  218MOL   N17644010   1.058   2.562   7.652  0.1617  0.3453 -0.7743
  218MOL   H17744011   0.705   2.600   7.474  0.3885 -4.1617  1.8584
  218MOL   H17844012   0.765   2.673   7.334  0.1543  0.2293  0.8359
  218MOL   H17944013   0.996   2.623   7.423  0.0667 -2.5359  1.9915
  218MOL   H18044014   1.123   2.556   7.575  1.1468  1.7224 -0.0755
  218MOL   H18144015   1.076   2.542   0.093 -0.4177 -0.0050 -0.7361
  218MOL   C18244016   0.907   2.807   7.490  0.6879 -0.6278  0.1971
  218MOL   C18344017   0.952   2.884   7.360 -0.3822  0.6607 -0.1368
  218MOL   C18444018   1.102   2.861   7.340  0.0717 -0.7042  0.3351
  218MOL   O18544019   1.181   2.927   7.411 -0.4139  0.0898 -0.3449
  218MOL   N18644020   1.144   2.785   7.239  0.1357 -0.2942  0.0974
  218MOL   H18744021   0.960   2.850   7.575  1.6559  1.0069 -1.1980
  218MOL   H18844022   0.805   2.836   7.510  0.0283 -2.1736 -0.7988
  218MOL   H18944023   0.904   2.851   7.268 -1.5584  3.8252 -0.7200
  218MOL   H19044024   1.075   2.717   7.210  0.6786  0.3521 -2.8802
  218MOL   H19144025   1.242   2.769   7.219 -0.1487 -0.7272 -1.0406
  218MOL   C19244026   0.912   3.034   7.381 -0.4755  0.0755 -0.6057
  218MOL   C19344027   0.981   3.138   7.284  0.1687  0.0134 -0.7345
  218MOL   C19444028   0.886   3.259   7.279 -0.0022 -0.2476 -0.6822
  218MOL   O19544029   0.887   3.335   7.374 -0.2582 -0.2793 -0.6445
  218MOL   N19644030   0.815   3.271   7.169 -0.6087 -0.3502  0.1604
  218MOL   H19744031   0.934   3.049   7.487 -0.7621 -1.5586 -0.3117
  218MOL   H19844032   0.804   3.044   7.374 -0.8255 -1.2046  2.4553
  218MOL   H19944033   1.083   3.161   7.314  0.2962 -1.1620 -0.2280
  218MOL   H20044034   0.748   3.346   7.157  1.4003  1.5361  0.6248
  218MOL   H20144035   0.819   3.201   7.096  3.6199  0.6960 -0.7155
  218MOL   H20244036   0.986   3.096   7.184  0.6259  1.4934 -1.3354
  219MOL     C144037   7.261   7.094   3.133  0.2424 -0.3272  0.2238
  219MOL     C244038   7.250   7.169   3.274 -0.5036 -0.0625 -0.2287
  219MOL     C344039   7.125   7.129   3.355 -0.3594 -0.0191  0.4056
  219MOL     O444040   7.128   7.023   3.415 -0.2073 -0.2166  0.0157
  219MOL     N544041   7.021   7.214   3.358  0.1316 -0.3464 -0.4037
  219MOL     H644042   7.184   7.128   3.064  1.0306  0.2813 -0.3622
  219MOL     H744043   7.352   7.114   3.077 -0.3874  1.0635 -0.3085
  219MOL     H844044   7.327   7.136   3.343  1.3335  0.6452 -1.9088
  219MOL     H944045   7.027   7.303   3.311 -0.9023  1.0151  1.9311
  219MOL    H1044046   6.940   7.210   3.418  0.3045  2.0544  0.0285
  219MOL    H1144047   7.260   6.985   3.141 -0.1316 -0.4010 -0.8304
  219MOL    C1244048   7.277   7.321   3.258  0.0378  0.3207 -0.3130
  219MOL    C1344049   7.434   7.368   3.251 -0.2584  0.4823 -0.4314
  219MOL    C1444050   7.519   7.330   3.374 -0.3845 -0.2106  0.3314
  219MOL    O1544051   7.494   7.387   3.487 -0.5576 -0.7941 -0.0380
  219MOL    N1644052   7.622   7.249   3.362 -0.2446  0.0327  0.0436
  219MOL    H1744053   7.245   7.376   3.346 -0.4144 -0.9956  0.3585
  219MOL    H1844054   7.226   7.355   3.168 -1.2182  3.2683  1.4565
  219MOL    H1944055   7.486   7.312   3.173  1.6292  2.7450 -0.8533
  219MOL    H2044056   0.049   7.252   3.419  0.3255 -2.4408 -0.6232
  219MOL    H2144057   7.626   7.214   3.267 -0.9232 -1.9003  0.7052
  219MOL    C2244058   7.449   7.512   3.213  0.3780  0.0127  0.1187
  219MOL    C2344059   7.590   7.571   3.191  0.0562  0.5573 -0.7694
  219MOL    C2444060   7.623   7.641   3.320  0.1024 -0.7267 -0.5104
  219MOL    O2544061   7.561   0.085   3.362 -0.4092 -0.3622 -0.1916
  219MOL    N2644062   0.063   7.594   3.402 -0.2087 -0.5381  0.0418
  219MOL    H2744063   7.380   7.573   3.272 -0.6087  0.6431 -1.6501
  219MOL    H2844064   7.414   7.504   3.110  2.2599 -2.4762 -0.3661
  219MOL    H2944065   0.003   7.487   3.186 -1.9620 -1.2824  0.9190
  219MOL    H3044066   0.069   7.639   3.492 -0.4010 -1.8668  0.7387
  219MOL    H3144067   0.131   7.525   3.372 -0.5818 -0.5239 -0.8619
  219MOL    C3244068   7.612   0.019   3.082  0.4178  0.3798 -0.1586
  219MOL    C3344069   7.566   7.640   2.944  0.1224  0.0081 -0.6387
  219MOL    C3444070   7.606   7.500   2.903 -0.0243 -0.1882 -0.1315
  219MOL    O3544071   0.061   7.459   2.928 -0.0692  0.5004 -0.8186
  219MOL    N3644072   7.517   7.425   2.845 -0.0697  0.1448  0.4274
  219MOL    H3744073   0.062   0.036   3.074  0.3900  0.7126  0.1899
  219MOL    H3844074   7.571   0.118   3.100 -2.3912 -0.6649 -0.4927
  219MOL    H3944075   7.458   7.650   2.949  0.4455  3.4924  0.6698
  219MOL    H4044076   7.423   7.461   2.832 -1.5012 -3.1325  1.0755
  219MOL    H4144077   7.534   7.334   2.806 -0.1764  0.6371 -0.7944
  219MOL    C4244078   7.630   0.092   2.843  0.1456  0.6660 -0.0988
  219MOL    C4344079   7.552   0.234   2.826 -0.3753 -0.0791  0.0398
  219MOL    C4444080   7.442   0.207   2.718  0.2163  0.2759  0.3262
  219MOL    O4544081   7.470   0.219   2.600 -0.2076 -0.0074 -0.2412
  219MOL    N4644082   7.326   0.155   2.756 -0.0511  0.0174 -0.5338
  219MOL    H4744083   7.642   0.051   2.742 -0.1936  0.8873 -0.2315
  219MOL    H4844084   0.079   0.102   2.864  0.3428  2.1010 -1.6320
  219MOL    H4944085   7.516   0.249   2.928 -0.7487  1.3861 -0.2875
  219MOL    H5044086   7.262   0.119   2.687  1.8830 -0.6583 -1.9935
  219MOL    H5144087   7.309   0.133   2.853  1.0437  3.1756  0.4334
  219MOL    C5244088   0.006   0.342   2.794 -0.0577  0.3845 -0.2057
  219MOL    C5344089   7.611   0.487   2.814  0.2646  0.3437 -1.3094
  219MOL    C5444090   7.589   0.514   2.965  0.1441 -0.6867 -0.7964
  219MOL    O5544091   7.473   0.508   3.015 -0.5534  0.2082  0.1618
  219MOL    N5644092   0.048   0.525   3.028  0.6331 -0.2779  0.0070
  219MOL    H5744093   0.033   0.323   2.691 -0.7759 -3.5549  0.2617
  219MOL    H5844094   0.104   0.319   2.837  0.7894  2.8645 -0.7522
  219MOL    H5944095   0.042   0.547   2.787  0.4133  1.3710  1.3271
  219MOL    H6044096   0.129   0.514   2.968 -0.7272 -0.8202 -1.7806
  219MOL    H6144097   0.051   0.522   3.129  1.5161  1.6586  0.0486
  219MOL    C6244098   7.494   0.526   2.721  0.3300 -0.5782 -0.1216
  219MOL    C6344099   7.451   0.675   2.714  0.1826  0.0000  0.1635
  219MOL    C6444100   7.306   0.699   2.682 -0.6257  0.1072 -0.3346
  219MOL    O6544101   7.266   0.670   2.572 -0.3484 -0.2586  0.4772
  219MOL    N6644102   7.242   0.772   2.770  0.7488 -0.0668 -0.0656
  219MOL    H6744103   7.406   0.477   2.763 -0.2374 -0.2007 -0.8513
  219MOL    H6844104   7.507   0.485   2.621  1.3019 -0.3702 -0.0868
  219MOL    H6944105   7.472   0.711   2.814  1.5209  2.0204 -0.8141
  219MOL    H7044106   7.298   0.807   2.846  1.9866 -0.0740 -0.9725
  219MOL    H7144107   7.160   0.829   2.754  0.2437 -0.8701 -0.3462
  219MOL    C7244108   7.539   0.742   2.617  0.2088  0.7102 -0.6592
  219MOL    C7344109   7.561   0.895   2.632  0.2316  0.6140 -0.0236
  219MOL    C7444110   7.457   0.978   2.556 -0.0631  0.1255  0.4438
  219MOL    O7544111   7.439   0.978   2.436 -0.1531 -0.1273  0.5941
  219MOL    N7644112   7.377   1.059   2.628 -0.6756 -0.5414 -0.0449
  219MOL    H7744113   7.518   0.724   2.511 -0.1803 -1.3384 -0.2560
  219MOL    H7844114   7.641   0.706   2.632 -0.1533 -1.4633 -3.1080
  219MOL    H7944115   7.571   0.927   2.736  3.7563 -1.6857  0.4343
  219MOL    H8044116   7.389   1.072   2.727  1.8941 -0.0913 -0.3896
  219MOL    H8144117   7.303   1.109   2.581 -0.0518  0.3827 -0.0567
  219MOL    C8244118   0.057   0.929   2.599  0.4004 -0.1824  0.3397
  219MOL    C8344119   0.100   0.931   2.449  0.0336 -0.4596  0.2366
  219MOL    C8444120   0.113   0.793   2.389 -0.8664 -0.3283 -0.1135
  219MOL    O8544121   0.190   0.711   2.438  0.5471  0.1800 -0.0849
  219MOL    N8644122   0.038   0.759   2.287 -0.3282  0.5882 -0.2721
  219MOL    H8744123   0.131   0.870   2.654  0.0757 -0.8421  0.0666
  219MOL    H8844124   0.070   1.026   2.647  1.8993 -0.5621  0.7274
  219MOL    H8944125   0.025   0.985   2.390  1.3134  1.1407  0.0485
  219MOL    H9044126   0.059   0.666   2.252 -1.6828  0.8885 -1.9784
  219MOL    H9144127   7.637   0.820   2.231 -1.5164 -1.3807 -1.2522
  219MOL    C9244128   0.236   1.007   2.443 -0.4943 -0.7178  0.2252
  219MOL    C9344129   0.261   1.071   2.303 -0.5764 -0.0594  0.6146
  219MOL    C9444130   0.399   1.039   2.253  0.6358 -0.2808  0.5508
  219MOL    O9544131   0.497   1.061   2.326  0.5056  0.6890  0.0921
  219MOL    N9644132   0.398   0.971   2.144  1.4143  0.4090 -0.1087
  219MOL    H9744133   0.320   0.941   2.464  0.3960 -1.3949 -4.7549
  219MOL    H9844134   0.237   1.079   2.525  2.1155 -3.5533  2.7992
  219MOL    H9944135   0.192   1.026   2.231  1.0591 -1.2660 -0.2322
  219MOL   H10044136   0.486   0.930   2.114  1.9311  1.1711  0.3541
  219MOL   H10144137   0.318   0.950   2.086 -0.7851 -1.5432  3.4484
  219MOL   C10244138   0.240   1.222   2.302 -0.2763 -0.2657  0.6148
  219MOL   C10344139   0.094   1.265   2.337 -0.2764  0.2541  0.1685
  219MOL   C10444140   0.005   1.245   2.215 -0.7252 -0.2465  0.0327
  219MOL   O10544141   0.012   1.323   2.121 -0.1142 -0.0669  0.2617
  219MOL   N10644142   7.582   1.139   2.207  0.0150 -0.0021 -0.7399
  219MOL   H10744143   0.261   1.263   2.203 -1.4175  0.2148  0.5616
  219MOL   H10844144   0.319   1.261   2.367  0.8222 -2.1052  0.4057
  219MOL   H10944145   0.057   1.198   2.414  1.2448 -1.2035 -0.3591
  219MOL   H11044146   7.566   1.077   2.285  0.1317 -0.8771 -1.3976
  219MOL   H11144147   7.509   1.149   2.139  0.7469  2.8543 -1.1528
  219MOL   C11244148   0.091   1.406   2.388 -0.2599 -0.2777 -0.2791
  219MOL   C11344149   0.107   1.431   2.543  1.0283  0.1448  0.0344
  219MOL   C11444150   0.257   1.430   2.589  0.2419 -0.2166 -0.1077
  219MOL   O11544151   0.326   1.327   2.598  0.4294 -0.8964 -0.7183
  219MOL   N11644152   0.302   1.545   2.626 -0.0726  0.2967  0.1957
  219MOL   H11744153   7.654   1.462   2.381 -0.2296  0.0443  1.5760
  219MOL   H11844154   0.163   1.473   2.342  3.0224 -2.4411  1.4805
  219MOL   H11944155   0.065   1.529   2.565 -1.4683 -0.6942 -0.8460
  219MOL   H12044156   0.396   1.568   2.654  0.3920 -0.1852 -0.9362
  219MOL   H12144157   0.246   1.628   2.616  1.6358  1.2464 -1.6739
  219MOL   C12244158   0.012   1.345   2.641  0.2944  0.1066  0.5876
  219MOL   C12344159   7.632   1.407   2.776  0.0218  0.3191  0.0590
  219MOL   C12444160   7.586   1.288   2.868 -1.2933 -0.1776  0.7155
  219MOL   O12544161   7.479   1.230   2.854 -0.2604  0.2431  0.0981
  219MOL   N12644162   7.654   1.241   2.964  0.2668 -0.4940  0.0313
  219MOL   H12744163   0.059   1.249   2.664 -0.9840 -1.2764 -2.2873
  219MOL   H12844164   7.578   1.321   2.586  1.6237 -0.3472 -1.4763
  219MOL   H12944165   0.062   1.449   2.827 -0.2779 -0.0842  0.9186
  219MOL   H13044166   7.609   1.163   3.009 -0.9157  0.2131  0.1025
  219MOL   H13144167   0.097   1.252   2.974  0.7130 -0.4807 -3.7737
  219MOL   C13244168   7.517   1.517   2.769 -0.0353  0.1602 -0.1660
  219MOL   C13344169   7.470   1.586   2.901 -0.9832  0.5728  0.3316
  219MOL   C13444170   7.582   1.659   2.981 -0.2258  0.2884  0.6130
  219MOL   O13544171   7.597   1.650   3.106 -0.5594  0.1555  0.1656
  219MOL   N13644172   0.008   1.735   2.914 -0.0086 -0.3739  0.7984
  219MOL   H13744173   7.434   1.465   2.722 -0.0664 -0.5244  0.6423
  219MOL   H13844174   7.547   1.598   2.702  2.8737 -0.1017  0.7580
  219MOL   H13944175   7.403   1.662   2.862  0.6728  1.6161 -0.5486
  219MOL   H14044176   0.068   1.798   2.964 -0.9512  0.1031  1.3360
  219MOL   H14144177   7.649   1.751   2.815  1.9059  0.2066  0.5599
  219MOL   C14244178   7.384   1.486   2.984 -0.9098  0.4746  0.1395
  219MOL   C14344179   7.270   1.534   3.089 -0.0586 -0.0473 -0.2839
  219MOL   C14444180   7.148   1.443   3.097  0.1369 -0.8534 -0.1563
  219MOL   O14544181   7.073   1.431   2.997 -0.7007  0.1014  0.2025
  219MOL   N14644182   7.138   1.358   3.199  0.5072  0.1833  0.0374
  219MOL   H14744183   7.442   1.419   3.048 -3.7132 -0.7920  1.4414
  219MOL   H14844184   7.323   1.429   2.914  0.1107 -0.2426 -0.1792
  219MOL   H14944185   7.320   1.529   3.186 -0.0513  0.1304 -0.2780
  219MOL   H15044186   7.070   1.284   3.189  0.5890  0.1570 -0.3581
  219MOL   H15144187   7.174   1.379   3.291 -0.6026  1.5930  0.1677
  219MOL   C15244188   7.235   1.685   3.070 -0.0071  0.6200  0.0027
  219MOL   C15344189   7.147   1.750   3.178 -0.0414  0.2336 -0.7887
  219MOL   C15444190   7.103   1.888   3.131  1.0925  0.0884  0.3450
  219MOL   O15544191   7.175   1.986   3.118  0.4245 -0.0738  0.9095
  219MOL   N15644192   6.975   1.900   3.107  0.4441  0.1392 -0.2411
  219MOL   H15744193   7.187   1.689   2.973  1.8637  2.6145 -0.8752
  219MOL   H15844194   7.331   1.735   3.058  0.6205  0.0974  2.5312
  219MOL   H15944195   7.055   1.696   3.202  0.9920 -0.5455  1.5975
  219MOL   H16044196   6.935   1.986   3.071 -3.0168 -1.3848 -0.1790
  219MOL   H16144197   6.910   1.828   3.133  1.9111 -0.7225  1.1362
  219MOL   C16244198   7.222   1.767   3.316  0.5596  0.3428 -0.6197
  219MOL   C16344199   7.164   1.686   3.431  0.0148  0.5553  0.5594
  219MOL   C16444200   7.028   1.733   3.475 -0.3010  0.5349 -0.1266
  219MOL   O16544201   6.934   1.653   3.492 -0.5673 -0.7218 -0.5859
  219MOL   N16644202   7.014   1.866   3.491  0.0017 -0.0611  0.2220
  219MOL   H16744203   7.234   1.866   3.358 -2.2111  0.0916  0.9273
  219MOL   H16844204   7.322   1.732   3.289  0.0627 -0.0659 -1.9817
  219MOL   H16944205   7.151   1.581   3.402  0.1318 -0.0564  2.5838
  219MOL   H17044206   6.922   1.894   3.522 -0.6387 -1.3169 -0.5267
  219MOL   H17144207   7.087   1.936   3.497  1.0675 -1.1248 -0.0474
  219MOL   C17244208   7.273   1.689   3.546  0.8955 -0.2639  0.2213
  219MOL   C17344209   7.232   1.620   3.678  0.2157  0.2989 -0.4963
  219MOL   C17444210   7.282   1.694   3.801  0.1096 -0.4320  0.1367
  219MOL   O17544211   7.403   1.701   3.822  0.4373  0.3352 -0.2976
  219MOL   N17644212   7.196   1.754   3.880 -0.5561 -0.1778  0.1427
  219MOL   H17744213   7.297   1.791   3.575 -0.3569 -0.0484  0.5534
  219MOL   H17844214   7.352   1.627   3.505  0.3484 -0.0973 -1.1057
  219MOL   H17944215   7.124   1.616   3.695  0.6411  1.3165  2.9227
  219MOL   H18044216   7.239   1.768   3.971 -1.4224 -2.7720  0.9857
  219MOL   H18144217   7.097   1.744   3.866 -0.4637  1.1629 -1.6108
  219MOL   C18244218   7.286   1.471   3.690  0.4374  0.8676 -0.2289
  219MOL   C18344219   7.249   1.362   3.581 -0.0880  0.2751  0.3227
  219MOL   C18444220   7.106   1.314   3.593 -0.2749  0.2431  0.1726
  219MOL   O18544221   7.072   1.209   3.647  0.1622  0.2716  0.2686
  219MOL   N18644222   7.009   1.391   3.547  0.3388  0.2120  0.1951
  219MOL   H18744223   7.263   1.432   3.789  1.6618  2.8136  0.8542
  219MOL   H18844224   7.395   1.481   3.689  0.6422 -0.9949  0.4175
  219MOL   H18944225   7.252   1.401   3.479 -0.0069 -2.2619 -0.7047
  219MOL   H19044226   6.919   1.346   3.541  0.3224  0.3619 -0.6976
  219MOL   H19144227   7.019   1.482   3.504  2.4541 -0.4297 -0.7186
  219MOL   C19244228   7.349   1.243   3.578  0.1351  0.2842  0.8030
  219MOL   C19344229   7.488   1.260   3.518  0.3999 -0.0343 -0.1008
  219MOL   C19444230   7.477   1.335   3.385  0.3217  0.0463  0.3189
  219MOL   O19544231   7.429   1.275   3.292  0.7194  0.1872 -0.2723
  219MOL   N19644232   7.501   1.467   3.382 -0.1178 -0.4911  0.1746
  219MOL   H19744233   7.295   1.156   3.541  1.4378 -0.0430 -0.3865
  219MOL   H19844234   7.362   1.213   3.682 -0.3736  0.5179  0.9359
  219MOL   H19944235   7.549   1.308   3.595  2.2749 -0.2321 -1.4259
  219MOL   H20044236   7.490   1.524   3.299  1.9518 -2.7568 -1.7605
  219MOL   H20144237   7.558   1.505   3.456  2.6360  0.1639 -2.1819
  219MOL   H20244238   7.533   1.162   3.502  0.1058  0.0551 -1.5225
  220MOL     C144239   3.761   5.999   6.865  0.1684  0.3890 -1.1077
  220MOL     C244240   3.840   5.887   6.944  0.6078  0.1371 -0.5578
  220MOL     C344241   3.814   5.751   6.877  0.2567 -0.0195 -0.0640
  220MOL     O444242   3.701   5.708   6.890  0.2000 -0.0063 -0.1078
  220MOL     N544243   3.910   5.679   6.828  0.2719  0.1664 -0.0356
  220MOL     H644244   3.829   6.033   6.787  0.5120  0.1486 -0.9153
  220MOL     H744245   3.671   5.957   6.821 -0.0347  0.0458 -0.3869
  220MOL     H844246   3.946   5.911   6.936  0.4969  0.8904  0.1492
  220MOL     H944247   3.996   5.726   6.803  0.2303 -0.1461 -0.7787
  220MOL    H1044248   3.882   5.601   6.770 -2.1022  1.2763 -0.4234
  220MOL    H1144249   3.731   6.082   6.929 -1.0447 -1.4554  0.8277
  220MOL    C1244250   3.789   5.888   7.089  0.2361  0.8598 -0.2009
  220MOL    C1344251   3.877   5.792   7.172 -0.6347  0.5313  0.3220
  220MOL    C1444252   3.811   5.776   7.318  0.0905  0.1058  0.5539
  220MOL    O1544253   3.809   5.874   7.395  0.4587 -0.0412  0.0178
  220MOL    N1644254   3.760   5.663   7.360  0.3025 -0.1149  0.2041
  220MOL    H1744255   3.687   5.851   7.089 -0.2135  2.0685 -1.0195
  220MOL    H1844256   3.800   5.990   7.123  1.5663  1.7254 -3.0810
  220MOL    H1944257   3.876   5.689   7.137 -2.2413  0.2891  1.0068
  220MOL    H2044258   3.760   5.580   7.302  2.3746 -0.6005  0.8423
  220MOL    H2144259   3.720   5.658   7.453 -0.1076 -0.8349 -0.0119
  220MOL    C2244260   4.021   5.837   7.177 -0.0239 -0.4962  0.5173
  220MOL    C2344261   4.120   5.785   7.283 -1.1721  0.1608  0.2667
  220MOL    C2444262   4.170   5.897   7.380  0.5033 -0.2443  0.3899
  220MOL    O2544263   4.293   5.910   7.404 -0.0984 -0.6049 -0.8602
  220MOL    N2644264   4.082   5.980   7.422 -0.3085 -0.0904  0.8252
  220MOL    H2744265   4.026   5.945   7.168  1.6025 -0.6156 -0.2029
  220MOL    H2844266   4.071   5.801   7.087  0.0137  1.5747 -0.3260
  220MOL    H2944267   4.074   5.719   7.356 -0.6551 -1.0229 -0.4620
  220MOL    H3044268   3.987   5.968   7.392 -0.7513  2.1362  1.2584
  220MOL    H3144269   4.107   6.067   7.467 -0.5682  1.3325 -1.6710
  220MOL    C3244270   4.242   5.713   7.216  0.4937  0.0040 -0.0547
  220MOL    C3344271   4.216   5.577   7.152  0.2730 -0.5573 -0.6176
  220MOL    C3444272   4.200   5.477   7.269 -0.6950 -0.6230 -0.5871
  220MOL    O3544273   4.252   5.489   7.375 -0.2198  0.4757 -0.2432
  220MOL    N3644274   4.117   5.378   7.252  0.0238 -0.3564  0.3136
  220MOL    H3744275   4.320   5.699   7.292 -1.3380  0.0898  1.8768
  220MOL    H3844276   4.290   5.787   7.152 -1.9488  0.5263 -1.3300
  220MOL    H3944277   4.134   5.576   7.079 -0.2897 -0.1985  0.0046
  220MOL    H4044278   4.081   5.334   7.335 -2.2799 -2.3457 -1.6721
  220MOL    H4144279   4.084   5.353   7.160  2.5856 -2.0503 -0.1818
  220MOL    C4244280   4.336   5.536   7.063 -0.4100  0.1706  0.2257
  220MOL    C4344281   4.378   5.612   6.934 -0.5985  0.8192 -0.4545
  220MOL    C4444282   4.270   5.611   6.833  0.3078 -0.2238 -0.0397
  220MOL    O4544283   4.183   5.700   6.829 -0.7060  0.2408 -0.2870
  220MOL    N4644284   4.271   5.508   6.745  0.8018 -0.4230  0.0505
  220MOL    H4744285   4.325   5.431   7.037  0.6649  0.1294 -0.0772
  220MOL    H4844286   4.424   5.541   7.127 -0.1635 -1.5349  0.0330
  220MOL    H4944287   4.384   5.711   6.979  0.6161 -0.4432  2.3362
  220MOL    H5044288   4.200   5.509   6.674 -0.9505  3.0448  1.7260
  220MOL    H5144289   4.351   5.448   6.736 -0.6121 -2.0975 -1.6880
  220MOL    C5244290   4.519   5.581   6.875  0.4008 -1.2103  0.2607
  220MOL    C5344291   4.572   5.685   6.776  0.7692 -0.0902 -0.3045
  220MOL    C5444292   4.705   5.642   6.715  0.0172 -0.5085  0.7517
  220MOL    O5544293   4.815   5.647   6.769 -0.5035  0.0122 -0.3859
  220MOL    N5644294   4.717   5.612   6.587  0.0418  0.1862 -0.1343
  220MOL    H5744295   4.525   5.486   6.821  1.7438 -0.5117 -0.8626
  220MOL    H5844296   4.590   5.576   6.957  1.0098  1.6755 -0.0580
  220MOL    H5944297   4.501   5.685   6.693 -0.6603 -2.3193  0.8884
  220MOL    H6044298   4.631   5.621   6.535  0.7708  1.0873 -1.1899
  220MOL    H6144299   4.804   5.592   6.541 -0.5002 -0.9993 -0.6513
  220MOL    C6244300   4.591   5.826   6.836 -0.6499  0.3639  0.9413
  220MOL    C6344301   4.463   5.927   6.839  0.0626 -0.2116 -0.1526
  220MOL    C6444302   4.419   5.945   6.695  0.5560 -0.3632  0.7704
  220MOL    O6544303   4.471   6.026   6.615  0.0405  0.1360 -0.1898
  220MOL    N6644304   4.308   5.886   6.655 -0.1696 -0.2255 -0.0456
  220MOL    H6744305   4.680   5.868   6.789 -0.6196 -2.6453 -1.8283
  220MOL    H6844306   4.638   5.813   6.933 -0.0272  0.1111  0.6072
  220MOL    H6944307   4.373   5.894   6.892  1.6128 -3.1841  0.7201
  220MOL    H7044308   4.264   5.820   6.717 -1.3584  0.4715 -0.1255
  220MOL    H7144309   4.276   5.904   6.561  1.5409  1.2199 -0.3910
  220MOL    C7244310   4.522   6.054   6.899 -0.1371 -0.2528  0.5134
  220MOL    C7344311   4.422   6.159   6.951 -0.6753 -0.2319  0.4436
  220MOL    C7444312   4.329   6.099   7.059 -0.5737  0.2409 -0.4999
  220MOL    O7544313   4.208   6.112   7.054  0.0683  0.4829 -0.2396
  220MOL    N7644314   4.383   6.039   7.162  0.7378  0.7719 -0.0410
  220MOL    H7744315   4.589   6.105   6.830 -0.5937 -1.6559 -0.9866
  220MOL    H7844316   4.575   6.033   6.993  0.2280  2.0669  0.8658
  220MOL    H7944317   4.484   6.230   7.006 -0.2059  1.1199 -1.7669
  220MOL    H8044318   4.323   5.995   7.231  0.7682  0.0766 -0.4534
  220MOL    H8144319   4.482   6.021   7.165  1.1241  2.8387  0.0172
  220MOL    C8244320   4.348   6.230   6.839 -0.3908 -0.4020  0.6076
  220MOL    C8344321   4.294   6.370   6.869  0.0902  0.4668 -0.3726
  220MOL    C8444322   4.202   6.416   6.758 -0.5183 -0.2759  0.3796
  220MOL    O8544323   4.242   6.457   6.653 -0.5063 -0.6689  0.4779
  220MOL    N8644324   4.070   6.410   6.768  0.1135 -0.4715  0.4946
  220MOL    H8744325   4.268   6.163   6.810 -1.4336  1.2252 -0.3360
  220MOL    H8844326   4.406   6.228   6.747 -0.3064 -1.3269  0.6788
  220MOL    H8944327   4.226   6.363   6.955  0.1001 -0.8781 -0.4707
  220MOL    H9044328   4.015   6.463   6.701  1.0685 -0.8608 -0.6140
  220MOL    H9144329   4.024   6.359   6.842 -1.2196  1.3205  0.9342
  220MOL    C9244330   4.398   6.477   6.904  0.1141 -0.7461 -0.1081
  220MOL    C9344331   4.516   6.507   6.812 -0.7403  0.0483  0.6951
  220MOL    C9444332   4.639   6.415   6.846  0.0136  0.2135 -0.6060
  220MOL    O9544333   4.692   6.430   6.954  0.2033 -0.0179  1.0504
  220MOL    N9644334   4.700   6.345   6.754 -0.0271  0.0515 -0.1825
  220MOL    H9744335   4.415   6.480   7.012 -2.6730  1.4758  0.3142
  220MOL    H9844336   4.343   6.570   6.894 -0.0708 -1.0873 -2.5595
  220MOL    H9944337   4.483   6.484   6.711  0.9890  1.3828 -0.1908
  220MOL   H10044338   4.775   6.286   6.787 -0.7036 -1.5744 -1.4878
  220MOL   H10144339   4.662   6.343   6.661  0.0083 -0.3243 -0.1895
  220MOL   C10244340   4.573   6.649   6.816 -0.1469  0.2519  0.1486
  220MOL   C10344341   4.662   6.694   6.697  0.4351 -0.8744  0.2612
  220MOL   C10444342   4.769   6.791   6.747  0.5814 -0.1535 -0.1176
  220MOL   O10544343   4.732   6.898   6.798 -0.1793  1.5876 -0.0220
  220MOL   N10644344   4.897   6.754   6.739 -0.2726 -0.1434 -0.1743
  220MOL   H10744345   4.609   6.660   6.918 -0.0117  0.2369  0.1028
  220MOL   H10844346   4.483   6.711   6.820 -2.5335 -2.9389 -1.2959
  220MOL   H10944347   4.719   6.610   6.658  2.6595  0.7892 -0.1789
  220MOL   H11044348   4.914   6.656   6.720 -0.2769  0.0414 -1.1422
  220MOL   H11144349   4.971   6.807   6.781 -0.6064 -0.7513  1.2065
  220MOL   C11244350   4.581   6.765   6.592 -0.3048  0.8823  0.0714
  220MOL   C11344351   4.665   6.784   6.454  0.0506  0.5706  0.1627
  220MOL   C11444352   4.586   6.895   6.375  0.5179  0.6512  0.5333
  220MOL   O11544353   4.463   6.900   6.366  0.0268 -0.2879 -0.0969
  220MOL   N11644354   4.655   6.987   6.317  0.3414 -0.8570  0.1130
  220MOL   H11744355   4.553   6.864   6.626 -0.5855  0.2841  1.5973
  220MOL   H11844356   4.482   6.728   6.566 -0.3508  1.4072 -0.5169
  220MOL   H11944357   4.764   6.826   6.474  2.1905 -4.2746  0.5238
  220MOL   H12044358   4.610   7.061   6.265 -0.6284 -1.6755 -0.2239
  220MOL   H12144359   4.756   6.977   6.316  0.2490 -1.8163 -1.4976
  220MOL   C12244360   4.715   6.659   6.380  0.2511 -0.4092 -0.9398
  220MOL   C12344361   4.614   6.563   6.321 -0.0240 -0.7469 -0.5672
  220MOL   C12444362   4.530   6.484   6.429 -0.4884 -0.3995 -0.1952
  220MOL   O12544363   4.583   6.391   6.490  0.1879  0.4436 -0.0908
  220MOL   N12644364   4.407   6.523   6.451  0.0385 -0.2287 -0.0338
  220MOL   H12744365   4.786   6.604   6.441 -0.5935 -0.3351  0.1389
  220MOL   H12844366   4.770   6.696   6.294 -0.3888  3.0275  0.0588
  220MOL   H12944367   4.548   6.613   6.250  0.7098 -2.1472 -2.2853
  220MOL   H13044368   4.352   6.471   6.518 -0.1439  0.7600  0.5908
  220MOL   H13144369   4.364   6.594   6.393  0.3167 -0.7661 -0.9087
  220MOL   C13244370   4.684   6.462   6.230  0.1611  0.2664  0.0256
  220MOL   C13344371   4.598   6.357   6.158 -0.4171  0.4954  0.7628
  220MOL   C13444372   4.639   6.211   6.180  0.1002 -0.4604 -0.6379
  220MOL   O13544373   4.680   6.145   6.086 -0.3421  0.4544  0.8265
  220MOL   N13644374   4.630   6.153   6.297 -0.9208  1.0535 -0.4423
  220MOL   H13744375   4.764   6.406   6.279 -1.2487 -1.5687  0.2949
  220MOL   H13844376   4.743   6.521   6.160  1.2009  0.8435  1.3845
  220MOL   H13944377   4.501   6.366   6.207 -0.9226 -0.1622 -0.1113
  220MOL   H14044378   4.602   6.196   6.384  0.8252 -2.9613  2.2280
  220MOL   H14144379   4.681   6.069   6.317 -0.0224  1.4292 -1.1292
  220MOL   C14244380   4.573   6.385   6.010  0.5931 -0.2164  0.2038
  220MOL   C14344381   4.455   6.306   5.955  0.7168  0.5543  0.2372
  220MOL   C14444382   4.480   6.263   5.809 -0.6121  0.4406 -0.5618
  220MOL   O14544383   4.517   6.338   5.720  0.3212 -0.7194  0.9334
  220MOL   N14644384   4.465   6.133   5.788 -0.2485 -0.1012 -0.0111
  220MOL   H14744385   4.668   6.378   5.958  0.6073  1.0767  0.0290
  220MOL   H14844386   4.547   6.489   5.991 -1.1767 -0.6709  0.0015
  220MOL   H14944387   4.441   6.213   6.010 -0.4781  0.6304  0.0946
  220MOL   H15044388   4.433   6.075   5.864 -0.5712  1.3844  1.0011
  220MOL   H15144389   4.482   6.085   5.700  1.3395  0.2814  0.0739
  220MOL   C15244390   4.325   6.387   5.955  0.1755 -0.2146 -0.9570
  220MOL   C15344391   4.268   6.423   6.091  0.0667 -0.4206 -0.0917
  220MOL   C15444392   4.240   6.296   6.178 -0.4198 -0.1801 -0.6472
  220MOL   O15544393   4.179   6.198   6.130 -0.1122  0.1006 -0.2845
  220MOL   N15644394   4.272   6.297   6.308 -0.1534 -0.5752  0.0061
  220MOL   H15744395   4.248   6.328   5.906 -1.4581  0.6993  0.4479
  220MOL   H15844396   4.339   6.483   5.905  0.7421 -1.0183 -2.3618
  220MOL   H15944397   4.334   6.488   6.149 -0.0069 -1.2629  0.9444
  220MOL   H16044398   4.248   6.211   6.357 -0.2838 -0.0877  0.8095
  220MOL   H16144399   4.313   6.380   6.348 -3.0438  0.8489  0.1251
  220MOL   C16244400   4.138   6.510   6.092  0.2535 -0.1185 -0.5834
  220MOL   C16344401   4.164   6.659   6.063 -0.5322  0.1002 -0.0516
  220MOL   C16444402   4.239   6.735   6.172  0.5111 -0.1508 -0.3229
  220MOL   O16544403   4.243   6.684   6.283 -0.2628  0.7417 -0.0808
  220MOL   N16644404   4.295   6.850   6.141  0.2677 -0.4352  0.7787
  220MOL   H16744405   4.091   6.501   6.190  0.9152  0.9193 -0.1625
  220MOL   H16844406   4.070   6.470   6.016 -0.5415  1.2156 -0.6023
  220MOL   H16944407   4.231   6.666   5.977 -1.1022 -0.4400 -0.5465
  220MOL   H17044408   4.300   6.874   6.043 -1.1099 -3.3105 -0.0520
  220MOL   H17144409   4.357   6.886   6.213 -0.7294  2.0721  0.4332
  220MOL   C17244410   4.039   6.745   6.023 -0.2904  0.1079 -0.4801
  220MOL   C17344411   3.941   6.681   5.912 -0.5316  0.4034 -0.3963
  220MOL   C17444412   4.026   6.630   5.787 -0.2996 -0.3496  0.3078
  220MOL   O17544413   4.123   6.694   5.741  0.3820 -0.0606  0.5697
  220MOL   N17644414   3.988   6.516   5.739  0.1048  0.3028 -0.0539
  220MOL   H17744415   4.076   6.841   5.990 -1.0993  1.4446  2.2979
  220MOL   H17844416   3.990   6.764   6.119 -0.6270 -1.9908 -0.1983
  220MOL   H17944417   3.875   6.612   5.964 -0.9055  2.1042  1.4559
  220MOL   H18044418   4.030   6.481   5.654  1.1799  3.2519 -0.8057
  220MOL   H18144419   3.901   6.472   5.765  0.7599 -2.5387 -2.3815
  220MOL   C18244420   3.832   6.784   5.853 -0.3717 -0.9418 -0.0649
  220MOL   C18344421   3.874   6.916   5.784 -0.1650 -0.0075 -0.1492
  220MOL   C18444422   3.904   7.023   5.885 -0.4365  1.0273 -0.2742
  220MOL   O18544423   3.825   7.056   5.970 -0.2454  0.3255  0.1847
  220MOL   N18644424   4.019   7.081   5.882 -0.0356 -0.7632 -1.3698
  220MOL   H18744425   3.754   6.807   5.926  0.8035 -0.0802  0.9364
  220MOL   H18844426   3.771   6.718   5.791 -0.7663  0.2763 -0.9793
  220MOL   H18944427   3.963   6.895   5.726  2.0352  1.2619  2.6532
  220MOL   H19044428   4.089   7.055   5.814  0.3774 -1.9582 -0.4928
  220MOL   H19144429   4.038   7.157   5.945  0.8555 -1.9783 -0.1606
  220MOL   C19244430   3.757   6.955   5.682 -0.0788 -0.6796 -0.3545
  220MOL   C19344431   3.777   7.091   5.609  0.2777 -0.9795  1.1605
  220MOL   C19444432   3.889   7.092   5.501 -0.3724  0.1541  0.0958
  220MOL   O19544433   3.901   7.008   5.409 -0.3666 -0.6651 -0.0080
  220MOL   N19644434   3.977   7.192   5.511 -0.0037 -0.6069 -0.3608
  220MOL   H19744435   3.667   6.949   5.744 -1.7691  1.3103 -2.5220
  220MOL   H19844436   3.757   6.869   5.615 -2.4000 -0.1994 -1.0178
  220MOL   H19944437   3.690   7.120   5.550  1.2740 -0.0945  0.1084
  220MOL   H20044438   4.057   7.186   5.449  0.4118 -1.5830  0.2575
  220MOL   H20144439   3.970   7.256   5.588  0.9368 -1.9401  0.8623
  220MOL   H20244440   3.798   7.174   5.677  0.2370  0.2351 -0.2902
  221MOL     C144441   5.926   3.331   3.016 -0.2532  0.0216  0.1798
  221MOL     C244442   5.981   3.442   3.104 -0.0375 -0.2466 -0.5111
  221MOL     C344443   6.117   3.493   3.057 -1.3327  0.0867 -0.0771
  221MOL     O444444   6.191   3.417   2.994  0.2408 -0.3585  0.2269
  221MOL     N544445   6.151   3.615   3.087 -0.4101  0.0476  0.4223
  221MOL     H644446   5.991   3.244   3.017  0.6009  0.6113 -1.7466
  221MOL     H744447   5.829   3.290   3.042 -1.7393  3.5625  0.5241
  221MOL     H844448   5.917   3.531   3.106  1.7753  1.0727  0.7667
  221MOL     H944449   6.087   3.678   3.133  1.0508  0.9137  1.3164
  221MOL    H1044450   6.228   3.660   3.039 -2.5316  1.5820 -1.6598
  221MOL    H1144451   5.918   3.359   2.911  0.4550  0.6633  0.2868
  221MOL    C1244452   5.983   3.384   3.251 -0.3829 -0.0417  1.1369
  221MOL    C1344453   6.111   3.306   3.294  0.8369  0.5132 -0.5221
  221MOL    C1444454   6.102   3.155   3.254 -1.1828  0.0738 -0.6556
  221MOL    O1544455   6.006   3.090   3.282 -0.3176  0.7540 -0.1380
  221MOL    N1644456   6.200   3.092   3.194 -0.5201  0.5813  0.9093
  221MOL    H1744457   5.896   3.321   3.268  0.3215 -1.2038  0.5175
  221MOL    H1844458   5.968   3.465   3.322 -2.1889  2.3645 -1.8429
  221MOL    H1944459   6.202   3.344   3.247  2.6180 -2.1034  0.7098
  221MOL    H2044460   6.282   3.131   3.149 -0.4324 -2.5844 -1.9350
  221MOL    H2144461   6.183   2.997   3.163  1.7721  0.6583 -0.7425
  221MOL    C2244462   6.153   3.315   3.448 -0.7925  0.4892 -0.3170
  221MOL    C2344463   6.301   3.326   3.484 -0.8028 -0.0344  0.1407
  221MOL    C2444464   6.383   3.199   3.444 -0.2964  0.5999 -0.2058
  221MOL    O2544465   6.351   3.095   3.495  0.0660  0.2833 -0.5484
  221MOL    N2644466   6.489   3.217   3.379 -0.1773  0.0270  0.1863
  221MOL    H2744467   6.112   3.234   3.509  1.0235 -0.4431 -0.3005
  221MOL    H2844468   6.100   3.399   3.492 -0.5447  0.7850 -0.5865
  221MOL    H2944469   6.341   3.410   3.428  1.0501 -0.1231  1.2552
  221MOL    H3044470   6.532   3.135   3.337  0.3740 -0.1578  1.1074
  221MOL    H3144471   6.521   3.306   3.344  0.9840 -0.0069  1.1164
  221MOL    C3244472   6.322   3.372   3.629 -0.0111  0.0525  0.2682
  221MOL    C3344473   6.456   3.406   3.683  0.0754 -0.5719 -0.5306
  221MOL    C3444474   6.537   3.515   3.605 -0.2175  0.5611  0.1215
  221MOL    O3544475   6.614   3.478   3.516 -0.0923 -0.1085  0.7333
  221MOL    N3644476   6.505   3.639   3.628 -0.6302 -0.4185  0.1127
  221MOL    H3744477   6.279   3.309   3.708  0.0610 -1.5442 -0.9426
  221MOL    H3844478   6.269   3.467   3.637 -1.4723 -0.4962 -2.2750
  221MOL    H3944479   6.438   3.444   3.784 -2.1143  0.2214 -1.1944
  221MOL    H4044480   6.431   3.656   3.695  0.7541 -0.4650  1.6809
  221MOL    H4144481   6.546   3.721   3.584 -0.4736 -1.4729 -1.7637
  221MOL    C4244482   6.535   3.269   3.712 -0.4008  0.8270  0.4970
  221MOL    C4344483   6.607   3.258   3.853  0.4021  0.1506  0.3499
  221MOL    C4444484   6.740   3.337   3.847 -0.4212  0.3947  0.3915
  221MOL    O4544485   6.828   3.305   3.770 -0.4520  0.1673  0.1905
  221MOL    N4644486   6.746   3.448   3.915 -0.1189 -0.1075  0.4482
  221MOL    H4744487   6.606   3.251   3.631 -0.2840  0.8209  0.6010
  221MOL    H4844488   6.464   3.186   3.710 -0.7068  1.1105 -0.6928
  221MOL    H4944489   6.548   3.306   3.932 -2.6681 -2.3688 -0.2980
  221MOL    H5044490   6.829   3.506   3.914  0.4553 -0.9417  0.1709
  221MOL    H5144491   6.672   3.454   3.984 -1.9726  2.2479 -1.6133
  221MOL    C5244492   6.619   3.112   3.904 -0.2816 -0.2219 -1.2826
  221MOL    C5344493   6.746   3.058   3.984 -0.0735 -0.4650  0.1069
  221MOL    C5444494   6.729   2.905   3.996 -0.1083  0.0340  0.3640
  221MOL    O5544495   6.622   2.849   4.014 -0.2731  0.2811  0.2790
  221MOL    N5644496   6.846   2.839   3.983  0.1600 -0.4968 -0.1485
  221MOL    H5744497   6.602   3.051   3.815 -0.4443 -0.6946 -0.9357
  221MOL    H5844498   6.540   3.083   3.973  0.4179  2.5827  0.7451
  221MOL    H5944499   6.827   3.080   3.915 -0.9406 -0.9374 -1.0696
  221MOL    H6044500   6.924   2.893   3.950  1.5323 -2.7354 -0.6841
  221MOL    H6144501   6.850   2.741   4.009  1.2222 -0.3428  0.2808
  221MOL    C6244502   6.765   3.137   4.121 -0.2010 -0.2735 -0.2848
  221MOL    C6344503   6.899   3.099   4.196  1.1264  0.2804  0.3600
  221MOL    C6444504   6.875   3.013   4.313 -0.3742  0.1452 -1.2661
  221MOL    O6544505   6.945   2.913   4.328  0.9321 -0.1932 -0.3678
  221MOL    N6644506   6.774   3.044   4.394  0.2598 -0.2263  0.5642
  221MOL    H6744507   6.685   3.103   4.186  1.4404 -1.9849  0.8816
  221MOL    H6844508   6.748   3.243   4.100 -0.3671 -0.4003 -0.7991
  221MOL    H6944509   6.963   3.052   4.122  0.8634  0.7892 -0.1934
  221MOL    H7044510   6.749   2.968   4.455  0.2317  0.7850  1.8314
  221MOL    H7144511   6.708   3.119   4.379 -1.5140 -1.5052  1.8302
  221MOL    C7244512   6.985   3.223   4.247  0.5797 -0.8501 -0.2813
  221MOL    C7344513   7.127   3.196   4.295  0.0335 -0.1920  0.2719
  221MOL    C7444514   7.148   3.244   4.439 -0.0653  0.2362  0.3514
  221MOL    O7544515   7.111   3.177   4.534  0.1695 -0.2095  0.4381
  221MOL    N7644516   7.176   3.367   4.457 -0.1567 -0.1959 -0.1708
  221MOL    H7744517   6.921   3.265   4.323  2.8218 -1.2420  1.8901
  221MOL    H7844518   6.992   3.286   4.157 -0.5329  1.1934  1.0182
  221MOL    H7944519   7.142   3.088   4.289  1.0062 -0.0942  0.9436
  221MOL    H8044520   7.188   3.405   4.549  2.9472  0.4663 -0.7731
  221MOL    H8144521   7.212   3.424   4.382 -1.6521 -1.2427 -1.7369
  221MOL    C8244522   7.243   3.249   4.201  0.0583  0.0545  0.6072
  221MOL    C8344523   7.322   3.166   4.105 -0.1949  0.1408 -0.0274
  221MOL    C8444524   7.337   3.017   4.142  0.6445  0.4018 -0.0025
  221MOL    O8544525   7.415   2.989   4.239  0.4047 -0.7962 -0.2606
  221MOL    N8644526   7.284   2.927   4.071 -0.0025 -0.0192 -0.1427
  221MOL    H8744527   7.312   3.302   4.267  0.1890 -0.0830  0.5815
  221MOL    H8844528   7.197   3.331   4.146 -0.3210 -0.1670  0.5932
  221MOL    H8944529   7.254   3.179   4.020 -1.5696  1.7143  1.2673
  221MOL    H9044530   7.204   2.954   4.017  0.0193  1.8720  0.7199
  221MOL    H9144531   7.302   2.830   4.094  2.4839  0.2965 -0.6229
  221MOL    C9244532   7.460   3.233   4.074  0.2796  0.2192  0.7485
  221MOL    C9344533   7.517   3.180   3.932  0.3898 -0.1348 -0.2332
  221MOL    C9444534   0.006   3.227   3.913 -0.3435  0.4596  0.2348
  221MOL    O9544535   0.045   3.341   3.926 -0.1511  0.5819 -0.3839
  221MOL    N9644536   0.098   3.137   3.881  0.3439  0.2997 -0.1708
  221MOL    H9744537   7.542   3.223   4.144  2.8328 -2.1418 -2.4374
  221MOL    H9844538   7.456   3.342   4.074  1.4109  0.2578  0.6984
  221MOL    H9944539   7.534   3.073   3.940 -0.2156 -0.2373 -0.3233
  221MOL   H10044540   0.190   3.164   3.849  0.1728  0.2738 -0.6925
  221MOL   H10144541   0.072   3.043   3.855 -0.1742  0.2732  0.4384
  221MOL   C10244542   7.421   3.236   3.814  0.7703 -0.3054  0.0005
  221MOL   C10344543   7.331   3.135   3.731 -0.2350 -0.6258 -0.6687
  221MOL   C10444544   7.408   3.095   3.609  0.2183  0.0090 -0.3387
  221MOL   O10544545   7.488   3.003   3.622  0.4669  0.0003 -0.3111
  221MOL   N10644546   7.392   3.170   3.500  0.0166 -0.8149  0.4662
  221MOL   H10744547   7.462   3.313   3.749  1.0985  0.0669  0.6441
  221MOL   H10844548   7.351   3.302   3.865  1.1979 -0.7629  1.1943
  221MOL   H10944549   7.315   3.048   3.795 -2.0187  0.2661  0.1139
  221MOL   H11044550   7.323   3.242   3.518 -0.3784 -0.4816 -2.1312
  221MOL   H11144551   7.403   3.129   3.409  0.2688 -0.5542  0.3774
  221MOL   C11244552   7.183   3.183   3.689 -0.0358  0.1121 -0.3117
  221MOL   C11344553   7.074   3.076   3.658  0.1281  0.8264  0.1480
  221MOL   C11444554   7.084   2.946   3.745 -0.2254  0.4415 -0.0314
  221MOL   O11544555   7.062   2.952   3.867 -0.2631 -0.5612 -0.0810
  221MOL   N11644556   7.131   2.833   3.684 -0.6950 -0.6606  0.1735
  221MOL   H11744557   7.181   3.268   3.622 -1.2032  0.7326  0.4905
  221MOL   H11844558   7.133   3.231   3.773  1.3122  1.2283 -0.1461
  221MOL   H11944559   6.979   3.123   3.683 -0.9029 -0.4170 -1.2870
  221MOL   H12044560   7.148   2.841   3.585  0.9723  1.9171  0.6073
  221MOL   H12144561   7.155   2.749   3.735  0.0777 -0.3221  0.3727
  221MOL   C12244562   7.075   3.049   3.504 -0.4866 -0.6639 -0.8010
  221MOL   C12344563   7.029   3.151   3.406  0.1734 -0.2501 -0.1039
  221MOL   C12444564   6.871   3.140   3.382  0.6019  0.0295  0.2070
  221MOL   O12544565   6.819   3.052   3.311 -0.7708 -0.6616  0.0391
  221MOL   N12644566   6.799   3.229   3.456 -0.2632 -0.5288 -0.5708
  221MOL   H12744567   7.026   2.955   3.483  1.1572 -1.2775 -2.0500
  221MOL   H12844568   7.174   3.010   3.478  0.4629  0.9482  0.2809
  221MOL   H12944569   7.049   3.250   3.449 -0.1284  1.0844 -2.9195
  221MOL   H13044570   6.699   3.234   3.452 -0.2294  2.0550  1.1643
  221MOL   H13144571   6.838   3.292   3.524 -1.7233 -0.5408  0.2972
  221MOL   C13244572   7.097   3.148   3.268 -0.0010 -0.4580 -0.2199
  221MOL   C13344573   7.061   3.264   3.168  0.3984  0.4623  0.5074
  221MOL   C13444574   7.036   3.212   3.023  0.6158 -0.0603  0.0250
  221MOL   O13544575   7.097   3.110   2.984  0.4958  0.1328  0.4359
  221MOL   N13644576   6.955   3.277   2.946  0.0115  0.5137 -0.2738
  221MOL   H13744577   7.093   3.046   3.228 -0.8929 -0.6988  0.4746
  221MOL   H13844578   7.206   3.143   3.279 -0.2845  1.0253  4.3482
  221MOL   H13944579   6.970   3.319   3.193  0.7394  2.2574 -1.9547
  221MOL   H14044580   6.914   3.363   2.979 -2.8029 -0.5362 -0.9612
  221MOL   H14144581   6.946   3.245   2.851 -1.5032 -1.4341  0.4849
  221MOL   C14244582   7.179   3.374   3.161  0.0101  0.0197 -0.2096
  221MOL   C14344583   7.203   3.456   3.026 -1.0830  0.2316  0.4168
  221MOL   C14444584   7.302   3.376   2.932 -0.3430  0.4200 -0.9046
  221MOL   O14544585   7.409   3.332   2.972  0.3947 -0.5983 -1.2030
  221MOL   N14644586   7.258   3.343   2.809 -0.0448 -0.4851 -0.3358
  221MOL   H14744587   7.270   3.317   3.181 -0.0558  0.1909  0.5687
  221MOL   H14844588   7.168   3.436   3.249 -2.2045 -0.7718  0.1011
  221MOL   H14944589   7.108   3.481   2.978 -0.0494 -1.1334 -2.4312
  221MOL   H15044590   7.168   3.374   2.776 -0.4830  0.8534  2.0110
  221MOL   H15144591   7.324   3.310   2.739  1.1663  0.4201  0.3517
  221MOL   C15244592   7.270   3.589   3.064  0.0097  0.9685 -0.0678
  221MOL   C15344593   7.329   3.677   2.950  0.2807 -0.2989 -0.0058
  221MOL   C15444594   7.460   3.739   2.995 -0.4994  0.3352  0.8786
  221MOL   O15544595   7.464   3.835   3.072 -0.5485 -0.2712 -0.1338
  221MOL   N15644596   7.578   3.689   2.951  0.4471  0.2752 -0.1794
  221MOL   H15744597   7.342   3.574   3.144 -2.1750  0.5112  1.8679
  221MOL   H15844598   7.194   3.652   3.110 -0.9612 -1.4975  1.8323
  221MOL   H15944599   7.361   3.627   2.858  2.9647 -0.3440  0.9124
  221MOL   H16044600   7.564   3.625   2.875 -0.7619  0.4806 -0.1363
  221MOL   H16144601   0.013   3.702   2.991 -0.1440  0.0810  1.2664
  221MOL   C16244602   7.224   3.773   2.891  0.5296  0.5137 -0.3610
  221MOL   C16344603   7.123   3.710   2.787 -0.1973 -0.2670  0.7004
  221MOL   C16444604   7.195   3.654   2.664 -0.0397 -0.5434 -0.3605
  221MOL   O16544605   7.168   3.547   2.615 -0.0727  0.1840  0.0677
  221MOL   N16644606   7.280   3.735   2.604  0.1112 -0.5925 -0.1604
  221MOL   H16744607   7.271   3.858   2.842 -2.4141  0.7456 -2.9918
  221MOL   H16844608   7.178   3.817   2.980  0.0318  0.5087 -0.6126
  221MOL   H16944609   7.082   3.619   2.830  0.9332 -1.5970 -0.9780
  221MOL   H17044610   7.296   3.720   2.505  1.7828  1.9631 -0.3385
  221MOL   H17144611   7.300   3.827   2.642 -0.2088 -0.4472 -0.3403
  221MOL   C17244612   7.005   3.812   2.754 -0.4199 -0.1039 -0.6237
  221MOL   C17344613   6.885   3.754   2.663  0.2651  0.0334 -0.3209
  221MOL   C17444614   6.792   3.858   2.612 -0.0947 -0.1340 -0.2887
  221MOL   O17544615   6.670   3.847   2.612 -0.0002  0.7223  0.5387
  221MOL   N17644616   6.850   3.969   2.563  0.3299  0.7350 -0.3253
  221MOL   H17744617   7.053   3.901   2.715  0.0811 -0.8994 -1.8554
  221MOL   H17844618   6.957   3.835   2.849  1.2141 -0.2749  0.2602
  221MOL   H17944619   6.937   3.719   2.574  0.4646 -1.4967  0.3865
  221MOL   H18044620   6.805   4.050   2.524  2.8853  1.9245 -0.9439
  221MOL   H18144621   6.950   3.977   2.555  0.5592  0.8067  2.1841
  221MOL   C18244622   6.808   3.632   2.723  0.5580 -1.2994 -0.8249
  221MOL   C18344623   6.719   3.668   2.852  0.2212  1.0836 -0.7296
  221MOL   C18444624   6.799   3.647   2.979 -0.3441  0.0666 -0.0137
  221MOL   O18544625   6.866   3.545   3.004  0.1838 -0.0875  0.0197
  221MOL   N18644626   6.807   3.751   3.058 -0.5547  0.2707 -0.6879
  221MOL   H18744627   6.867   3.545   2.754  1.0948  0.3161  2.9925
  221MOL   H18844628   6.737   3.594   2.650 -0.1975 -1.0354 -0.2320
  221MOL   H18944629   6.690   3.773   2.853 -0.0524  1.0090  0.3253
  221MOL   H19044630   6.873   3.750   3.135 -0.1225 -0.5466 -1.0615
  221MOL   H19144631   6.739   3.825   3.060 -0.9138  0.0018 -2.4517
  221MOL   C19244632   6.589   3.579   2.852 -0.2798  0.0689  0.3000
  221MOL   C19344633   6.473   3.623   2.927 -0.5820  0.0349  0.3272
  221MOL   C19444634   6.418   3.746   2.861  0.0236 -0.3243  0.4645
  221MOL   O19544635   6.374   3.745   2.748 -0.2501  0.6225  0.6432
  221MOL   N19644636   6.439   3.864   2.921 -0.2808 -0.0253 -0.7236
  221MOL   H19744637   6.624   3.486   2.897  1.1295  1.2694  1.7653
  221MOL   H19844638   6.564   3.544   2.752 -0.6647  1.6389 -0.1784
  221MOL   H19944639   6.399   3.543   2.933  1.1216 -1.4760  1.8354
  221MOL   H20044640   6.428   3.951   2.871 -2.1226 -0.9691 -2.0292
  221MOL   H20144641   6.480   3.863   3.013 -1.1024 -3.0798 -0.3348
  221MOL   H20244642   6.502   3.650   3.029 -1.7461  1.1913  0.3550
  222MOL     C144643   4.464   2.383   7.264  0.2480 -0.6459 -0.1068
  222MOL     C244644   4.512   2.250   7.222 -0.2203  0.9941 -0.0553
  222MOL     C344645   4.531   2.251   7.071  0.3308  0.7396  0.8778
  222MOL     O444646   4.450   2.307   7.003  0.3422  0.6263 -0.2922
  222MOL     N544647   4.631   2.187   7.024 -0.0615  0.1599 -0.0569
  222MOL     H644648   4.536   2.465   7.255  0.3111 -0.5699  1.0573
  222MOL     H744649   4.364   2.398   7.223  1.1366 -0.6407 -2.3210
  222MOL     H844650   4.613   2.257   7.261  0.5163  2.0211 -2.0624
  222MOL     H944651   4.651   2.192   6.925  2.3458  1.2932  0.4417
  222MOL    H1044652   4.702   2.158   7.091 -0.9549 -1.1584  0.3341
  222MOL    H1144653   4.438   2.374   7.369  0.1985 -3.1145 -0.3088
  222MOL    C1244654   4.422   2.135   7.276 -0.4947 -0.6011 -0.5837
  222MOL    C1344655   4.430   2.093   7.426 -0.3165  0.1169 -0.1374
  222MOL    C1444656   4.556   2.009   7.453 -0.9606  0.1597  0.3664
  222MOL    O1544657   4.540   1.886   7.464 -0.2028  0.4736 -0.0512
  222MOL    N1644658   4.674   2.068   7.478 -0.2852  0.0913  0.2462
  222MOL    H1744659   4.450   2.043   7.223  0.4795 -0.1966 -0.7743
  222MOL    H1844660   4.317   2.144   7.248 -0.2688  0.1030 -1.2053
  222MOL    H1944661   4.438   2.192   7.469 -1.8910 -0.2198  1.0013
  222MOL    H2044662   4.689   2.168   7.479  0.1127  0.0329  1.1851
  222MOL    H2144663   4.756   2.010   7.478 -1.0220 -0.9698 -0.7094
  222MOL    C2244664   4.300   2.041   7.486  0.2461  0.1180  0.3524
  222MOL    C2344665   4.296   2.013   7.643  0.4951  0.3448  0.7071
  222MOL    C2444666   4.246   1.870   0.024 -0.4185  0.4231  0.0681
  222MOL    O2544667   4.268   1.836   0.143 -0.3879  0.2982 -0.1802
  222MOL    N2644668   4.163   1.805   7.594 -0.0554 -0.1009 -0.1422
  222MOL    H2744669   4.282   1.954   7.422 -0.8647  0.9013 -0.4244
  222MOL    H2844670   4.217   2.108   7.461  0.6892  1.1051  1.4981
  222MOL    H2944671   4.398   2.027   0.021  0.7263 -0.4691  0.3789
  222MOL    H3044672   4.124   1.713   7.605  0.0919 -0.2068 -0.4864
  222MOL    H3144673   4.134   1.861   7.514 -3.2524 -1.0486  0.2665
  222MOL    C3244674   4.217   2.126   0.063  0.1795 -0.7145  0.3808
  222MOL    C3344675   4.309   2.222   0.146 -0.3838  0.1890 -1.4537
  222MOL    C3444676   4.418   2.295   0.069  0.3457 -0.1884 -0.1903
  222MOL    O3544677   4.393   2.396   0.011  0.2230 -0.3373 -0.0678
  222MOL    N3644678   4.545   2.241   0.065  0.5955 -0.4958 -0.4190
  222MOL    H3744679   4.146   2.081   0.133 -1.7533 -1.2226 -1.8623
  222MOL    H3844680   4.162   2.187   7.649 -0.3872  0.6982  1.9919
  222MOL    H3944681   4.245   2.309   0.160 -0.9698 -0.6748  1.4109
  222MOL    H4044682   4.560   2.149   0.104 -0.4953 -0.0280  1.1633
  222MOL    H4144683   4.598   2.281   7.646  0.3643  0.6498  0.0208
  222MOL    C4244684   4.345   2.178   0.291  0.5384  0.7029  0.1685
  222MOL    C4344685   4.409   2.288   0.381 -0.1610  0.1647 -0.9299
  222MOL    C4444686   4.449   2.216   0.515  0.2172 -0.5149 -0.8760
  222MOL    O4544687   4.380   2.213   0.612  0.8924 -0.4062 -0.3095
  222MOL    N4644688   4.567   2.158   0.502 -0.0872  0.0623 -0.0729
  222MOL    H4744689   4.402   2.085   0.294 -1.0282 -0.2031  4.3275
  222MOL    H4844690   4.250   2.157   0.340  0.4570  0.6892  0.0049
  222MOL    H4944691   4.495   2.327   0.326 -0.6485  0.8796 -1.1904
  222MOL    H5044692   4.625   2.165   0.419  0.6433 -0.0296  0.4290
  222MOL    H5144693   4.606   2.102   0.576  1.6482  2.0479  0.5666
  222MOL    C5244694   4.316   2.408   0.416  0.6166  0.3251  0.7804
  222MOL    C5344695   4.380   2.527   0.497  0.2315 -1.2681 -1.1866
  222MOL    C5444696   4.261   2.608   0.558  0.0292  1.0324 -0.1102
  222MOL    O5544697   4.196   2.681   0.485  0.2710  0.1467  0.0577
  222MOL    N5644698   4.230   2.584   0.686 -0.8314  0.6211  1.0212
  222MOL    H5744699   4.231   2.367   0.470  0.5912 -1.3824 -0.5321
  222MOL    H5844700   4.261   2.448   0.331  2.3139  2.3687  0.5828
  222MOL    H5944701   4.444   2.493   0.578  0.3018  3.8301  1.0818
  222MOL    H6044702   4.295   2.527   0.738 -2.0203 -0.3055  1.5120
  222MOL    H6144703   4.164   2.635   0.742  0.2244 -0.1318  3.0050
  222MOL    C6244704   4.476   2.611   0.411 -0.3388  0.0912  0.3464
  222MOL    C6344705   4.549   2.730   0.487 -0.1327  0.1313  0.7923
  222MOL    C6444706   4.605   2.826   0.380  0.1563 -0.2776  0.4233
  222MOL    O6544707   4.673   2.779   0.290 -0.1033 -0.4159 -0.0917
  222MOL    N6644708   4.564   2.953   0.382 -0.1903  0.4833  0.4846
  222MOL    H6744709   4.415   2.648   0.328  2.0749  2.8312 -0.3104
  222MOL    H6844710   4.558   2.556   0.364 -0.8718  1.2077 -1.9931
  222MOL    H6944711   4.469   2.784   0.538 -2.5821 -1.7616 -0.9058
  222MOL    H7044712   4.510   2.993   0.458  1.4477  0.5833  1.6165
  222MOL    H7144713   4.570   2.996   0.291  1.0951 -0.4127  0.1369
  222MOL    C7244714   4.654   2.666   0.579 -0.0206 -0.0922  0.1235
  222MOL    C7344715   4.617   2.707   0.724  0.2720 -0.5115 -0.2957
  222MOL    C7444716   4.661   2.848   0.754  0.5746  0.0118  0.0265
  222MOL    O7544717   4.779   2.872   0.734 -0.2318 -0.4918  0.3130
  222MOL    N7644718   4.578   2.942   0.796  0.3308  0.9141 -0.1067
  222MOL    H7744719   4.748   2.703   0.537 -0.1437  2.6992  2.1865
  222MOL    H7844720   4.657   2.558   0.568 -2.4797 -0.3950  1.9436
  222MOL    H7944721   4.510   2.692   0.738  0.4717 -0.6701  1.2088
  222MOL    H8044722   4.620   3.033   0.808  0.6619  0.3300  3.8344
  222MOL    H8144723   4.488   2.942   0.749  0.2054  2.9830  0.0998
  222MOL    C8244724   4.697   2.619   0.822 -0.1191  0.7902 -0.2155
  222MOL    C8344725   4.635   2.475   0.851  0.2439  0.6050 -0.8279
  222MOL    C8444726   4.492   2.484   0.927 -0.1146 -0.3208 -0.5152
  222MOL    O8544727   4.392   2.465   0.868  0.3579 -0.0221  0.2884
  222MOL    N8644728   4.495   2.509   1.054 -0.1318 -0.4760 -0.2468
  222MOL    H8744729   4.711   2.658   0.923  0.6916 -0.7209  0.2769
  222MOL    H8844730   4.801   2.607   0.789  0.3551  1.2202  1.0868
  222MOL    H8944731   4.613   2.431   0.753 -1.3427  0.6338 -0.4957
  222MOL    H9044732   4.413   2.487   1.110  0.1183 -2.3891 -0.6241
  222MOL    H9144733   4.582   2.541   1.093 -0.7474 -0.7470  1.3955
  222MOL    C9244734   4.735   2.372   0.916  0.1212  0.4362 -0.1197
  222MOL    C9344735   4.697   2.221   0.906  0.1322 -0.6634 -0.6293
  222MOL    C9444736   4.581   2.184   0.990 -0.0733 -0.2969  0.1368
  222MOL    O9544737   4.583   2.201   1.109 -0.0002 -0.0974 -0.1708
  222MOL    N9644738   4.477   2.133   0.929 -0.2790 -0.2471  0.0782
  222MOL    H9744739   4.749   2.401   1.020 -1.6477  1.3822 -0.1234
  222MOL    H9844740   4.828   2.394   0.863 -0.0868  1.3738 -0.0990
  222MOL    H9944741   4.670   2.212   0.801  3.2573 -0.3466 -1.4971
  222MOL   H10044742   4.479   2.133   0.828  1.4781 -0.5700  0.0921
  222MOL   H10144743   4.388   2.131   0.976 -0.8610  0.7491 -0.9645
  222MOL   C10244744   4.820   2.128   0.938  0.1338  0.0705 -0.5306
  222MOL   C10344745   4.810   1.981   0.890 -0.0268 -0.2403 -0.3144
  222MOL   C10444746   4.788   1.950   0.739  0.5664 -0.1592 -0.2793
  222MOL   O10544747   4.679   1.968   0.687 -0.1531 -0.1203  0.1159
  222MOL   N10644748   4.892   1.895   0.680 -0.6325 -0.6324  0.2545
  222MOL   H10744749   4.838   2.126   1.046 -0.5645 -1.5480 -0.4289
  222MOL   H10844750   4.911   2.167   0.891 -1.5343  2.6051 -1.7326
  222MOL   H10944751   4.911   1.952   0.919  0.4707  1.9363  0.2196
  222MOL   H11044752   4.874   1.851   0.591 -1.6219  0.1388  0.0605
  222MOL   H11144753   4.977   1.865   0.725  0.0603  1.5501  0.4365
  222MOL   C11244754   4.716   1.896   0.981 -0.1702  0.3504  1.0274
  222MOL   C11344755   4.737   1.741   0.987 -0.1298  0.1259  0.6343
  222MOL   C11444756   4.645   1.660   0.907  0.5259  0.3855  0.0068
  222MOL   O11544757   4.610   1.549   0.939  0.1569 -0.5548  0.0753
  222MOL   N11644758   4.585   1.711   0.805 -0.6171  0.1061 -0.6271
  222MOL   H11744759   4.612   1.921   0.961  0.4940  2.6890  0.3235
  222MOL   H11844760   4.730   1.936   1.082  0.7937 -1.1746  1.5093
  222MOL   H11944761   4.836   1.715   0.948 -0.6213 -0.1232 -0.4536
  222MOL   H12044762   4.603   1.808   0.784 -0.6525 -0.3234 -2.7092
  222MOL   H12144763   4.524   1.659   0.744 -0.5567 -0.3740 -0.2844
  222MOL   C12244764   4.733   1.694   1.143  0.3680 -0.1282  0.5610
  222MOL   C12344765   4.858   1.739   1.216  0.1946  0.1384 -0.1022
  222MOL   C12444766   4.957   1.619   1.193 -0.4966  0.1221  0.4085
  222MOL   O12544767   4.943   1.508   1.244 -0.0435  0.0528 -0.5094
  222MOL   N12644768   5.074   1.655   1.128 -0.3369 -0.3781 -0.0604
  222MOL   H12744769   4.705   1.589   1.160  0.0604 -0.6874 -2.8367
  222MOL   H12844770   4.645   1.746   1.180 -0.0394 -0.7266  0.4494
  222MOL   H12944771   4.905   1.826   1.171 -0.1539 -0.1253 -0.9727
  222MOL   H13044772   5.136   1.591   1.081  2.3380  1.5434  0.7194
  222MOL   H13144773   5.076   1.752   1.100  0.8322 -0.2427  0.4626
  222MOL   C13244774   4.822   1.755   1.369  0.6514  0.3962 -0.1510
  222MOL   C13344775   4.938   1.786   1.458  0.3943  0.0575  0.0761
  222MOL   C13444776   4.906   1.738   1.601 -0.1715  0.0128 -0.1829
  222MOL   O13544777   4.823   1.794   1.667 -0.2851 -0.2996  0.3970
  222MOL   N13644778   4.967   1.631   1.649  0.3475  0.0869 -0.1456
  222MOL   H13744779   4.772   1.667   1.410 -2.6495  2.1801 -0.1864
  222MOL   H13844780   4.747   1.832   1.383  0.2730 -0.0800  0.4666
  222MOL   H13944781   5.031   1.739   1.425  0.4471 -0.1768  0.5553
  222MOL   H14044782   4.945   1.605   1.744  0.7703  0.6421  0.1086
  222MOL   H14144783   5.039   1.577   1.605  1.3947  2.2094 -1.1468
  222MOL   C14244784   4.992   1.931   1.463 -0.4933 -0.3964  0.0591
  222MOL   C14344785   4.891   2.048   1.480  0.2887 -0.9650  0.3452
  222MOL   C14444786   4.850   2.106   1.351 -0.4732 -0.5816  0.6474
  222MOL   O14544787   4.935   2.129   1.263 -0.7340 -0.3512 -0.1038
  222MOL   N14644788   4.717   2.112   1.323  0.2131 -0.4277  0.8389
  222MOL   H14744789   5.060   1.942   1.379  1.8747  2.0910  2.1860
  222MOL   H14844790   5.054   1.938   1.552  0.1606 -0.4918 -0.3844
  222MOL   H14944791   4.801   2.006   1.523 -1.1662 -1.0509 -2.6754
  222MOL   H15044792   4.675   2.135   1.234  0.0575  1.5797  1.4078
  222MOL   H15144793   4.651   2.078   1.391 -1.4490 -1.2778 -1.1506
  222MOL   C15244794   4.945   2.157   1.582  0.2835  0.2798  0.3266
  222MOL   C15344795   4.925   2.135   1.730 -0.4211  0.5016 -0.0873
  222MOL   C15444796   4.798   2.198   1.776  0.2352  0.0772 -0.0148
  222MOL   O15544797   4.792   2.269   1.875  0.3432  0.0897 -0.3152
  222MOL   N15644798   4.685   2.174   1.705 -0.3152 -0.1364  0.5824
  222MOL   H15744799   4.899   2.254   1.558  1.4672  1.1554  1.5407
  222MOL   H15844800   5.051   2.167   1.559  0.6212  2.1130  2.5489
  222MOL   H15944801   4.909   2.028   1.741  3.7963 -0.2082 -0.1505
  222MOL   H16044802   4.691   2.121   1.619 -0.2082  1.3721 -0.3634
  222MOL   H16144803   4.598   2.213   1.740 -0.5517 -0.2535  0.1351
  222MOL   C16244804   5.042   2.172   1.826 -0.5235 -0.1465 -0.5644
  222MOL   C16344805   5.102   2.318   1.826  0.1107  0.7570  0.1836
  222MOL   C16444806   5.149   2.374   1.687  0.0084  0.6813 -0.5518
  222MOL   O16544807   5.223   2.316   1.611  0.5727  0.8736 -0.4941
  222MOL   N16644808   5.116   2.503   1.671  0.6568  0.3008  0.2729
  222MOL   H16744809   5.119   2.101   1.795  0.9538  0.0805  2.4237
  222MOL   H16844810   5.019   2.133   1.925 -0.8398 -0.0125 -0.5857
  222MOL   H16944811   5.030   2.384   1.874 -0.9105 -0.7246  0.7085
  222MOL   H17044812   5.076   2.561   1.744 -1.9278 -2.1461  0.8741
  222MOL   H17144813   5.134   2.535   1.577 -0.0166  0.3088  0.1453
  222MOL   C17244814   5.225   2.305   1.916  0.4212 -0.3691 -0.2617
  222MOL   C17344815   5.197   2.293   2.070 -0.7151  0.2013 -0.0302
  222MOL   C17444816   5.150   2.422   2.140  0.4725 -0.1710  0.6089
  222MOL   O17544817   5.205   2.529   2.120  0.6414  0.1848 -0.0378
  222MOL   N17644818   5.054   2.405   2.229 -0.1719  0.0537  0.3969
  222MOL   H17744819   5.285   2.396   1.912  0.2203 -0.1434  1.3053
  222MOL   H17844820   5.286   2.222   1.883 -1.6544 -0.9350 -2.7818
  222MOL   H17944821   5.120   2.216   2.074  1.0636 -1.7089 -1.4033
  222MOL   H18044822   5.025   2.489   2.276 -3.1245 -0.1559 -0.9158
  222MOL   H18144823   5.032   2.312   2.263  0.0782 -0.0232  0.3494
  222MOL   C18244824   5.326   2.257   2.135  0.1661 -0.0235 -0.3141
  222MOL   C18344825   5.307   2.198   2.275 -0.9854 -0.9484  0.4332
  222MOL   C18444826   5.428   2.215   2.360 -0.5611  0.7915  0.5686
  222MOL   O18544827   5.451   2.315   2.431 -0.0256 -0.4088 -0.5098
  222MOL   N18644828   5.512   2.111   2.365 -0.0941 -0.1152  0.0609
  222MOL   H18744829   5.391   2.342   2.156 -0.2978  0.4185 -0.6644
  222MOL   H18844830   5.393   2.197   2.074 -0.5399 -0.2373 -0.8795
  222MOL   H18944831   5.237   2.254   2.337  1.2469 -1.4766  3.5524
  222MOL   H19044832   5.484   2.024   2.322  0.3906 -0.5408  0.6119
  222MOL   H19144833   5.590   2.111   2.428  1.5866 -0.6607 -1.9602
  222MOL   C19244834   5.243   2.054   2.276  0.4048 -0.3402 -0.2248
  222MOL   C19344835   5.186   2.004   2.413 -0.2020 -0.4685  0.2264
  222MOL   C19444836   5.077   2.095   2.474 -1.0413  0.6004 -0.4660
  222MOL   O19544837   5.013   2.175   2.409 -0.2125  0.7159  0.5853
  222MOL   N19644838   5.055   2.093   2.608 -0.1452  0.2509  0.5394
  222MOL   H19744839   5.320   1.987   2.238  0.5258  0.2021 -0.9447
  222MOL   H19844840   5.158   2.049   2.208 -0.1915  0.6126  0.4381
  222MOL   H19944841   5.132   1.910   2.407 -1.4130  0.2278  0.2203
  222MOL   H20044842   4.988   2.154   2.653 -1.2824 -1.2198  0.8528
  222MOL   H20144843   5.112   2.041   2.673  1.5824  1.6579  0.1925
  222MOL   H20244844   5.271   1.995   2.481 -0.7137  0.1461  0.9618
  223MOL     C144845   6.417   6.959   0.504 -0.3561 -0.1591  0.2430
  223MOL     C244846   6.414   6.919   0.357 -0.5178 -0.0105  0.5699
  223MOL     C344847   6.384   6.775   0.322 -0.3985  0.3406 -0.3805
  223MOL     O444848   6.460   6.680   0.344 -0.8459  0.3176 -0.5298
  223MOL     N544849   6.271   6.760   0.257 -0.2850 -0.2650  0.2991
  223MOL     H644850   6.326   6.916   0.544 -1.7114  1.6592 -0.8410
  223MOL     H744851   6.495   6.911   0.563 -0.7287  1.0657  1.7514
  223MOL     H844852   6.333   6.979   0.316 -0.4266  0.1799  0.6709
  223MOL     H944853   6.247   6.674   0.211  0.5916 -0.3059 -0.0945
  223MOL    H1044854   6.223   6.847   0.238  1.2259  0.3124 -1.0488
  223MOL    H1144855   6.412   7.065   0.526  3.9213 -0.1350  1.6113
  223MOL    C1244856   6.541   6.963   0.280 -0.1227  0.2180  0.3019
  223MOL    C1344857   6.589   7.106   0.286 -0.1205  0.9982 -0.1108
  223MOL    C1444858   6.631   7.158   0.151 -0.8077 -0.2309 -0.1303
  223MOL    O1544859   6.581   7.111   0.048  0.3454  0.7720 -0.5219
  223MOL    N1644860   6.733   7.245   0.149  1.1496 -0.5979  0.6037
  223MOL    H1744861   6.503   6.946   0.179  0.3274 -1.6900  0.4221
  223MOL    H1844862   6.629   6.898   0.281 -0.3882 -0.1389  2.9580
  223MOL    H1944863   6.499   7.164   0.307  0.0867  0.2848  2.9498
  223MOL    H2044864   6.766   7.269   0.057  0.9357 -0.4381  0.5664
  223MOL    H2144865   6.773   7.273   0.238  0.2678  0.6770  0.6193
  223MOL    C2244866   6.687   7.130   0.405 -0.1458 -0.1750 -0.4202
  223MOL    C2344867   6.659   7.248   0.507  0.0681  0.0490 -0.0693
  223MOL    C2444868   6.682   7.389   0.446 -0.5571 -0.1071  0.3524
  223MOL    O2544869   6.781   7.404   0.380 -0.0153  0.5331  0.1086
  223MOL    N2644870   6.604   7.491   0.468  0.4621  0.0366  0.4856
  223MOL    H2744871   6.786   7.135   0.360 -0.4034  0.2003 -0.9415
  223MOL    H2844872   6.706   7.039   0.463  0.3224  0.4402  0.4015
  223MOL    H2944873   6.554   7.239   0.532  0.6660  0.3665  2.8281
  223MOL    H3044874   6.611   7.582   0.425 -1.5058  0.0553  0.1380
  223MOL    H3144875   6.531   7.473   0.536  0.8141 -0.1894  0.8034
  223MOL    C3244876   6.739   7.233   0.648  0.4484 -0.1804 -0.4236
  223MOL    C3344877   6.661   7.292   0.772 -0.4277 -0.4870  0.6393
  223MOL    C3444878   6.760   7.312   0.898 -0.2882  0.1365  0.0399
  223MOL    O3544879   6.779   7.212   0.969  0.1674 -0.2210 -0.3528
  223MOL    N3644880   6.819   7.430   0.908 -0.0813  0.1056 -0.3339
  223MOL    H3744881   6.843   7.265   0.642  0.4670  0.3963  2.5088
  223MOL    H3844882   6.752   7.127   0.673  0.5089  0.3943  2.0176
  223MOL    H3944883   6.632   7.396   0.757  2.2921  0.4586  1.6135
  223MOL    H4044884   6.894   7.445   0.974  1.8611 -4.1422 -1.4366
  223MOL    H4144885   6.803   7.495   0.833 -0.8669  1.3964  0.9284
  223MOL    C4244886   6.532   7.206   0.791  0.4681  0.2279  0.0729
  223MOL    C4344887   6.401   7.283   0.826 -0.1885  0.4757  0.2059
  223MOL    C4444888   6.340   7.346   0.700  0.1231  0.0558  0.2544
  223MOL    O4544889   6.394   7.438   0.636 -0.0622 -0.0395  0.7564
  223MOL    N4644890   6.236   7.284   0.641 -0.1037  0.1784  0.0549
  223MOL    H4744891   6.549   7.140   0.876 -2.0152  1.0142  1.2481
  223MOL    H4844892   6.511   7.136   0.710 -1.5402 -0.1528  0.8672
  223MOL    H4944893   6.329   7.204   0.845 -1.0922  0.8949 -1.3859
  223MOL    H5044894   6.194   7.207   0.691  1.5799 -0.9793 -0.2581
  223MOL    H5144895   6.228   7.305   0.543 -0.0751  0.1338  0.0429
  223MOL    C5244896   6.404   7.376   0.942  0.0748  0.9461 -0.0565
  223MOL    C5344897   6.457   7.313   1.078 -0.3723  0.7443 -0.5945
  223MOL    C5444898   6.344   7.228   1.137  0.3220 -0.4091  0.3104
  223MOL    O5544899   6.272   7.267   1.232 -0.3335  0.1703 -0.7863
  223MOL    N5644900   6.323   7.108   1.094 -0.3040 -0.1910  0.7861
  223MOL    H5744901   6.302   7.415   0.955  0.2858  1.6773 -0.5341
  223MOL    H5844902   6.460   7.465   0.915  0.9984  0.5590  0.5730
  223MOL    H5944903   6.530   7.236   1.054 -2.2512 -1.4420  0.5572
  223MOL    H6044904   6.233   7.064   1.111 -0.2778 -0.6306 -0.1912
  223MOL    H6144905   6.379   7.086   1.013 -0.0328  0.5673  0.7725
  223MOL    C6244906   6.528   7.417   1.176  0.2758 -0.3675  0.2130
  223MOL    C6344907   6.450   7.542   1.219  0.2329 -0.8284  0.1625
  223MOL    C6444908   6.430   7.650   1.118 -0.1812 -0.0649  0.6379
  223MOL    O6544909   6.507   0.011   1.028 -0.0543 -0.3991  0.7616
  223MOL    N6644910   6.328   0.079   1.149 -0.2107  1.0928  0.1326
  223MOL    H6744911   6.633   7.442   1.158  0.4460 -0.3317  1.2136
  223MOL    H6844912   6.533   7.376   1.277 -1.6183  0.5703  0.7122
  223MOL    H6944913   6.354   7.498   1.242  0.7907 -3.8918 -2.9912
  223MOL    H7044914   6.258   0.060   1.218  0.2427 -1.4158 -0.0520
  223MOL    H7144915   6.303   0.155   1.087 -3.7481  0.7469  1.0827
  223MOL    C7244916   6.511   7.602   1.352 -0.8651  0.1738  0.2501
  223MOL    C7344917   6.443   7.547   1.478  0.3747 -0.1185 -0.1428
  223MOL    C7444918   6.293   7.574   1.490 -1.1180 -0.3041  0.4838
  223MOL    O7544919   6.247   0.020   1.441 -0.1767  0.1118  0.0756
  223MOL    N7644920   6.214   7.473   1.516  0.5682 -0.2191  0.2859
  223MOL    H7744921   6.493   0.053   1.351  1.0525  0.5581  2.9983
  223MOL    H7844922   6.618   7.585   1.358 -0.5511  2.4352  1.4065
  223MOL    H7944923   6.448   7.438   1.474 -0.8548 -0.1902  0.0960
  223MOL    H8044924   6.248   7.380   1.536 -2.0908 -1.2905  0.0292
  223MOL    H8144925   6.114   7.490   1.522  0.7977  1.6668 -0.9778
  223MOL    C8244926   6.518   7.568   1.610 -0.6710 -0.4053  0.4199
  223MOL    C8344927   6.501   0.050   1.684 -0.1330 -0.7372 -0.2699
  223MOL    C8444928   6.563   0.167   1.599  0.0530 -0.0729  0.1983
  223MOL    O8544929   6.670   0.157   1.547  0.1276 -0.0150 -0.0745
  223MOL    N8644930   6.495   0.278   1.584  1.0245  0.7880 -0.1971
  223MOL    H8744931   6.623   7.541   1.594 -0.8367 -1.4087  0.9336
  223MOL    H8844932   6.492   7.477   1.664 -0.1759 -0.1576  1.0743
  223MOL    H8944933   6.397   0.070   1.710 -0.5162  0.2632 -2.4966
  223MOL    H9044934   6.407   0.280   1.632  1.1198  1.0888 -0.0335
  223MOL    H9144935   6.526   0.350   1.520 -0.2986  0.9035 -0.7097
  223MOL    C9244936   6.572   0.050   1.821  0.4669 -0.4953  0.2205
  223MOL    C9344937   6.502   7.616   1.929  0.2412  0.5972 -0.0078
  223MOL    C9444938   6.364   0.021   1.981 -0.4502 -0.4061  0.2609
  223MOL    O9544939   6.258   7.644   1.927  0.6386  0.1017 -0.4872
  223MOL    N9644940   6.362   0.105   2.086 -0.2136 -0.1878  0.2046
  223MOL    H9744941   6.556   0.154   1.850 -1.2817 -0.4845 -0.7096
  223MOL    H9844942   6.676   0.024   1.799  0.1556  1.3444 -4.0056
  223MOL    H9944943   6.483   7.513   1.896 -2.2277 -0.1510  3.4657
  223MOL   H10044944   6.445   0.127   2.140  0.0188 -2.3523  0.7629
  223MOL   H10144945   6.271   0.131   2.121 -0.9664 -2.3837 -0.0437
  223MOL   C10244946   6.594   7.588   2.055  0.9847 -0.2480  0.3059
  223MOL   C10344947   6.724   7.519   2.023 -0.4501  0.3651 -0.0761
  223MOL   C10444948   6.705   7.376   1.972  0.0628 -0.2030  0.1113
  223MOL   O10544949   6.633   7.300   2.034 -0.1971 -0.9124  0.3847
  223MOL   N10644950   6.761   7.335   1.853 -0.2833  0.5832 -0.2645
  223MOL   H10744951   6.549   7.522   2.129  0.1834  1.1885  1.1313
  223MOL   H10844952   6.610   0.025   2.109 -2.2878  0.4795  0.1430
  223MOL   H10944953   6.771   7.567   1.937 -0.2749  1.6472  0.7117
  223MOL   H11044954   6.759   7.237   1.829  0.0254  0.0808  1.7274
  223MOL   H11144955   6.819   7.395   1.795  3.6449 -2.6244  0.1690
  223MOL   C11244956   6.838   7.540   2.131 -0.0497  0.3573  0.1742
  223MOL   C11344957   6.901   0.023   2.160 -0.2155 -0.1758 -0.5685
  223MOL   C11444958   6.930   0.102   2.031  0.0424 -0.4717  0.9177
  223MOL   O11544959   6.891   0.218   2.027  0.1453  0.3636  0.1709
  223MOL   N11644960   6.995   0.043   1.927 -0.5539 -0.2153 -0.0540
  223MOL   H11744961   6.916   7.464   2.129 -1.4463 -1.0547 -1.3788
  223MOL   H11844962   6.784   7.518   2.223 -1.9075  2.3540 -0.4103
  223MOL   H11944963   6.820   0.082   2.202 -1.3132 -2.0371 -0.0227
  223MOL   H12044964   7.017   7.602   1.937  0.3711  0.1767  2.2278
  223MOL   H12144965   6.987   0.076   1.832 -2.8823 -0.8338 -0.0943
  223MOL   C12244966   7.020   0.011   2.259 -0.3002  0.6025 -0.5247
  223MOL   C12344967   7.062   0.149   2.325 -0.0304  0.5653  0.2188
  223MOL   C12444968   7.199   0.146   2.396  0.9606  0.2517 -0.1436
  223MOL   O12544969   7.224   0.075   2.496  0.5385  0.0289 -0.4724
  223MOL   N12644970   7.295   0.222   2.346 -0.0773 -0.4396  0.1011
  223MOL   H12744971   7.108   7.627   2.211 -1.2612  1.2004 -2.8443
  223MOL   H12844972   7.000   7.590   2.333 -2.3695  0.5340 -1.1319
  223MOL   H12944973   7.071   0.224   2.246 -3.6319  0.5713 -0.2536
  223MOL   H13044974   7.280   0.282   2.266 -2.2133 -1.8133 -0.5813
  223MOL   H13144975   7.380   0.240   2.397 -0.0359  0.3044 -0.2196
  223MOL   C13244976   6.951   0.192   2.431  0.3806  0.2275 -0.5227
  223MOL   C13344977   6.959   0.343   2.465  0.5046 -0.1917 -0.0244
  223MOL   C13444978   6.909   0.350   2.611 -0.4969  0.7237 -0.1041
  223MOL   O13544979   6.793   0.362   2.630  0.8580  0.8955 -0.1005
  223MOL   N13644980   7.002   0.332   2.707 -0.5825  0.4170  0.0584
  223MOL   H13744981   6.956   0.135   2.523  1.3088  0.9373 -0.1211
  223MOL   H13844982   6.849   0.178   2.396  0.2547  0.3719 -0.2179
  223MOL   H13944983   7.061   0.381   2.461  0.6231 -0.5091 -0.0532
  223MOL   H14044984   7.098   0.311   2.682  0.2032  3.2537  0.5696
  223MOL   H14144985   6.973   0.349   2.802  0.4221 -2.6734  0.9791
  223MOL   C14244986   6.885   0.431   2.363 -0.1008  0.0841 -0.4300
  223MOL   C14344987   6.939   0.574   2.354  0.1332 -0.0544  0.2378
  223MOL   C14444988   6.897   0.654   2.472  0.1151  0.8272  0.6924
  223MOL   O14544989   6.775   0.667   2.494  0.2378  0.3052  0.5961
  223MOL   N14644990   6.986   0.706   2.552 -0.1451 -0.2490  0.3443
  223MOL   H14744991   6.777   0.433   2.378  0.1971  1.7727  1.6625
  223MOL   H14844992   6.903   0.397   2.261  1.9571  1.2435 -0.4928
  223MOL   H14944993   7.047   0.576   2.352  0.1284  0.5948  0.3279
  223MOL   H15044994   7.085   0.686   2.550 -0.2533 -0.9479  1.4685
  223MOL   H15144995   6.955   0.758   2.633 -0.5181 -1.0262  0.7029
  223MOL   C15244996   6.902   0.650   2.225 -0.2311  0.8767  0.6889
  223MOL   C15344997   7.004   0.765   2.187 -0.2838  0.1150  0.2921
  223MOL   C15444998   6.978   0.893   2.269  0.4131 -0.9102  0.5807
  223MOL   O15544999   6.874   0.959   2.259 -0.1569 -0.3430 -0.7009
  223MOL   N15645000   7.085   0.924   2.354 -0.1033 -0.1493  0.0192
  223MOL   H15745001   6.801   0.691   2.219 -0.4668 -0.0134 -1.9949
  223MOL   H15845002   6.909   0.580   2.142  1.2214  1.2579  0.4803
  223MOL   H15945003   7.105   0.731   2.212  0.1025  1.9213  1.2388
  223MOL   H16045004   7.168   0.866   2.348  0.5326  0.6544  0.9789
  223MOL   H16145005   7.086   1.009   2.408 -4.5025 -1.1615  1.9445
  223MOL   C16245006   7.008   0.786   2.034  0.0693  0.3815  0.0612
  223MOL   C16345007   7.134   0.848   1.967 -0.1043  0.6488 -0.2755
  223MOL   C16445008   7.099   0.924   1.838  0.1716  0.6776 -0.3135
  223MOL   O16545009   7.025   0.870   1.753 -0.1238 -0.0894  0.1656
  223MOL   N16645010   7.148   1.040   1.817 -0.0209  0.2490  0.1347
  223MOL   H16745011   6.921   0.842   2.001 -0.4902  0.8718  2.3051
  223MOL   H16845012   6.997   0.690   1.983  1.1774  1.0046 -1.3785
  223MOL   H16945013   7.160   0.927   2.037  1.0882 -1.9580  2.3257
  223MOL   H17045014   7.110   1.102   1.747 -0.1785  0.3343  0.2945
  223MOL   H17145015   7.199   1.090   1.888  1.0390  0.3036 -0.6582
  223MOL   C17245016   7.254   0.751   1.932  0.1693  0.4108 -0.4974
  223MOL   C17345017   7.327   0.678   2.047 -0.2588  0.4498 -0.0278
  223MOL   C17445018   7.399   0.774   2.140  0.4112  0.1100 -0.3444
  223MOL   O17545019   7.486   0.854   2.105  0.3888  0.2766  0.4459
  223MOL   N17645020   7.370   0.754   2.270 -0.0505  0.3324  0.8327
  223MOL   H17745021   7.322   0.810   1.871  0.8942 -0.8547 -0.9315
  223MOL   H17845022   7.205   0.676   1.869 -0.6991 -0.0403  0.6938
  223MOL   H17945023   7.257   0.617   2.105  1.7564  0.7710  2.8580
  223MOL   H18045024   7.422   0.804   2.341  0.8283  2.5372 -1.2768
  223MOL   H18145025   7.309   0.676   2.288  0.2182 -0.8585 -2.8809
  223MOL   C18245026   7.428   0.579   1.980 -0.7393 -0.2570 -0.2219
  223MOL   C18345027   7.362   0.462   1.910 -0.1303  0.9541  0.0688
  223MOL   C18445028   7.257   0.398   2.002  0.2880  0.1188 -0.2704
  223MOL   O18545029   7.281   0.365   2.113  0.0525  0.2414 -0.1911
  223MOL   N18645030   7.133   0.382   1.956  0.4123  1.2119  0.5990
  223MOL   H18745031   7.505   0.550   2.052  0.1981  0.8016 -0.7757
  223MOL   H18845032   7.479   0.644   1.909 -0.8101  0.4561  0.3774
  223MOL   H18945033   7.320   0.509   1.822  0.8940 -1.7008 -1.9313
  223MOL   H19045034   7.068   0.315   1.994  1.1143  0.8524  1.1655
  223MOL   H19145035   7.114   0.419   1.864 -0.0777  2.5875  1.2433
  223MOL   C19245036   7.460   0.352   1.865 -1.2048  0.5113  0.2078
  223MOL   C19345037   7.410   0.281   1.738 -0.6342  0.9290 -0.5806
  223MOL   C19445038   7.407   0.363   1.609  0.9205 -0.0174 -0.1158
  223MOL   O19545039   7.511   0.384   1.553  0.2428 -0.2006 -0.3047
  223MOL   N19645040   7.290   0.390   1.554  0.5076 -0.1659  0.4470
  223MOL   H19745041   7.488   0.278   1.941  3.4589  1.4892 -0.4043
  223MOL   H19845042   7.554   0.404   1.850 -0.3348 -0.6811  1.3392
  223MOL   H19945043   7.485   0.205   1.716 -0.5565  0.8929 -0.1974
  223MOL   H20045044   7.204   0.365   1.601 -0.4761  0.7136 -0.8545
  223MOL   H20145045   7.286   0.456   1.478 -1.9088 -0.0265  0.6463
  223MOL   H20245046   7.311   0.238   1.757  0.5338 -2.1005 -1.0596
  224MOL     C145047   7.325   6.515   2.686  0.5736  0.0768 -0.0627
  224MOL     C245048   7.313   6.601   2.810  0.4120 -0.6883  0.1015
  224MOL     C345049   7.174   6.676   2.801  0.2687  0.5410  0.5177
  224MOL     O445050   7.150   6.766   2.722  0.0487  0.2706  0.3402
  224MOL     N545051   7.078   6.637   2.889 -0.3979  0.0210  0.4014
  224MOL     H645052   7.244   6.449   2.657  0.6887 -0.0093 -0.1922
  224MOL     H745053   7.340   6.577   2.597 -1.0315 -1.6650 -1.5875
  224MOL     H845054   7.323   6.535   2.896 -1.3584 -0.2629  0.6492
  224MOL     H945055   6.990   6.686   2.889 -0.3473  0.1288  1.9861
  224MOL    H1045056   7.075   6.545   2.930 -0.1081  0.1280  0.6589
  224MOL    H1145057   7.414   6.455   2.703  0.0446 -0.4799  0.7183
  224MOL    C1245058   7.427   6.703   2.820 -0.1953  0.1115 -0.2630
  224MOL    C1345059   7.445   6.757   2.965  0.1206  0.2436 -0.1600
  224MOL    C1445060   7.549   6.874   2.971 -0.0387  0.1837 -1.2742
  224MOL    O1545061   7.587   6.933   2.871 -0.1367  0.1607 -0.0076
  224MOL    N1645062   7.595   6.909   3.096 -0.4801  0.3177 -0.0826
  224MOL    H1745063   7.414   6.775   2.739 -1.2377 -1.3046 -1.4067
  224MOL    H1845064   7.527   6.669   2.793  0.0737  0.3810  0.4009
  224MOL    H1945065   7.347   6.798   2.992  0.1633 -0.1410  0.6070
  224MOL    H2045066   7.656   6.988   3.111 -0.5711  0.3374  0.1868
  224MOL    H2145067   7.547   6.857   3.168  2.4150 -1.3539  0.7437
  224MOL    C2245068   7.483   6.640   3.066 -0.1504 -0.0201 -0.7490
  224MOL    C2345069   7.366   6.609   3.166 -0.4430 -0.5730 -0.0810
  224MOL    C2445070   7.359   6.719   3.270 -0.8842  0.7885  0.5618
  224MOL    O2545071   7.452   6.788   3.308 -0.2292 -0.4115 -0.0859
  224MOL    N2645072   7.235   6.736   3.315 -0.0812  0.2266  0.2543
  224MOL    H2745073   7.580   6.654   3.112 -1.5873 -2.8165  3.4192
  224MOL    H2845074   7.500   6.548   3.010 -0.1814  0.4795 -1.5973
  224MOL    H2945075   7.273   6.600   3.110 -1.3798 -1.3840  1.5931
  224MOL    H3045076   7.218   6.811   3.380 -1.2185  0.1814  0.0191
  224MOL    H3145077   7.164   6.666   3.301  1.8058 -1.9200  1.0714
  224MOL    C3245078   7.391   6.476   3.241  0.2248  0.3672  0.3947
  224MOL    C3345079   7.270   6.418   3.325  0.1158  0.6097  0.0402
  224MOL    C3445080   7.327   6.313   3.424 -0.2843 -0.2395  0.2093
  224MOL    O3545081   7.332   6.194   3.397 -0.8490  0.0484  0.2548
  224MOL    N3645082   7.361   6.361   3.543  0.0357 -0.0492  0.1331
  224MOL    H3745083   7.462   6.490   3.322 -2.1997  1.4345  2.4329
  224MOL    H3845084   7.430   6.402   3.172 -1.3510  0.0683 -0.2013
  224MOL    H3945085   7.231   6.498   3.387 -0.7930 -0.4576  0.8616
  224MOL    H4045086   7.362   6.459   3.566  1.0810 -0.1663  0.6192
  224MOL    H4145087   7.383   6.287   3.608 -2.5554 -0.9315  0.0544
  224MOL    C4245088   7.166   6.358   3.228 -0.0252 -0.8347 -0.5401
  224MOL    C4345089   7.199   6.245   3.132 -0.4466  0.5567 -0.3541
  224MOL    C4445090   7.198   6.288   2.988 -0.2409 -0.0527  0.1805
  224MOL    O4545091   7.105   6.349   2.936 -0.1244 -0.1170 -0.2530
  224MOL    N4645092   7.306   6.264   2.910  0.0744  0.5903 -1.0275
  224MOL    H4745093   7.119   6.439   3.172  0.8758 -1.4556 -2.2485
  224MOL    H4845094   7.088   6.311   3.288 -2.8191  0.2313 -3.2075
  224MOL    H4945095   7.296   6.204   3.161  0.0678  2.6805  1.0367
  224MOL    H5045096   7.398   6.232   2.938 -1.0743 -1.5422  0.4164
  224MOL    H5145097   7.295   6.314   2.823 -2.4890  0.6688 -0.6888
  224MOL    C5245098   7.097   6.132   3.140  0.0627  0.5601  1.0318
  224MOL    C5345099   7.131   5.990   3.087 -0.6051 -0.0142  0.8824
  224MOL    C5445100   7.010   5.903   3.046 -0.2822 -0.4291 -0.0413
  224MOL    O5545101   6.915   5.955   2.984  0.1564 -0.1248  0.1722
  224MOL    N5645102   7.012   5.769   3.055 -0.3260 -0.0848  0.0333
  224MOL    H5745103   7.005   6.167   3.092  0.0604  1.2897  1.5603
  224MOL    H5845104   7.082   6.114   3.247  2.8070 -0.5486  1.2703
  224MOL    H5945105   7.181   5.999   2.991 -1.5550 -1.5483  0.2489
  224MOL    H6045106   7.105   5.740   3.081  0.6224  2.6618 -0.0781
  224MOL    H6145107   6.935   5.713   3.023 -1.7689  1.5991  0.4586
  224MOL    C6245108   7.234   5.920   3.183  1.0794  0.2127 -0.1194
  224MOL    C6345109   7.367   5.881   3.116 -0.3331 -0.8355  0.4845
  224MOL    C6445110   7.359   5.809   2.980 -0.4531 -0.0337 -0.4322
  224MOL    O6545111   7.307   5.699   2.971  0.1591 -0.6938 -0.2985
  224MOL    N6645112   7.406   5.866   2.871  0.1212  0.3987 -0.5035
  224MOL    H6745113   7.194   5.835   3.238  0.9197  0.5411  0.2797
  224MOL    H6845114   7.276   5.984   3.262  2.3329 -1.2703  0.4353
  224MOL    H6945115   7.406   5.979   3.087 -1.4326 -0.4730  0.2400
  224MOL    H7045116   7.389   5.821   2.783  0.0721  0.3592 -0.4742
  224MOL    H7145117   7.465   5.947   2.885 -1.6021  1.2081  2.5640
  224MOL    C7245118   7.464   5.821   3.217 -0.5081 -0.3858  0.1723
  224MOL    C7345119   7.528   5.928   3.317 -0.8247 -0.5265  0.3644
  224MOL    C7445120   7.615   6.036   3.243 -0.0177  0.0439 -0.4828
  224MOL    O7545121   0.046   5.999   3.165 -0.2054 -0.1077  0.2058
  224MOL    N7645122   7.579   6.164   3.266 -0.3047  0.0723  0.2038
  224MOL    H7745123   7.538   5.753   3.174  0.3781  0.5819  0.1383
  224MOL    H7845124   7.401   5.753   3.274 -2.0680 -1.1633 -2.3881
  224MOL    H7945125   7.447   5.980   3.367 -0.7286  0.9126 -0.9322
  224MOL    H8045126   7.636   6.234   3.220 -0.0696 -0.3198 -0.1073
  224MOL    H8145127   7.511   6.201   3.332 -0.6918  1.5052 -0.9504
  224MOL    C8245128   7.605   5.861   3.435  0.1230 -0.0815  0.0058
  224MOL    C8345129   7.547   5.735   3.503  0.3770  0.6882  0.3408
  224MOL    C8445130   7.566   5.742   3.654  0.3518  0.2441 -0.0267
  224MOL    O8545131   0.019   5.733   3.705  0.1718 -0.5714 -0.0536
  224MOL    N8645132   7.459   5.750   3.727 -0.0382  0.2411  0.3070
  224MOL    H8745133   7.610   5.932   3.518 -0.1691 -0.0672  0.0129
  224MOL    H8845134   0.053   5.844   3.413  0.5118 -1.8697  2.9887
  224MOL    H8945135   7.442   5.735   3.477  0.1445 -0.8263  1.2090
  224MOL    H9045136   7.472   5.724   3.824  0.5810 -0.6266  0.0020
  224MOL    H9145137   7.369   5.738   3.683 -0.9763 -3.2607  2.9379
  224MOL    C9245138   7.622   5.618   3.448  0.1689  0.3538 -0.0948
  224MOL    C9345139   7.555   5.486   3.479  0.3193 -0.0296 -0.3007
  224MOL    C9445140   7.645   5.374   3.552  0.7748  0.0470 -0.2296
  224MOL    O9545141   0.095   5.344   3.499 -0.1319 -0.3488 -0.2979
  224MOL    N9645142   7.601   5.315   3.660  0.2413  0.0126  0.2795
  224MOL    H9745143   0.066   5.622   3.488  0.4971  0.4295 -0.9240
  224MOL    H9845144   7.627   5.638   3.341  0.7471 -2.8330 -0.7287
  224MOL    H9945145   7.462   5.505   3.533  0.2987 -1.0891  0.0493
  224MOL   H10045146   7.501   5.309   3.672  0.2563  0.0527  0.4291
  224MOL   H10145147   7.652   5.244   3.711 -0.0283  0.4701  1.1998
  224MOL   C10245148   7.510   5.421   3.336  0.3301  0.1570  0.3735
  224MOL   C10345149   7.391   5.330   3.329  0.0865  0.5469  0.1928
  224MOL   C10445150   7.395   5.265   3.191 -0.0360 -0.2886  0.0653
  224MOL   O10545151   7.409   5.331   3.088 -0.0515 -0.2349  0.2000
  224MOL   N10645152   7.390   5.133   3.194 -0.4666 -0.6470  0.6310
  224MOL   H10745153   7.599   5.372   3.296  0.5475 -1.6705  2.9690
  224MOL   H10845154   7.494   5.499   3.262 -0.8113 -0.1473  0.2982
  224MOL   H10945155   7.406   5.253   3.405 -1.0926  0.2231  0.0988
  224MOL   H11045156   7.393   5.071   3.274 -2.5436 -2.2160 -0.4593
  224MOL   H11145157   7.385   5.084   3.106  1.3310  2.8520 -1.5516
  224MOL   C11245158   7.259   5.395   3.358  0.2047  0.5651 -0.2519
  224MOL   C11345159   7.130   5.316   3.334  0.1397  0.2161 -0.2138
  224MOL   C11445160   7.012   5.399   3.351 -0.6777 -0.3516 -0.0779
  224MOL   O11545161   6.999   5.486   3.439  0.3616  0.6729 -0.3472
  224MOL   N11645162   6.913   5.373   3.266 -0.0564 -0.8507  0.3119
  224MOL   H11745163   7.268   5.490   3.304  1.5923  0.5091 -0.1518
  224MOL   H11845164   7.261   5.419   3.464  0.4667  0.1330 -0.1579
  224MOL   H11945165   7.129   5.285   3.230 -0.9755  0.0765 -0.1733
  224MOL   H12045166   6.914   5.318   3.182  1.8869 -1.2683  0.5849
  224MOL   H12145167   6.829   5.429   3.274 -0.8884 -1.7143 -2.0185
  224MOL   C12245168   7.130   5.183   3.413  0.8879 -0.0352  0.1476
  224MOL   C12345169   7.095   5.180   3.565  0.2222 -0.2587 -0.5130
  224MOL   C12445170   7.199   5.254   3.648  0.1703  0.5054  0.8767
  224MOL   O12545171   7.318   5.254   3.628 -0.5902 -0.6544 -0.0400
  224MOL   N12645172   7.147   5.317   3.750 -0.0901 -0.3774 -0.4402
  224MOL   H12745173   7.218   5.122   3.395 -0.6566 -2.4477  0.5004
  224MOL   H12845174   7.052   5.138   3.351  1.1312 -0.5793  0.2347
  224MOL   H12945175   7.004   5.232   3.595  1.4120  1.7235 -0.2827
  224MOL   H13045176   7.050   5.316   3.778  0.0131  1.9654  0.1236
  224MOL   H13145177   7.205   5.384   3.797 -0.8960 -1.0247  1.5243
  224MOL   C13245178   7.064   5.039   3.620  0.2641  1.1026 -0.3927
  224MOL   C13345179   7.166   4.923   3.597  0.4216  0.2559 -0.0807
  224MOL   C13445180   7.106   4.809   3.523 -0.0152  0.3761 -0.3134
  224MOL   O13545181   7.035   4.733   3.586 -0.6077  0.0010  0.2139
  224MOL   N13645182   7.129   4.789   3.394  0.6083 -0.3272  0.0870
  224MOL   H13745183   6.960   5.013   3.599  0.5220  0.1064 -0.4884
  224MOL   H13845184   7.060   5.046   3.728 -2.2550  2.1063 -0.5162
  224MOL   H13945185   7.247   4.956   3.531  0.4479 -2.2248 -1.3249
  224MOL   H14045186   7.200   4.839   3.342 -0.3356 -0.7106 -1.6031
  224MOL   H14145187   7.074   4.717   3.351  1.3061  0.2689 -1.8458
  224MOL   C14245188   7.244   4.876   3.728  0.9289 -0.4522  0.3432
  224MOL   C14345189   7.386   4.823   3.700 -0.5406 -0.5627 -0.4244
  224MOL   C14445190   7.410   4.688   3.770 -0.0368  0.3445  0.8686
  224MOL   O14545191   7.401   4.672   3.885  0.3227 -0.2681 -0.0637
  224MOL   N14645192   7.449   4.591   3.684  0.6113 -0.5013  0.2863
  224MOL   H14745193   7.177   4.798   3.765  1.3127 -1.0785 -0.2837
  224MOL   H14845194   7.241   4.954   3.804  1.8991  0.2912 -0.3829
  224MOL   H14945195   7.402   4.823   3.592 -1.4371  1.9588 -0.5857
  224MOL   H15045196   7.458   4.614   3.586  0.6521  0.8242  0.5920
  224MOL   H15145197   7.481   4.502   3.717 -0.2764 -0.7170  0.5750
  224MOL   C15245198   7.487   4.933   3.754  0.3346  0.6748  0.1795
  224MOL   C15345199   7.639   4.910   3.731  0.1844 -0.2770 -0.0316
  224MOL   C15445200   0.053   5.000   3.827  0.5142 -0.9189 -0.1396
  224MOL   O15545201   0.080   5.120   3.796 -0.4678  0.0036  0.5569
  224MOL   N15645202   0.094   4.949   3.942 -0.1897  0.0076  0.1234
  224MOL   H15745203   7.476   4.910   3.860 -0.4896  0.6540  0.0946
  224MOL   H15845204   7.465   5.037   3.733  1.1009  1.7115  4.2119
  224MOL   H15945205   0.002   4.805   3.752 -0.8500 -0.2450  1.1995
  224MOL   H16045206   0.130   5.018   4.006 -0.1436 -0.1719  0.2897
  224MOL   H16145207   0.065   4.856   3.968  0.6728  0.5839  3.3624
  224MOL   C16245208   0.014   4.945   3.589  0.4670 -0.0845 -0.4168
  224MOL   C16345209   0.160   4.931   3.546 -0.2395 -0.3746  0.6574
  224MOL   C16445210   0.192   5.031   3.431  0.0648  0.0804  0.0768
  224MOL   O16545211   0.120   5.047   3.334  0.4161 -0.6152 -0.4522
  224MOL   N16645212   0.309   5.096   3.448 -0.2787 -0.6183 -0.3996
  224MOL   H16745213   7.644   5.047   3.562  0.4065  0.1700  0.5713
  224MOL   H16845214   7.598   4.894   3.526 -0.7280  0.4849  0.4808
  224MOL   H16945215   0.219   4.968   3.629  1.7867  0.9692 -1.3132
  224MOL   H17045216   0.367   5.061   3.522  1.2581  0.7254 -0.9359
  224MOL   H17145217   0.338   5.183   3.405 -0.3487 -1.4592 -2.2004
  224MOL   C17245218   0.209   4.784   3.525 -0.4800 -0.0961  0.2630
  224MOL   C17345219   0.359   4.768   3.574  0.1984  0.4235 -0.4356
  224MOL   C17445220   0.430   4.651   3.500  0.6309  0.0882  0.0189
  224MOL   O17545221   0.376   4.569   3.416 -0.5579 -0.6887  0.0050
  224MOL   N17645222   0.560   4.638   3.528 -0.1615  0.2414  0.0455
  224MOL   H17745223   0.193   4.752   3.422 -0.6088 -0.5783  0.4349
  224MOL   H17845224   0.153   4.718   3.590 -0.6758 -0.4870 -0.3055
  224MOL   H17945225   0.404   4.857   3.528 -0.2431  1.8567  1.8503
  224MOL   H18045226   0.605   4.709   3.582  1.5552 -1.6670  1.2010
  224MOL   H18145227   0.613   4.563   3.485 -0.7196 -1.2936  1.9405
  224MOL   C18245228   0.386   4.767   3.731  0.3718  1.6973  0.8150
  224MOL   C18345229   0.361   4.632   3.810  0.4956  0.0982  0.2813
  224MOL   C18445230   0.215   4.593   3.824  0.2451  0.4777  0.1908
  224MOL   O18545231   0.140   4.671   3.894  0.1405 -0.4662  0.5669
  224MOL   N18645232   0.178   4.482   3.756 -0.1096  0.2231  0.2234
  224MOL   H18745233   0.335   4.853   3.775  0.0637  1.8032  0.2485
  224MOL   H18845234   0.491   4.793   3.746  0.8514  0.0111  0.5455
  224MOL   H18945235   0.402   4.545   3.758  0.8980  0.3973  0.0958
  224MOL   H19045236   0.079   4.462   3.759  0.1622 -1.0332  1.1869
  224MOL   H19145237   0.249   4.437   3.699 -0.5957 -0.4718  0.1521
  224MOL   C19245238   0.437   4.633   3.942  0.8897 -0.9420  1.4141
  224MOL   C19345239   0.423   4.760   4.031  0.1317 -0.2599 -0.0266
  224MOL   C19445240   0.540   4.768   4.130 -0.4584 -0.4238 -0.0496
  224MOL   O19545241   0.595   4.668   4.169 -0.7082  0.1253 -0.1872
  224MOL   N19645242   0.564   4.893   4.173  0.6223  0.0506 -0.1401
  224MOL   H19745243   0.543   4.629   3.918  1.2625  1.8908  2.4109
  224MOL   H19845244   0.422   4.542   4.001  1.8062 -1.4088  0.9350
  224MOL   H19945245   0.431   4.853   3.974  2.2506  0.2860  1.1254
  224MOL   H20045246   0.618   4.918   4.255 -1.1331  2.5365  0.3235
  224MOL   H20145247   0.510   4.972   4.139 -1.1190 -1.2441 -0.4388
  224MOL   H20245248   0.329   4.747   4.085 -0.1975 -0.4463 -0.6304
  225MOL     C145249   5.310   4.066   2.346  0.4806  0.1761  0.3361
  225MOL     C245250   5.435   4.144   2.383 -0.1430  0.3026  0.4467
  225MOL     C345251   5.476   4.110   2.529  0.1039  0.4035  1.3391
  225MOL     O445252   5.409   4.145   2.627  0.1407 -0.0160  0.3082
  225MOL     N545253   5.574   4.023   2.544  0.2686  0.6241 -0.4444
  225MOL     H645254   5.327   3.960   2.367 -1.0836 -0.1836 -0.1817
  225MOL     H745255   5.233   4.097   2.417  0.3021  0.1711  0.1468
  225MOL     H845256   5.508   4.101   2.314 -2.9266 -2.7006 -0.7889
  225MOL     H945257   5.612   4.009   2.637 -2.9050 -0.3984  0.7784
  225MOL    H1045258   5.618   3.969   2.471  0.1147 -0.0968 -0.0089
  225MOL    H1145259   5.286   4.080   2.241  1.3842 -0.9418 -0.0310
  225MOL    C1245260   5.403   4.292   2.358  0.0129 -0.6119 -0.8438
  225MOL    C1345261   5.520   4.379   2.313 -0.0817  0.1450 -0.9609
  225MOL    C1445262   5.618   4.392   2.432  0.3064  0.0385  0.5953
  225MOL    O1545263   5.588   4.447   2.537 -0.8062  0.2453  0.3490
  225MOL    N1645264   5.741   4.342   2.414  0.6278  0.0541 -0.2612
  225MOL    H1745265   5.364   4.334   2.451  0.3151 -0.2008 -0.9007
  225MOL    H1845266   5.322   4.319   2.289 -1.5817  2.4547  2.0818
  225MOL    H1945267   5.573   4.319   2.240  0.9679 -0.5495  0.3443
  225MOL    H2045268   5.804   4.352   2.493  0.1657 -2.0056  0.3986
  225MOL    H2145269   5.774   4.313   2.324 -0.6207 -4.1880  0.5582
  225MOL    C2245270   5.486   4.531   2.280  0.2304  0.2187  0.2079
  225MOL    C2345271   5.397   4.556   2.150  0.2263 -0.8978 -0.3927
  225MOL    C2445272   5.451   4.481   2.027 -0.0428 -0.6062 -0.3094
  225MOL    O2545273   5.387   4.473   1.922  0.3089 -0.0251 -0.1671
  225MOL    N2645274   5.578   4.444   2.022  0.4346  0.5887 -0.8001
  225MOL    H2745275   5.577   4.591   2.273  0.6275 -0.3171  0.6103
  225MOL    H2845276   5.429   4.570   2.364  0.8782  1.1754  0.2105
  225MOL    H2945277   5.300   4.508   2.168 -0.3735  0.3137 -0.3502
  225MOL    H3045278   5.639   4.452   2.102 -1.3811  0.0794  0.6539
  225MOL    H3145279   5.609   4.382   1.948  1.5034  0.6570 -0.4115
  225MOL    C3245280   5.385   4.715   2.136  0.4613  0.3186 -0.0238
  225MOL    C3345281   5.281   4.791   2.042  0.5817 -0.2061 -0.3607
  225MOL    C3445282   5.148   4.711   2.027 -0.2127 -0.7203  0.2542
  225MOL    O3545283   5.051   4.728   2.102 -0.5070 -0.4473 -0.4116
  225MOL    N3645284   5.135   4.613   1.940 -0.3080  0.2191  0.1117
  225MOL    H3745285   5.484   4.754   2.112  0.1874  0.1404 -1.5207
  225MOL    H3845286   5.371   4.768   2.230 -0.2424 -0.8219  0.5235
  225MOL    H3945287   5.243   4.882   2.089 -0.5133 -0.6122 -0.4523
  225MOL    H4045288   5.221   4.571   1.906  0.1427  0.4426  0.9745
  225MOL    H4145289   5.054   4.553   1.948  1.4492 -2.0964  1.3492
  225MOL    C4245290   5.338   4.845   1.905 -0.1903  0.3428  0.9093
  225MOL    C4345291   5.416   4.980   1.915 -0.3482  0.6315 -0.2194
  225MOL    C4445292   5.323   5.094   1.929 -0.2156 -0.7081  0.2318
  225MOL    O4545293   5.336   5.158   2.032 -0.4262 -0.2692 -0.4542
  225MOL    N4645294   5.235   5.119   1.834 -0.9088 -0.3438  0.0448
  225MOL    H4745295   5.252   4.859   1.840 -1.1283 -1.9755  1.6101
  225MOL    H4845296   5.403   4.768   1.863 -0.9488 -0.5734  1.4161
  225MOL    H4945297   5.459   4.963   2.014  0.6019 -1.7773 -1.0091
  225MOL    H5045298   5.239   5.062   1.751 -1.2522 -0.6977  0.2657
  225MOL    H5145299   5.167   5.194   1.839 -0.4286  0.0101  1.5945
  225MOL    C5245300   5.523   5.015   1.813 -0.5496 -0.3406 -0.0684
  225MOL    C5345301   5.622   5.129   1.859 -0.1796  0.7634 -0.1650
  225MOL    C5445302   5.656   5.217   1.744 -0.2470 -0.2312  0.5535
  225MOL    O5545303   5.681   5.154   1.644 -0.0158 -1.2239 -0.0599
  225MOL    N5645304   5.660   5.352   1.743 -0.2371  0.5622 -0.5127
  225MOL    H5745305   5.475   5.043   1.720  0.0603  0.1551 -0.2332
  225MOL    H5845306   5.574   4.924   1.780  0.0218 -0.7217  1.7528
  225MOL    H5945307   5.580   5.196   1.935  1.0399  1.6426 -0.2495
  225MOL    H6045308   5.640   5.399   1.830  0.9298 -0.1490  0.1549
  225MOL    H6145309   5.665   5.407   1.658  1.5408  1.9681  0.4650
  225MOL    C6245310   5.744   5.069   1.932 -0.4090 -0.6108  0.0523
  225MOL    C6345311   5.727   5.040   2.080 -0.3938 -0.4385 -0.6693
  225MOL    C6445312   5.705   5.171   2.161 -0.3501  0.4218 -0.5839
  225MOL    O6545313   5.795   5.247   2.191 -0.2333 -0.0772  0.4581
  225MOL    N6645314   5.577   5.196   2.201 -0.0412 -0.2673  0.1357
  225MOL    H6745315   5.833   5.124   1.902 -0.4268 -0.8930 -0.5303
  225MOL    H6845316   5.757   4.975   1.877 -0.1890  0.6471 -2.1086
  225MOL    H6945317   5.653   4.962   2.093 -1.2164  0.2029 -1.4187
  225MOL    H7045318   5.560   5.286   2.244  0.8311  0.6906 -1.4816
  225MOL    H7145319   5.497   5.147   2.165 -0.5468 -0.0331  0.9242
  225MOL    C7245320   5.858   4.967   2.118 -0.2839  0.2031 -0.0602
  225MOL    C7345321   5.895   4.827   2.051 -0.2358  0.3741  0.0986
  225MOL    C7445322   5.782   4.720   2.048 -0.5352 -0.8378 -0.3319
  225MOL    O7545323   5.779   4.621   2.125 -0.4947  0.0501 -0.2847
  225MOL    N7645324   5.681   4.728   1.953 -0.3909  0.2385 -0.5866
  225MOL    H7745325   5.871   4.964   2.226  0.1685  0.7093 -0.1017
  225MOL    H7845326   5.938   5.032   2.085  0.0438 -0.6162 -0.8866
  225MOL    H7945327   5.914   4.842   1.944 -2.1218 -1.0477 -0.4676
  225MOL    H8045328   5.683   4.814   1.900 -0.3398  2.4138  2.7661
  225MOL    H8145329   5.602   4.665   1.947  0.4369 -0.9772  0.7146
  225MOL    C8245330   6.022   4.765   2.117 -0.3370 -0.7436 -0.3198
  225MOL    C8345331   6.148   4.839   2.063  0.3711 -0.2156 -0.3288
  225MOL    C8445332   6.249   4.736   1.997  0.5250 -0.5541  0.0796
  225MOL    O8545333   6.314   4.661   2.074 -0.1604 -0.2893 -0.3814
  225MOL    N8645334   6.243   4.730   1.866 -0.1967 -0.9273 -0.1094
  225MOL    H8745335   6.032   4.660   2.088  0.8753 -1.0681  1.1970
  225MOL    H8845336   6.011   4.774   2.225 -1.7632  0.0202 -0.5108
  225MOL    H8945337   6.118   4.907   1.984  1.4473 -0.3200 -0.8273
  225MOL    H9045338   6.183   4.795   1.819  1.3098 -0.7139 -1.7964
  225MOL    H9145339   6.303   4.663   1.820 -0.2858 -0.1454 -1.3732
  225MOL    C9245340   6.211   4.926   2.177  0.0571  0.9865 -0.1213
  225MOL    C9345341   6.331   5.013   2.146  0.6095  0.1771 -0.5446
  225MOL    C9445342   6.357   5.088   2.281  0.3018 -1.0183  1.0533
  225MOL    O9545343   6.273   5.166   2.322  0.2691  0.2172  0.9018
  225MOL    N9645344   6.464   5.059   2.345  0.3095 -0.5417 -0.3480
  225MOL    H9745345   6.240   4.864   2.262  1.8136 -0.0445 -1.4396
  225MOL    H9845346   6.127   4.988   2.211 -0.1638  0.3438  0.5101
  225MOL    H9945347   6.412   4.945   2.121  0.1464  0.0282 -1.6802
  225MOL   H10045348   6.529   4.988   2.316  2.5392 -0.0283  3.1070
  225MOL   H10145349   6.490   5.114   2.425  0.7630 -0.0456 -0.8308
  225MOL   C10245350   6.301   5.103   2.024 -0.6811  0.0719  0.3945
  225MOL   C10345351   6.429   5.152   1.943  0.7105  0.1255 -0.2868
  225MOL   C10445352   6.494   5.272   2.013  0.4176  0.2449 -0.1641
  225MOL   O10545353   6.444   5.384   2.000  0.4354 -0.0025  0.4682
  225MOL   N10645354   6.593   5.249   2.097 -0.2270  0.3174 -0.3679
  225MOL   H10745355   6.254   5.191   2.067 -1.1913  0.1409 -0.2915
  225MOL   H10845356   6.228   5.066   1.952  1.0014  1.2395 -1.9534
  225MOL   H10945357   6.509   5.079   1.950 -1.1800 -1.9024  1.1433
  225MOL   H11045358   6.626   5.332   2.144 -1.0754  0.6056 -0.2675
  225MOL   H11145359   6.618   5.157   2.129 -3.4580 -0.6865 -0.5953
  225MOL   C11245360   6.397   5.170   1.796  0.2382  0.2991 -0.2752
  225MOL   C11345361   6.387   5.046   1.702 -0.3481  0.4114 -0.0043
  225MOL   C11445362   6.526   4.984   1.668 -0.1859  0.5126  0.7546
  225MOL   O11545363   6.634   5.042   1.680  0.2450 -0.3132  0.5554
  225MOL   N11645364   6.537   4.860   1.632  0.1743 -0.0111 -0.3093
  225MOL   H11745365   6.471   5.241   1.758 -1.7188  1.9025 -1.1941
  225MOL   H11845366   6.305   5.227   1.782 -0.2150 -0.6509 -1.2151
  225MOL   H11945367   6.337   4.977   1.770 -0.3332 -0.4062 -0.8111
  225MOL   H12045368   6.456   4.801   1.648  0.2425 -0.1486 -0.4701
  225MOL   H12145369   6.628   4.817   1.618 -0.2407 -0.5684 -1.3966
  225MOL   C12245370   6.308   5.071   1.573  0.7389  0.3684  0.4175
  225MOL   C12345371   6.362   5.141   1.448 -0.2104  0.5088  0.2447
  225MOL   C12445372   6.409   5.284   1.480 -0.3415  0.8097  0.3753
  225MOL   O12545373   6.328   5.377   1.498 -0.1486  0.1403  0.1206
  225MOL   N12645374   6.538   5.297   1.503 -0.6722  0.0280 -0.3056
  225MOL   H12745375   6.214   5.123   1.592  1.6182  1.7694  0.9857
  225MOL   H12845376   6.282   4.973   1.534 -1.3378  1.0308  0.0792
  225MOL   H12945377   6.439   5.076   1.407 -0.6877  0.9779 -1.4260
  225MOL   H13045378   6.598   5.217   1.505  0.8415  1.1063 -1.7742
  225MOL   H13145379   6.584   5.379   1.542  1.6542 -1.8504  1.0298
  225MOL   C13245380   6.250   5.151   1.338 -0.2963  0.4211 -0.2598
  225MOL   C13345381   6.213   5.018   1.272  0.6213 -0.1507 -0.2938
  225MOL   C13445382   6.268   5.005   1.130 -0.0911 -0.3763 -0.2738
  225MOL   O13545383   6.247   5.083   1.041 -0.5551  0.1603  0.2374
  225MOL   N13645384   6.340   4.897   1.108  0.1766 -0.0912  0.1285
  225MOL   H13745385   6.288   5.219   1.261  0.5961  2.1798  1.6876
  225MOL   H13845386   6.164   5.200   1.382 -1.6231 -2.1615  0.1145
  225MOL   H13945387   6.254   4.931   1.324  1.6402 -0.6898 -1.9605
  225MOL   H14045388   6.329   4.820   1.172  0.6787 -0.3050 -0.0423
  225MOL   H14145389   6.377   4.874   1.017 -0.5034  0.1928 -0.2230
  225MOL   C14245390   6.060   4.999   1.283 -0.0107 -0.2008 -0.2511
  225MOL   C14345391   6.015   4.848   1.295 -0.3761  0.3464  0.0146
  225MOL   C14445392   5.886   4.828   1.210  0.0687  0.0580 -0.3524
  225MOL   O14545393   5.779   4.860   1.249 -0.4184  0.0893 -0.4531
  225MOL   N14645394   5.902   4.769   1.091 -0.0469 -0.0877  0.3153
  225MOL   H14745395   6.015   5.058   1.203  0.1335 -0.4841 -0.5394
  225MOL   H14845396   6.022   5.048   1.373  0.3529  0.7726 -0.6231
  225MOL   H14945397   6.079   4.779   1.240  0.6817  0.5565  0.9652
  225MOL   H15045398   5.823   4.753   1.030 -0.0427 -0.4270  0.3984
  225MOL   H15145399   5.991   4.731   1.062  0.6029 -0.1016  2.2682
  225MOL   C15245400   6.009   4.791   1.437  0.2411  0.0483 -0.3209
  225MOL   C15345401   5.919   4.855   1.540 -0.0674  0.3096  0.0257
  225MOL   C15445402   5.995   4.946   1.646 -0.6927  0.2694 -0.2836
  225MOL   O15545403   6.088   4.904   1.711 -0.0332  0.1969 -0.1692
  225MOL   N15645404   5.940   5.065   1.665 -0.3332  0.3695  0.6036
  225MOL   H15745405   6.108   4.805   1.482 -0.5471 -0.7426  1.7298
  225MOL   H15845406   6.005   4.683   1.428 -0.0842 -0.2451  2.7636
  225MOL   H15945407   5.845   4.911   1.482  2.1841  3.1936 -0.1837
  225MOL   H16045408   5.863   5.091   1.605  0.6074  0.7033 -0.4816
  225MOL   H16145409   5.977   5.130   1.733 -0.8165  2.3267 -0.9514
  225MOL   C16245410   5.844   4.748   1.621  0.9033  0.4726 -0.2065
  225MOL   C16345411   5.738   4.669   1.553 -0.0083  0.4697  0.7083
  225MOL   C16445412   5.608   4.751   1.550 -0.2711 -0.5240 -0.0558
  225MOL   O16545413   5.523   4.733   1.636  0.0338  0.5230 -0.4890
  225MOL   N16645414   5.587   4.819   1.440  0.2360 -0.2822 -0.6535
  225MOL   H16745415   5.799   4.800   1.706 -0.7233 -0.5825 -0.4030
  225MOL   H16845416   5.912   4.676   1.667 -0.1076 -1.3341 -1.4837
  225MOL   H16945417   5.764   4.660   1.448 -1.6154 -0.6944  0.3932
  225MOL   H17045418   5.508   4.881   1.448  2.1598  2.1196  0.2087
  225MOL   H17145419   5.656   4.817   1.366 -1.0197 -0.3706 -1.8490
  225MOL   C17245420   5.724   4.532   1.610 -0.0401 -0.0149 -0.1369
  225MOL   C17345421   5.610   4.442   1.562  0.1873  0.0475 -0.3526
  225MOL   C17445422   5.570   4.346   1.674 -0.5450  0.4025 -0.9737
  225MOL   O17545423   5.644   4.314   1.770  0.1976  0.2876  0.0932
  225MOL   N17645424   5.454   4.292   1.665 -0.0239 -0.2503  0.3937
  225MOL   H17745425   5.721   4.549   1.718 -0.9063 -1.6880  0.1300
  225MOL   H17845426   5.817   4.479   1.591 -0.9664 -0.9031 -2.4543
  225MOL   H17945427   5.520   4.501   1.542  0.7964  1.0200 -0.2645
  225MOL   H18045428   5.401   4.298   1.579 -1.3735  0.2817  1.2295
  225MOL   H18145429   5.412   4.244   1.744 -1.4593 -0.9524 -0.7608
  225MOL   C18245430   5.656   4.374   1.427  0.6987  0.2115 -0.3158
  225MOL   C18345431   5.564   4.276   1.359 -0.1428 -0.3366  0.0249
  225MOL   C18445432   5.637   4.148   1.334  0.0390 -0.0090  0.4030
  225MOL   O18545433   5.743   4.152   1.274 -0.0194 -0.0441  0.0334
  225MOL   N18645434   5.593   4.044   1.387  0.6372  0.3844  0.6461
  225MOL   H18745435   5.762   4.345   1.432  0.4773 -1.0026 -1.9839
  225MOL   H18845436   5.659   4.463   1.365  0.0472 -0.2835 -1.0709
  225MOL   H18945437   5.491   4.246   1.434 -1.0496  0.5191 -0.4972
  225MOL   H19045438   5.646   3.958   1.391  0.8401  0.5758  2.8023
  225MOL   H19145439   5.505   4.042   1.435 -0.4631 -0.1394 -1.3446
  225MOL   C19245440   5.501   4.334   1.234  0.7661  0.4789 -0.3969
  225MOL   C19345441   5.372   4.416   1.262 -0.3675  0.4505  0.2402
  225MOL   C19445442   5.348   4.525   1.158 -0.2211  0.2700  0.0581
  225MOL   O19545443   5.302   4.506   1.048  0.2617 -0.6145 -0.1728
  225MOL   N19645444   5.386   4.647   1.191 -0.2461  0.1903 -0.0323
  225MOL   H19745445   5.467   4.253   1.169  0.7753 -2.2930  2.8924
  225MOL   H19845446   5.565   4.393   1.167 -0.0988  0.1345 -1.5471
  225MOL   H19945447   5.299   4.336   1.268  0.9726 -1.1345 -3.0622
  225MOL   H20045448   5.423   4.673   1.282 -0.8319 -0.9494  0.5426
  225MOL   H20145449   5.373   4.720   1.122 -1.9753 -0.0136  0.0746
  225MOL   H20245450   5.377   4.465   1.359  0.7719  1.1483 -0.1665
  226MOL     C145451   3.106   0.855   0.737 -0.3265  0.8283  0.0882
  226MOL     C245452   3.109   0.774   0.871 -0.2480  0.7731  0.5786
  226MOL     C345453   3.034   0.641   0.859  0.3335 -0.3220 -0.3878
  226MOL     O445454   2.917   0.639   0.821  0.0706 -0.1910 -0.2756
  226MOL     N545455   3.093   0.534   0.903  0.1403 -0.3580 -0.0919
  226MOL     H645456   3.194   0.915   0.711  0.5289 -1.3316 -2.1917
  226MOL     H745457   3.090   0.783   0.657  1.9848  1.1304 -0.6935
  226MOL     H845458   3.215   0.763   0.892 -0.3911 -0.1669  0.8170
  226MOL     H945459   3.040   0.449   0.912  0.4336 -0.3708  1.8297
  226MOL    H1045460   3.190   0.536   0.932  0.6196 -0.5911 -1.6676
  226MOL    H1145461   3.014   0.914   0.735 -1.1230 -0.3572  1.2961
  226MOL    C1245462   3.036   0.852   0.983 -0.2372  0.4360 -0.2054
  226MOL    C1345463   3.118   0.873   1.118  0.3452  0.0342 -0.2939
  226MOL    C1445464   3.239   0.970   1.091  0.3428  0.6157 -0.2423
  226MOL    O1545465   3.234   1.050   0.994 -0.0970 -0.0489 -0.3552
  226MOL    N1645466   3.352   0.953   1.158 -0.7393  0.2413 -0.0996
  226MOL    H1745467   2.944   0.807   1.020  1.4528 -1.2086  2.1801
  226MOL    H1845468   3.016   0.951   0.942 -1.4253  0.2275 -0.1299
  226MOL    H1945469   3.062   0.937   1.186  0.0089 -0.3903 -0.1687
  226MOL    H2045470   3.434   0.993   1.113 -0.7784 -1.5137 -1.8317
  226MOL    H2145471   3.355   0.898   1.242  0.1049 -0.2316 -0.4275
  226MOL    C2245472   3.128   0.739   1.198  0.1041 -0.6291  0.3417
  226MOL    C2345473   3.102   0.723   1.349 -0.4847 -0.2583 -0.5074
  226MOL    C2445474   3.197   0.821   1.418  0.7768 -0.7439  0.6096
  226MOL    O2545475   3.316   0.818   1.393 -0.7101 -0.1755  0.6256
  226MOL    N2645476   3.153   0.923   1.494  0.0379  0.1171 -0.0803
  226MOL    H2745477   3.226   0.701   1.170  0.8223 -0.5871  2.7600
  226MOL    H2845478   3.056   0.677   1.143 -1.5972  0.5142  1.2412
  226MOL    H2945479   2.999   0.736   1.384 -0.7455  0.6432 -1.5786
  226MOL    H3045480   3.207   1.003   1.523  1.1349 -0.0478 -1.6051
  226MOL    H3145481   3.061   0.913   1.535 -0.6894  1.4167 -1.3436
  226MOL    C3245482   3.133   0.573   1.385  0.3332  0.1074  0.0097
  226MOL    C3345483   3.127   0.536   1.528  0.6976 -0.0730  0.2847
  226MOL    C3445484   3.179   0.394   1.550  0.5706  0.4483  0.0297
  226MOL    O3545485   3.106   0.295   1.530  0.0762  0.7285 -0.2362
  226MOL    N3645486   3.302   0.384   1.593  0.2217 -0.1092  0.2096
  226MOL    H3745487   3.227   0.542   1.339 -0.2810  0.3273 -1.4308
  226MOL    H3845488   3.055   0.521   1.330  0.4365 -0.0390  0.0019
  226MOL    H3945489   3.195   0.604   1.579  0.8687 -0.4776  0.6074
  226MOL    H4045490   3.352   0.467   1.620  0.5959  0.7860 -3.0007
  226MOL    H4145491   3.346   0.294   1.608 -0.9499 -0.9142 -1.0768
  226MOL    C4245492   2.998   0.567   1.613  0.1620  0.4415  0.5372
  226MOL    C4345493   3.016   0.568   1.768 -0.6796 -0.6379  0.3472
  226MOL    C4445494   2.882   0.568   1.843  0.4726  1.2365  0.6997
  226MOL    O4545495   2.780   0.616   1.786  0.0867 -0.0329 -0.1442
  226MOL    N4645496   2.879   0.515   1.965  0.1216  0.0660  0.4683
  226MOL    H4745497   2.917   0.505   1.574  0.8465  0.3601 -0.8025
  226MOL    H4845498   2.965   0.668   1.587  1.6445  0.7889 -0.0494
  226MOL    H4945499   3.065   0.471   1.777 -1.2605 -0.8415  1.3313
  226MOL    H5045500   2.795   0.504   2.018 -0.7842  2.9362 -0.2664
  226MOL    H5145501   2.956   0.454   1.988  3.1258  2.9007 -1.4959
  226MOL    C5245502   3.096   0.699   1.813 -0.2311  0.2945 -0.3303
  226MOL    C5345503   3.215   0.661   1.916  0.2659  0.2291  0.1794
  226MOL    C5445504   3.163   0.599   2.052 -0.5742 -0.7721 -0.2687
  226MOL    O5545505   3.103   0.665   2.137 -0.0458  0.0329 -0.0475
  226MOL    N5645506   3.180   0.471   2.065 -0.4974 -0.3217 -0.3998
  226MOL    H5745507   3.027   0.771   1.856 -0.4859 -0.2175  0.1202
  226MOL    H5845508   3.129   0.753   1.724  0.1549 -1.5617 -1.3409
  226MOL    H5945509   3.271   0.584   1.863  1.1273  1.3355 -0.5405
  226MOL    H6045510   3.230   0.422   1.992  2.4302  2.0604 -0.0996
  226MOL    H6145511   3.169   0.425   2.154  0.8927  0.0016 -0.0512
  226MOL    C6245512   3.313   0.775   1.936  0.4108  0.2959  0.0732
  226MOL    C6345513   3.450   0.784   1.861 -0.1881  0.0982  0.2848
  226MOL    C6445514   3.418   0.770   1.713 -0.6026  0.5080 -0.5604
  226MOL    O6545515   3.419   0.662   1.664 -0.1865 -0.5402 -0.8315
  226MOL    N6645516   3.390   0.879   1.642  0.3683  0.1722  0.4854
  226MOL    H6745517   3.326   0.779   2.044 -2.2433 -0.6731  0.4569
  226MOL    H6845518   3.256   0.865   1.912 -1.0356 -0.5863  0.1413
  226MOL    H6945519   3.493   0.880   1.889  0.3060  0.2365 -0.9106
  226MOL    H7045520   3.371   0.971   1.681  0.7101  0.8521 -0.9022
  226MOL    H7145521   3.371   0.868   1.543  0.7203 -0.0375  0.4430
  226MOL    C7245522   3.546   0.673   1.905 -0.0118  0.5020  0.4918
  226MOL    C7345523   3.688   0.675   1.850  0.6334  0.0208  0.2641
  226MOL    C7445524   3.741   0.534   1.823  0.9464  0.0276 -1.1643
  226MOL    O7545525   3.783   0.461   1.914  0.2519 -0.5251 -0.6129
  226MOL    N7645526   3.736   0.488   1.702  0.0001 -0.1824 -0.2848
  226MOL    H7745527   3.502   0.577   1.880 -0.4582  0.9017 -0.2874
  226MOL    H7845528   3.559   0.669   2.014 -0.9181  2.8732  0.7260
  226MOL    H7945529   3.673   0.720   1.752 -1.6413  0.6622  0.8665
  226MOL    H8045530   3.679   0.538   1.635 -1.5039  1.4877  2.1638
  226MOL    H8145531   3.766   0.394   1.683 -0.1932  0.3672 -3.6048
  226MOL    C8245532   3.784   0.765   1.934 -0.5881 -0.2181 -0.1499
  226MOL    C8345533   3.880   0.857   1.852 -0.2119 -0.4245  0.0917
  226MOL    C8445534   3.798   0.984   1.812 -0.5884 -0.5650  0.3684
  226MOL    O8545535   3.705   0.977   1.739  0.4690 -0.8040  0.1286
  226MOL    N8645536   3.820   1.102   1.874  0.3189  0.1895 -0.5513
  226MOL    H8745537   3.830   0.707   2.014  0.7693 -1.8546 -2.0575
  226MOL    H8845538   3.721   0.830   1.995 -0.2049  0.0459 -0.0350
  226MOL    H8945539   3.957   0.898   1.917 -2.5048  3.3599  0.5821
  226MOL    H9045540   3.791   1.194   1.845 -0.5660  0.4933  1.2283
  226MOL    H9145541   3.910   1.106   1.918  0.8300  1.4104 -1.6810
  226MOL    C9245542   3.944   0.793   1.722 -0.2455 -0.0377  0.4853
  226MOL    C9345543   4.059   0.878   1.660 -0.6597 -0.1260 -0.0937
  226MOL    C9445544   4.049   0.861   1.512  0.3928 -0.0338 -0.2925
  226MOL    O9545545   4.055   0.956   1.432 -0.0712  0.7782  0.7510
  226MOL    N9645546   4.032   0.739   1.467 -0.2431 -0.3012 -0.3017
  226MOL    H9745547   3.859   0.769   1.658  0.3841 -0.3552 -0.2369
  226MOL    H9845548   3.988   0.701   1.759  1.3716  0.9752  1.1168
  226MOL    H9945549   4.038   0.981   1.687 -1.1115  0.2202 -1.7258
  226MOL   H10045550   4.027   0.658   1.527  1.5886 -1.8396 -2.1409
  226MOL   H10145551   4.020   0.717   1.369  1.4129  0.8490 -0.7897
  226MOL   C10245552   4.197   0.835   1.715 -0.2614  0.1701 -0.3839
  226MOL   C10345553   4.324   0.916   1.671 -0.3181 -0.3473  0.0627
  226MOL   C10445554   4.448   0.839   1.710  0.6385 -0.2385 -0.5334
  226MOL   O10545555   4.452   0.713   1.713 -0.1756 -0.8353 -0.4475
  226MOL   N10645556   4.555   0.914   1.733 -0.5497  0.4378  0.4043
  226MOL   H10745557   4.204   0.729   1.689 -0.6808 -0.8061  3.2401
  226MOL   H10845558   4.187   0.834   1.823  0.1326  1.8686 -0.3258
  226MOL   H10945559   4.318   0.929   1.563 -0.5571 -1.9186 -0.1229
  226MOL   H11045560   4.549   1.015   1.727  0.6516  0.4658 -0.4471
  226MOL   H11145561   4.638   0.862   1.758 -1.0577 -1.5046 -1.7743
  226MOL   C11245562   4.322   1.067   1.730 -0.0979  0.2317 -0.7756
  226MOL   C11345563   4.343   1.082   1.888 -0.3664  0.6065  0.0740
  226MOL   C11445564   4.208   1.100   1.969  0.0507  0.3856  0.3503
  226MOL   O11545565   4.123   1.183   1.934 -0.2105 -0.5766 -0.0717
  226MOL   N11645566   4.189   1.026   2.079  0.0706 -0.1968 -0.2491
  226MOL   H11745567   4.221   1.099   1.703 -0.0495  3.4000  2.4114
  226MOL   H11845568   4.385   1.129   1.666  0.8177 -1.3270 -1.3988
  226MOL   H11945569   4.386   0.989   1.926  1.4940  0.8663 -1.3174
  226MOL   H12045570   4.099   1.006   2.120  0.2630 -0.0821  0.2398
  226MOL   H12145571   4.257   0.953   2.099 -0.9895 -0.5963  1.9967
  226MOL   C12245572   4.435   1.200   1.928  0.4833 -0.1258 -0.0123
  226MOL   C12345573   4.535   1.161   2.043  0.7536 -0.3782 -0.1726
  226MOL   C12445574   4.509   1.226   2.179  0.2515  0.7781 -0.4249
  226MOL   O12545575   4.486   1.342   2.182  0.0817  0.1642  0.1901
  226MOL   N12645576   4.504   1.141   2.281  0.3839  0.5223  0.4110
  226MOL   H12745577   4.374   1.287   1.950  0.8705  0.4276 -1.1105
  226MOL   H12845578   4.476   1.240   1.836 -0.1735  1.3952  0.3549
  226MOL   H12945579   4.545   1.053   2.056 -2.2492 -0.7235 -0.5236
  226MOL   H13045580   4.513   1.044   2.252 -0.4710  0.9844 -1.5311
  226MOL   H13145581   4.487   1.170   2.376  1.4564 -1.7101  1.3449
  226MOL   C13245582   4.681   1.208   1.994  1.2133 -0.2284  0.5792
  226MOL   C13345583   4.798   1.135   2.071 -0.5101  0.2925 -0.4386
  226MOL   C13445584   4.833   1.213   2.201 -0.3612  0.2081  0.5300
  226MOL   O13545585   4.820   1.333   2.216 -0.3965  0.1229  0.1397
  226MOL   N13645586   4.877   1.141   2.301  0.1696 -0.5173 -0.6852
  226MOL   H13745587   4.693   1.317   1.992  1.6369 -0.2597  1.3473
  226MOL   H13845588   4.692   1.186   1.888 -3.2436 -2.5174  0.4628
  226MOL   H13945589   4.767   1.034   2.098  0.2217 -0.0422 -0.8390
  226MOL   H14045590   4.877   1.040   2.289 -0.1614 -0.5642 -0.2930
  226MOL   H14145591   4.910   1.187   2.384 -1.1238 -1.9786  0.6720
  226MOL   C14245592   4.917   1.110   1.974 -0.5911 -0.1741 -0.4730
  226MOL   C14345593   4.910   1.010   1.861  0.3913 -0.3551  0.1977
  226MOL   C14445594   4.869   0.870   1.913 -0.4374 -0.6049  0.4521
  226MOL   O14545595   4.788   0.803   1.849 -0.0023  0.0583 -0.4792
  226MOL   N14645596   4.924   0.816   2.021  0.3402  0.2476  0.7184
  226MOL   H14745597   5.002   1.080   2.035 -1.3466 -0.0087  0.6596
  226MOL   H14845598   4.945   1.210   1.940 -0.7801  0.2046  0.4622
  226MOL   H14945599   4.837   1.039   1.786 -0.6030  0.6519  1.5273
  226MOL   H15045600   4.997   0.844   2.085  0.1616  0.4995  0.8154
  226MOL   H15145601   4.873   0.735   2.052  1.2931 -0.7703 -0.3608
  226MOL   C15245602   5.037   1.003   1.773 -0.5684 -0.2765 -0.8774
  226MOL   C15345603   5.068   1.091   1.650  0.3072  0.2343 -0.3620
  226MOL   C15445604   4.953   1.081   1.548 -0.2754  0.0655  0.2222
  226MOL   O15545605   4.874   0.994   1.542  0.2952 -0.2495 -0.0024
  226MOL   N15645606   4.956   1.177   1.455 -1.1136 -0.0241 -0.3968
  226MOL   H15745607   5.042   0.900   1.738 -1.4392 -0.4038 -0.6198
  226MOL   H15845608   5.117   1.020   1.846 -0.0926 -2.9519 -0.7152
  226MOL   H15945609   5.077   1.194   1.683  1.4217 -0.1421  0.5243
  226MOL   H16045610   4.886   1.173   1.382 -1.1489  0.3576 -0.3808
  226MOL   H16145611   5.026   1.250   1.452  0.2193 -1.2941 -0.8542
  226MOL   C16245612   5.204   1.042   1.587  0.2422  0.0549 -0.7533
  226MOL   C16345613   5.283   1.146   1.505 -0.5420 -0.5007  0.1254
  226MOL   C16445614   5.376   1.064   1.412  0.2628  0.3269  0.3433
  226MOL   O16545615   5.368   1.076   1.288  0.2480 -0.8781  0.5579
  226MOL   N16645616   5.461   0.984   1.478  0.0922 -0.3413 -0.3006
  226MOL   H16745617   5.172   0.965   1.516  2.8113 -0.8621 -0.9753
  226MOL   H16845618   5.266   1.003   1.667 -0.3340  0.1700 -0.2512
  226MOL   H16945619   5.209   1.196   1.443  0.0063 -1.2581 -1.1512
  226MOL   H17045620   5.500   0.909   1.423  1.2167  0.8087 -1.0796
  226MOL   H17145621   5.469   1.001   1.577  1.8105 -0.7994 -0.3509
  226MOL   C17245622   5.360   1.250   1.586 -0.1182 -0.9325 -0.1415
  226MOL   C17345623   5.403   1.385   1.522  0.0430 -0.1411  0.1269
  226MOL   C17445624   5.281   1.455   1.466  0.9026 -0.8518 -0.5506
  226MOL   O17545625   5.181   1.474   1.539  0.0058  0.4938  0.4446
  226MOL   N17645626   5.274   1.497   1.340 -0.3267  0.3038 -0.1554
  226MOL   H17745627   5.435   1.193   1.640 -0.0045 -0.0619  0.6319
  226MOL   H17845628   5.292   1.283   1.664 -0.9154 -0.6984 -0.9204
  226MOL   H17945629   5.447   1.443   1.603 -0.0978  0.1042  0.0284
  226MOL   H18045630   5.186   1.539   1.311  0.0673  2.1922  1.2676
  226MOL   H18145631   5.354   1.504   1.280 -1.7030 -0.6495 -2.1485
  226MOL   C18245632   5.509   1.352   1.411 -0.3785 -0.7477 -0.1517
  226MOL   C18345633   5.631   1.453   1.400 -0.2064  0.4050  0.4734
  226MOL   C18445634   5.592   1.587   1.321  0.0028 -0.1415 -0.1342
  226MOL   O18545635   5.513   1.583   1.231 -0.2810  0.0890  0.0297
  226MOL   N18645636   5.645   1.708   1.353 -0.4931  0.3277  1.1058
  226MOL   H18745637   5.476   1.334   1.308  2.7562  0.4336 -1.4270
  226MOL   H18845638   5.565   1.259   1.426  1.9200  0.5464 -0.4175
  226MOL   H18945639   5.657   1.484   1.501  0.0893  0.6978  0.3084
  226MOL   H19045640   5.709   1.710   1.431 -0.7265 -0.7207  1.3430
  226MOL   H19145641   5.616   1.797   1.316  1.4197 -0.0494 -1.4618
  226MOL   C19245642   5.761   1.388   1.347  0.8992 -0.4563  0.1699
  226MOL   C19345643   5.894   1.481   1.349  0.1254 -1.1306 -0.4034
  226MOL   C19445644   6.027   1.407   1.320 -0.7673  1.1733  0.2378
  226MOL   O19545645   6.045   1.300   1.366  0.1364 -0.0304 -0.6045
  226MOL   N19645646   6.118   1.473   1.255 -0.1636  0.0991 -0.2671
  226MOL   H19745647   5.755   1.334   1.252  1.7634 -2.7291  1.3515
  226MOL   H19845648   5.791   1.301   1.406 -3.0538 -0.2260  2.7070
  226MOL   H19945649   5.893   1.576   1.296  1.6430  0.5398  2.4767
  226MOL   H20045650   6.094   1.567   1.229  0.5938  0.4194  0.1788
  226MOL   H20145651   6.213   1.439   1.248 -1.0638 -2.4393 -0.7933
  226MOL   H20245652   5.905   1.514   1.452  1.9323 -0.0858 -0.9255
  227MOL     C145653   4.805   4.859   5.277  0.5569 -0.0815  0.0283
  227MOL     C245654   4.794   4.733   5.365 -0.8139 -0.3954  0.3725
  227MOL     C345655   4.753   4.618   5.279 -0.7183  0.7245  0.4039
  227MOL     O445656   4.644   4.597   5.238  0.1656  0.5991  0.5252
  227MOL     N545657   4.851   4.539   5.239  0.5006 -0.2588 -0.0728
  227MOL     H645658   4.720   4.927   5.271  0.9301  0.5095  1.2644
  227MOL     H745659   4.879   4.917   5.332 -0.2752  0.3259  0.7458
  227MOL     H845660   4.894   4.719   5.407 -1.4246  2.6749  3.0791
  227MOL     H945661   4.945   4.559   5.270  0.1807 -0.8917  1.3100
  227MOL    H1045662   4.836   4.460   5.178 -1.7788 -1.0654  1.4849
  227MOL    H1145663   4.836   4.825   5.178 -1.9199 -3.0586  0.2076
  227MOL    C1245664   4.694   4.751   5.482  1.2804  0.1961 -0.1985
  227MOL    C1345665   4.663   4.638   5.582  0.1859  0.7820 -0.4631
  227MOL    C1445666   4.566   4.692   5.690 -0.1542  0.1124 -0.4563
  227MOL    O1545667   4.598   4.783   5.764  0.5574  0.2834  0.0962
  227MOL    N1645668   4.450   4.630   5.706 -0.0465  0.4198 -0.7340
  227MOL    H1745669   4.596   4.778   5.443  1.7599 -0.0468 -1.6055
  227MOL    H1845670   4.722   4.844   5.531  0.2720 -0.8129  2.4396
  227MOL    H1945671   4.615   4.557   5.526 -0.8564 -0.3954  2.0637
  227MOL    H2045672   4.381   4.659   5.774  1.2618 -1.5421  1.5105
  227MOL    H2145673   4.410   4.564   5.641 -2.9803  0.9830  0.4473
  227MOL    C2245674   4.792   4.583   5.649  0.1033 -0.1031  0.1352
  227MOL    C2345675   4.788   4.428   5.692  0.2745 -0.3084 -0.0840
  227MOL    C2445676   4.703   4.409   5.818  0.2623  0.2781 -0.5335
  227MOL    O2545677   4.751   4.421   5.929  0.3753 -0.6914  0.5625
  227MOL    N2645678   4.575   4.371   5.806  0.3617 -0.0691 -0.0554
  227MOL    H2745679   4.822   4.639   5.737  0.3209 -0.1659  0.1029
  227MOL    H2845680   4.872   4.590   5.575 -0.3623 -1.0135 -0.4605
  227MOL    H2945681   4.741   4.369   5.614 -1.1174 -0.7054  1.0283
  227MOL    H3045682   4.523   4.352   5.721 -1.8878  2.0837  0.7741
  227MOL    H3145683   4.524   4.387   5.892  1.6807  1.2616  0.5036
  227MOL    C3245684   4.927   4.364   5.710  0.6141  0.9665  0.0706
  227MOL    C3345685   5.034   4.365   5.600 -0.2162  0.1509  0.9980
  227MOL    C3445686   4.985   4.281   5.476 -0.1505  0.1135  0.1986
  227MOL    O3545687   4.902   4.190   5.488 -0.0427 -0.0058 -0.1555
  227MOL    N3645688   5.044   4.304   5.359 -0.5327  0.7285 -0.3619
  227MOL    H3745689   4.913   4.267   5.757 -0.9210  1.1261 -0.0315
  227MOL    H3845690   4.974   4.422   5.789  2.8343  2.3595 -2.2018
  227MOL    H3945691   5.050   4.469   5.570  1.4161 -0.3432  0.0927
  227MOL    H4045692   5.014   4.262   5.273 -2.0427 -1.0378  0.9652
  227MOL    H4145693   5.121   4.369   5.355  0.0030  0.0385 -1.4696
  227MOL    C4245694   5.179   4.319   5.639  0.0571 -0.3028  0.2359
  227MOL    C4345695   5.189   4.189   5.715  0.0773  0.3402 -0.1481
  227MOL    C4445696   5.171   4.208   5.867  0.4149 -0.1117 -0.3110
  227MOL    O4545697   5.145   4.320   5.916 -0.3547  0.4316 -0.5224
  227MOL    N4645698   5.186   4.105   5.949 -0.5216 -0.2861 -0.4542
  227MOL    H4745699   5.213   4.404   5.699 -0.4283  0.0424  0.0216
  227MOL    H4845700   5.231   4.319   5.543 -0.2918  0.5233  0.0386
  227MOL    H4945701   5.097   4.140   5.682 -1.5133  3.5508 -0.6597
  227MOL    H5045702   5.190   4.012   5.912 -1.5949 -0.4664 -0.1470
  227MOL    H5145703   5.158   4.115   6.046  0.7054 -0.0781 -0.1160
  227MOL    C5245704   5.319   4.103   5.679 -0.1516 -0.0804 -0.5588
  227MOL    C5345705   5.452   4.135   5.746 -0.1880 -0.7392  0.5143
  227MOL    C5445706   5.506   4.247   5.664 -0.2928 -0.0265  0.4545
  227MOL    O5545707   5.570   4.232   5.558  0.1445  0.5540  0.3158
  227MOL    N5645708   5.498   4.370   5.722 -0.2210 -0.3386  0.4274
  227MOL    H5745709   5.334   4.118   5.572 -1.9945 -0.0010 -0.8172
  227MOL    H5845710   5.293   3.998   5.697 -0.8190  0.3769  1.1907
  227MOL    H5945711   5.432   4.180   5.844 -1.8057  0.4487 -0.3317
  227MOL    H6045712   5.462   4.374   5.816  0.1888  2.6954  0.4849
  227MOL    H6145713   5.554   4.448   5.691 -0.7575  1.1982  3.1756
  227MOL    C6245714   5.554   4.019   5.749 -0.2268 -0.1121  0.5094
  227MOL    C6345715   5.695   4.053   5.808  0.1434 -0.2049 -0.2222
  227MOL    C6445716   5.802   3.960   5.758 -0.0162  0.2960  0.1007
  227MOL    O6545717   5.832   3.864   5.820  0.3052  0.2286 -0.1848
  227MOL    N6645718   5.865   3.996   5.647 -0.1610 -0.5725 -0.3767
  227MOL    H6745719   5.565   3.968   5.653 -4.5655 -1.0893  0.4321
  227MOL    H6845720   5.525   3.937   5.814  0.5109 -1.0147 -0.2829
  227MOL    H6945721   5.714   4.154   5.771 -0.2889 -0.0823 -0.1175
  227MOL    H7045722   5.821   4.071   5.595  0.0887 -0.1235  0.0500
  227MOL    H7145723   5.949   3.952   5.612 -0.6676 -1.0436 -1.0183
  227MOL    C7245724   5.699   4.076   5.956 -0.5851  0.8454  0.1650
  227MOL    C7345725   5.820   4.149   6.025 -0.3435 -0.3645  0.8791
  227MOL    C7445726   5.786   4.186   6.169 -0.8933  0.6138 -0.2857
  227MOL    O7545727   5.836   4.120   6.267  0.7847  1.0091  0.0104
  227MOL    N7645728   5.695   4.281   6.181 -0.3669 -1.0420  0.3397
  227MOL    H7745729   5.681   3.977   5.996  0.1363  0.7982  0.3767
  227MOL    H7845730   5.607   4.121   5.993 -0.9576  0.6123 -0.4670
  227MOL    H7945731   5.893   4.069   6.032 -0.7780 -0.8805 -0.3033
  227MOL    H8045732   5.628   4.299   6.254  1.3789 -0.2745  1.7904
  227MOL    H8145733   5.668   4.319   6.091  1.4900  1.7619  0.8942
  227MOL    C8245734   5.894   4.269   5.947 -0.3447  0.1294 -0.0866
  227MOL    C8345735   6.005   4.348   6.024 -0.4303 -0.4120 -0.5471
  227MOL    C8445736   6.036   4.485   5.956  0.6719 -0.1681  0.3083
  227MOL    O8545737   6.061   4.494   5.836 -0.6352  0.4326 -0.1707
  227MOL    N8645738   6.024   4.594   6.029  0.0585  0.3013  0.0392
  227MOL    H8745739   5.813   4.337   5.921 -0.2753 -0.6063 -2.3478
  227MOL    H8845740   5.936   4.226   5.856  1.5792  2.2716 -0.2449
  227MOL    H8945741   5.965   4.371   6.123 -1.4273 -0.4176 -0.9387
  227MOL    H9045742   6.010   4.679   5.977 -1.2463  0.2777  0.3319
  227MOL    H9145743   6.014   4.582   6.129 -0.1214  0.4187  0.0336
  227MOL    C9245744   6.137   4.258   6.035 -0.7700 -0.1771 -0.0403
  227MOL    C9345745   6.248   4.304   6.135 -0.4393 -0.2813  0.4522
  227MOL    C9445746   6.191   4.347   6.270  0.0717 -0.0296  0.0205
  227MOL    O9545747   6.136   4.454   6.285  0.0508  0.3313  0.1816
  227MOL    N9645748   6.219   4.277   6.380  0.1704 -0.8723  0.6464
  227MOL    H9745749   6.175   4.242   5.934  1.4130  2.1939  0.3809
  227MOL    H9845750   6.100   4.164   6.076 -2.0852 -0.0045 -0.7985
  227MOL    H9945751   6.303   4.211   6.151 -1.0810 -1.2101 -2.3672
  227MOL   H10045752   6.208   4.317   6.472  0.0242  1.3774 -0.3120
  227MOL   H10145753   6.257   4.184   6.369 -1.5326 -1.4887 -0.2455
  227MOL   C10245754   6.345   4.411   6.082  0.1738 -0.2497  0.4496
  227MOL   C10345755   6.493   4.397   6.112 -0.0229  0.0381 -0.2231
  227MOL   C10445756   6.523   4.438   6.259  0.4067  0.6460  0.1524
  227MOL   O10545757   6.497   4.551   6.304  0.6421  0.0400 -0.5936
  227MOL   N10645758   6.583   4.347   6.336 -0.1158  0.1449 -0.1030
  227MOL   H10745759   6.301   4.508   6.108 -0.5816 -0.4764  0.0560
  227MOL   H10845760   6.339   4.398   5.974 -1.8976 -1.7021  0.7088
  227MOL   H10945761   6.522   4.295   6.088 -1.6076 -0.0308 -1.9907
  227MOL   H11045762   6.586   4.249   6.309  0.3338 -0.2189  1.2596
  227MOL   H11145763   6.590   4.367   6.434  2.3061 -2.2722  0.2877
  227MOL   C11245764   6.566   4.503   6.023  0.0525 -1.2278 -0.2256
  227MOL   C11345765   6.725   4.507   6.013  0.2858  0.0488  0.5493
  227MOL   C11445766   6.788   4.363   6.000 -0.1040 -0.6413  0.5274
  227MOL   O11545767   6.821   4.314   5.894  0.1185 -0.4480  0.2272
  227MOL   N11645768   6.795   4.296   6.110  0.2494 -0.2635 -0.1626
  227MOL   H11745769   6.552   4.608   6.051  0.1854 -1.2072 -0.2345
  227MOL   H11845770   6.536   4.505   5.919  0.2019  0.3805 -0.2591
  227MOL   H11945771   6.753   4.561   5.923 -1.4649  0.0814  0.0104
  227MOL   H12045772   6.756   4.336   6.194 -1.3650 -0.4573 -0.8001
  227MOL   H12145773   6.823   4.199   6.106  1.9715  0.2537 -1.3579
  227MOL   C12245774   6.793   4.589   6.128  0.3666  0.1788  0.5794
  227MOL   C12345775   6.929   4.649   6.083  0.5222 -0.1259 -0.2925
  227MOL   C12445776   7.027   4.538   6.049  0.3809  0.4836 -0.1574
  227MOL   O12545777   7.064   4.456   6.130 -0.4845 -0.2051 -0.0321
  227MOL   N12645778   7.067   4.533   5.921 -0.0244  0.1154  0.4468
  227MOL   H12745779   6.821   4.525   6.211  0.4225 -0.3633  0.1458
  227MOL   H12845780   6.724   4.670   6.151 -0.5885 -0.0248 -1.3951
  227MOL   H12945781   6.913   4.705   5.991  0.4589 -0.7900 -0.6894
  227MOL   H13045782   7.026   4.600   5.858 -1.9979 -0.4944  1.0536
  227MOL   H13145783   7.143   4.477   5.885  0.2141  0.2847  0.6808
  227MOL   C13245784   6.986   4.750   6.190  0.7316 -0.3472 -0.2608
  227MOL   C13345785   7.100   4.836   6.126 -0.4442 -0.5825  0.1843
  227MOL   C13445786   7.235   4.766   6.125  0.0450  0.3357  0.0176
  227MOL   O13545787   7.287   4.749   6.235  0.0054  0.2272 -0.6335
  227MOL   N13645788   7.289   4.724   6.011  0.4130 -0.3804 -0.2782
  227MOL   H13745789   7.022   4.689   6.273  1.9763 -1.5676 -1.6665
  227MOL   H13845790   6.907   4.815   6.228  1.1077 -0.2970  0.4451
  227MOL   H13945791   7.067   4.838   6.022  1.7879 -0.6184 -0.5550
  227MOL   H14045792   7.377   4.677   6.029 -0.6327 -2.1176  0.3167
  227MOL   H14145793   7.239   4.728   5.923  2.5726 -0.8676 -1.5945
  227MOL   C14245794   7.108   4.982   6.165  0.2340 -0.7345 -0.4565
  227MOL   C14345795   7.081   5.016   6.316 -0.3925  0.4149  0.9582
  227MOL   C14445796   6.953   5.099   6.343  0.2024  0.3779 -0.6992
  227MOL   O14545797   6.964   5.222   6.316  0.5641 -0.1217 -0.2083
  227MOL   N14645798   6.846   5.039   6.392  0.1790  0.0291 -0.1898
  227MOL   H14745799   7.050   5.053   6.106  1.9172  1.0174 -0.0867
  227MOL   H14845800   7.211   5.014   6.146  0.2229 -0.1552  0.3926
  227MOL   H14945801   7.077   4.924   6.374 -0.8694  1.0379  1.9270
  227MOL   H15045802   6.770   5.105   6.389 -0.5001 -0.7573 -0.4456
  227MOL   H15145803   6.849   4.945   6.430 -1.5558  0.4048  0.9157
  227MOL   C15245804   7.198   5.093   6.388  0.0465  0.7855  0.0789
  227MOL   C15345805   7.321   5.007   6.426 -0.0266  0.1994 -0.0851
  227MOL   C15445806   7.274   4.918   6.540  0.2434  0.2829  0.2579
  227MOL   O15545807   7.255   4.967   6.648 -0.1485 -0.2405  0.1021
  227MOL   N15645808   7.263   4.787   6.517  0.6740  0.1258 -0.2015
  227MOL   H15745809   7.167   5.140   6.482  0.1898  1.2280 -0.0905
  227MOL   H15845810   7.233   5.172   6.321 -1.2162  1.6313  0.3893
  227MOL   H15945811   7.351   4.950   6.338  0.5953 -0.7035  0.7030
  227MOL   H16045812   7.237   4.718   6.586  2.2011  1.0378  1.3245
  227MOL   H16145813   7.279   4.752   6.424  1.0905 -0.0400 -0.0688
  227MOL   C16245814   7.430   5.104   6.476 -0.2192  0.2289  0.8770
  227MOL   C16345815   7.577   5.053   6.509 -0.1223 -0.0245  0.5849
  227MOL   C16445816   7.633   4.967   6.399 -0.2018  0.2409  0.2985
  227MOL   O16545817   7.614   4.845   6.390  0.2690 -0.2151  0.0666
  227MOL   N16645818   0.053   5.030   6.308 -0.6745 -0.0420 -0.1114
  227MOL   H16745819   7.396   5.175   6.551  1.0662  0.1112  1.5790
  227MOL   H16845820   7.428   5.175   6.393 -0.5411 -0.4089  0.3319
  227MOL   H16945821   7.633   5.146   6.505  0.0424 -0.1667 -1.1979
  227MOL   H17045822   0.065   5.130   6.311  2.1453 -0.3286 -0.8275
  227MOL   H17145823   0.086   4.980   6.227 -0.8038  1.6128 -1.2023
  227MOL   C17245824   7.585   4.970   6.642 -0.9053 -0.4845  0.1289
  227MOL   C17345825   7.549   5.049   6.767 -0.5239  0.5713  0.2204
  227MOL   C17445826   0.000   5.153   6.797 -1.0790  0.3415 -0.2758
  227MOL   O17545827   0.103   5.127   6.853  0.0833 -0.3022 -0.3978
  227MOL   N17645828   7.637   5.277   6.761  0.4657  0.3488  0.5868
  227MOL   H17745829   0.032   4.938   6.652 -0.6495 -1.2108 -4.0338
  227MOL   H17845830   7.522   4.882   6.634 -0.6102 -0.4080 -4.6122
  227MOL   H17945831   7.453   5.099   6.759 -0.6074 -0.0330 -2.8148
  227MOL   H18045832   7.547   5.317   6.740  1.1491  0.6363 -2.1266
  227MOL   H18145833   0.053   5.348   6.757  0.3284  0.5825  2.2327
  227MOL   C18245834   7.512   4.952   6.887  0.2549  0.7723 -0.1140
  227MOL   C18345835   7.515   5.006   7.031  1.2577 -0.0154  0.4066
  227MOL   C18445836   7.481   4.902   7.135  0.6548  0.8074  0.3550
  227MOL   O18545837   7.367   4.849   7.135  0.6814  0.2989  0.4622
  227MOL   N18645838   7.570   4.862   7.225 -0.2017 -0.6304  0.1974
  227MOL   H18745839   7.589   4.876   6.877 -1.8183 -1.3831 -0.1834
  227MOL   H18845840   7.419   4.901   6.862  1.2656 -0.4036 -1.5164
  227MOL   H18945841   7.617   5.045   7.035  0.5814  1.7130  1.3263
  227MOL   H19045842   0.009   4.893   7.214 -0.5435  0.1718 -0.5442
  227MOL   H19145843   7.553   4.775   7.272 -1.2963 -1.0252 -0.9005
  227MOL   C19245844   7.408   5.118   7.048  0.7980 -0.2674 -0.6460
  227MOL   C19345845   7.450   5.248   7.120 -0.5354 -0.5883  0.0715
  227MOL   C19445846   7.329   5.353   7.112  0.3170 -0.5382  1.3292
  227MOL   O19545847   7.267   5.384   7.213  0.7329  0.1749 -0.0650
  227MOL   N19645848   7.296   5.410   6.997 -0.3159  0.0612 -0.4196
  227MOL   H19745849   7.321   5.087   7.106  2.5390  1.2263  2.9066
  227MOL   H19845850   7.377   5.148   6.948 -1.7183 -3.8785 -1.0486
  227MOL   H19945851   7.477   5.230   7.224  0.5386  1.4801  0.1738
  227MOL   H20045852   7.354   5.401   6.915 -1.2243  1.2997 -1.2297
  227MOL   H20145853   7.220   5.475   6.978  0.2465  1.0011  0.5020
  227MOL   H20245854   7.542   5.281   7.072  0.1171 -0.2144  1.5385
  228MOL     C145855   0.894   4.412   4.481 -0.5188 -0.3604  0.3979
  228MOL     C245856   0.989   4.427   4.596 -0.9925  0.0721  0.0467
  228MOL     C345857   1.045   4.295   4.650 -0.3495 -0.1487 -0.3471
  228MOL     O445858   0.998   4.187   4.616 -0.0146 -0.0078  0.1043
  228MOL     N545859   1.127   4.302   4.755 -0.1457  0.4336  0.1800
  228MOL     H645860   0.851   4.501   4.436  1.5017 -1.2969 -3.6232
  228MOL     H745861   0.944   4.359   4.399  0.1458  1.2717 -0.2824
  228MOL     H845862   1.079   4.469   4.552 -0.8935  0.5737  0.7283
  228MOL     H945863   1.137   4.393   4.799  0.6419  0.9828 -1.0958
  228MOL    H1045864   1.153   4.216   4.800  2.2378 -0.3974 -2.5707
  228MOL    H1145865   0.807   4.357   4.517 -1.1424 -0.8108 -1.6894
  228MOL    C1245866   0.946   4.518   4.705  0.1976 -0.7564  0.1893
  228MOL    C1345867   0.910   4.663   4.655  1.0123 -0.2814  0.8925
  228MOL    C1445868   1.031   4.732   4.587  0.4583  0.4321  0.6789
  228MOL    O1545869   1.110   4.801   4.645 -0.0957 -0.1290 -0.2252
  228MOL    N1645870   1.046   4.722   4.458 -0.5632 -0.1475 -0.2948
  228MOL    H1745871   1.015   4.524   4.789 -0.2883  1.0960  0.4815
  228MOL    H1845872   0.854   4.473   4.743 -0.6508 -0.3227 -1.3136
  228MOL    H1945873   0.835   4.651   4.577  0.4560  0.8383  1.2431
  228MOL    H2045874   0.986   4.665   4.401 -0.0409  1.1776 -2.2367
  228MOL    H2145875   1.125   4.755   4.404 -1.6136  1.2365 -1.0313
  228MOL    C2245876   0.842   4.746   4.769 -0.3119  0.0752 -0.1394
  228MOL    C2345877   0.811   4.896   4.735  0.5252 -0.7103 -0.9009
  228MOL    C2445878   0.892   4.997   4.822  0.7875  0.3973 -0.0795
  228MOL    O2545879   0.830   5.078   4.894 -0.0740  0.6297 -0.2694
  228MOL    N2645880   1.027   4.987   4.818  0.1002  0.7642 -0.8389
  228MOL    H2745881   0.901   4.748   4.861 -2.2032  1.4774  1.0694
  228MOL    H2845882   0.753   4.686   4.786  0.1749 -1.1137 -1.5890
  228MOL    H2945883   0.845   4.928   4.636 -0.2325 -0.1894 -0.9954
  228MOL    H3045884   1.065   4.930   4.743  1.4697  0.4698  0.0654
  228MOL    H3145885   1.082   5.055   4.867 -1.1222  0.3921  1.1026
  228MOL    C3245886   0.658   4.928   4.741 -0.0388 -0.5721  0.3557
  228MOL    C3345887   0.561   4.852   4.647  0.7543 -0.2356 -0.7819
  228MOL    C3445888   0.604   4.834   4.498 -0.9535 -0.2378 -0.3339
  228MOL    O3545889   0.653   4.927   4.435  0.3196  0.2875 -0.5671
  228MOL    N3645890   0.602   4.710   4.446  0.2791  0.3253  0.4863
  228MOL    H3745891   0.653   5.034   4.717  2.6597 -0.8034 -1.4636
  228MOL    H3845892   0.619   4.916   4.842  0.5014 -0.9877  0.5216
  228MOL    H3945893   0.550   4.748   4.678  2.5288 -0.4400 -0.7556
  228MOL    H4045894   0.546   4.644   4.497  1.5901  0.5826  2.3370
  228MOL    H4145895   0.626   4.690   4.350 -0.9838 -2.3455  0.7131
  228MOL    C4245896   0.425   4.934   4.662 -0.3836  0.2909 -0.5226
  228MOL    C4345897   0.308   4.890   4.568 -0.0231 -0.6795  0.2576
  228MOL    C4445898   0.300   4.985   4.448 -0.0397  0.3615  0.5275
  228MOL    O4545899   0.305   5.110   4.463 -0.0725 -0.2446  0.9056
  228MOL    N4645900   0.280   4.942   4.320  0.4457  0.1677  0.2548
  228MOL    H4745901   0.454   5.036   4.637 -2.9190  1.9643  2.9743
  228MOL    H4845902   0.399   4.943   4.767 -2.6894  0.0187 -1.0353
  228MOL    H4945903   0.334   4.789   4.539  2.4430 -0.0638  0.2417
  228MOL    H5045904   0.233   5.007   4.259  2.0278  0.1722 -0.9924
  228MOL    H5145905   0.276   4.845   4.291 -0.5674  0.6558 -1.2570
  228MOL    C5245906   0.167   4.907   4.630  0.0437  0.1980 -0.6119
  228MOL    C5345907   0.105   4.787   4.710  0.5203  0.3198  0.9135
  228MOL    C5445908   0.100   4.664   4.613 -0.3409 -0.4049  0.2326
  228MOL    O5545909   0.130   4.550   4.648  0.5723 -0.2873 -0.1705
  228MOL    N5645910   0.050   4.675   4.489  0.3358  0.2990 -0.3343
  228MOL    H5745911   0.085   4.956   4.577 -0.3182 -0.9727 -1.1371
  228MOL    H5845912   0.186   4.985   4.704  1.1663 -0.4206 -0.2374
  228MOL    H5945913   0.176   4.761   4.788  0.2630 -2.7663  0.1908
  228MOL    H6045914   0.014   4.767   4.466  0.8401  1.0047  1.6119
  228MOL    H6145915   0.048   4.599   4.423 -1.7034 -0.9207  1.0744
  228MOL    C6245916   7.623   4.814   4.767 -0.4522 -0.1903  0.4117
  228MOL    C6345917   7.558   4.691   4.848 -0.3682 -0.2639 -0.3431
  228MOL    C6445918   7.416   4.643   4.804  0.4043  0.8893  0.3431
  228MOL    O6545919   7.314   4.701   4.834 -0.5506 -0.0727 -0.1717
  228MOL    N6645920   7.402   4.530   4.727  0.2170  0.6190  0.2564
  228MOL    H6745921   7.551   4.837   4.687 -0.9066  0.2991  0.9576
  228MOL    H6845922   7.620   4.906   4.824 -0.5827  0.0086  0.0859
  228MOL    H6945923   7.623   4.604   4.851 -1.2151 -0.8722  0.4911
  228MOL    H7045924   7.482   4.485   4.685  0.0321  1.5354 -1.1038
  228MOL    H7145925   7.311   4.487   4.718  1.1621 -1.8472  1.8397
  228MOL    C7245926   7.533   4.740   4.998 -0.0100 -0.0845 -1.3860
  228MOL    C7345927   7.497   4.640   5.107  0.1171  0.3916 -0.0902
  228MOL    C7445928   7.446   4.711   5.236  0.4622  0.0601  0.3034
  228MOL    O7545929   7.519   4.794   5.289 -0.2534 -0.3226 -0.5553
  228MOL    N7645930   7.321   4.687   5.269  0.4362  0.3608 -0.2417
  228MOL    H7745931   7.455   4.816   4.999 -0.4981 -0.5733 -1.9872
  228MOL    H7845932   7.619   4.800   5.028 -0.5204 -0.5268  1.0285
  228MOL    H7945933   7.414   4.579   5.072 -0.2802  0.7945  0.1557
  228MOL    H8045934   7.276   4.735   5.346  2.5257 -1.7502  2.3763
  228MOL    H8145935   7.272   4.617   5.216 -0.3342 -0.4315  1.4843
  228MOL    C8245936   7.622   4.555   5.141 -0.1047 -0.6610 -0.2249
  228MOL    C8345937   7.605   4.463   5.265 -0.3202  0.1192  0.1744
  228MOL    C8445938   0.095   4.440   5.311  0.5327 -0.1709 -0.0579
  228MOL    O8545939   0.136   4.523   5.387 -0.3929  0.0342  0.1506
  228MOL    N8645940   0.156   4.326   5.273 -0.1087 -0.7154  0.2620
  228MOL    H8745941   0.045   4.623   5.169  0.3802 -0.7168 -1.4393
  228MOL    H8845942   7.656   4.502   5.052 -0.9704 -2.3855  0.4446
  228MOL    H8945943   7.564   4.515   5.352 -1.0129 -0.8512  0.4379
  228MOL    H9045944   0.245   4.299   5.313  1.3464  1.1759 -1.6018
  228MOL    H9145945   0.094   4.260   5.228  1.0008 -0.7044 -1.3095
  228MOL    C9245946   7.516   4.337   5.243 -0.6819  0.2778  0.0594
  228MOL    C9345947   7.490   4.261   5.383  0.5403 -0.2390 -0.5638
  228MOL    C9445948   7.439   4.119   5.345 -0.6068  0.3642  0.5199
  228MOL    O9545949   7.314   4.093   5.340  0.1399 -0.0285  0.1683
  228MOL    N9645950   7.530   4.026   5.310 -0.6555 -0.3001 -0.8220
  228MOL    H9745951   7.578   4.280   5.173  0.9637 -0.6197  2.2113
  228MOL    H9845952   7.422   4.348   5.189 -0.7344  0.3882  0.1735
  228MOL    H9945953   7.589   4.251   5.428  0.2193 -1.7570 -0.1650
  228MOL   H10045954   7.627   4.030   5.338 -0.9436 -3.3544  0.9138
  228MOL   H10145955   7.490   3.955   5.249 -2.4985 -0.0988  0.1122
  228MOL   C10245956   7.380   4.345   5.462 -0.3209 -0.0903 -0.0842
  228MOL   C10345957   7.334   4.283   5.600 -0.8707 -0.9324  0.0410
  228MOL   C10445958   7.201   4.349   5.645  0.4671  0.6510  0.1848
  228MOL   O10545959   7.192   4.468   5.644  0.0462 -0.1401 -0.0721
  228MOL   N10645960   7.107   4.268   5.704  0.4019 -0.2193 -0.6930
  228MOL   H10745961   7.295   4.345   5.393 -0.1563 -3.0075 -0.3688
  228MOL   H10845962   7.401   4.451   5.475  3.6299 -0.8682  0.4987
  228MOL   H10945963   7.332   4.176   5.582 -1.2959 -0.6834 -1.4896
  228MOL   H11045964   7.021   4.306   5.740  0.5449 -0.4705 -0.0751
  228MOL   H11145965   7.122   4.169   5.692  0.4755 -0.1167 -1.4408
  228MOL   C11245966   7.437   4.313   5.711  0.2904 -0.0732 -0.1948
  228MOL   C11345967   7.418   4.248   5.850 -0.1626  0.1142  1.0883
  228MOL   C11445968   7.355   4.339   5.952 -0.1119  0.2280  0.0440
  228MOL   O11545969   7.403   4.446   5.978  0.2573  0.3064 -0.0725
  228MOL   N11645970   7.242   4.298   6.000 -0.0309 -0.2702 -0.1914
  228MOL   H11745971   7.421   4.420   5.724  0.1029 -0.1093 -0.1231
  228MOL   H11845972   7.540   4.301   5.679  0.5978  1.8374  0.0452
  228MOL   H11945973   7.342   4.170   5.842  0.4170 -0.4193  0.7000
  228MOL   H12045974   7.207   4.204   5.987  0.9124 -0.5435 -0.8433
  228MOL   H12145975   7.188   4.366   6.050 -2.5309 -0.7139 -2.1334
  228MOL   C12245976   7.546   4.180   5.908 -0.0344 -0.1810  0.1420
  228MOL   C12345977   7.596   4.056   5.835  0.1212 -0.1524 -0.1251
  228MOL   C12445978   7.508   3.938   5.881  0.0296 -0.1417 -0.1910
  228MOL   O12545979   7.448   3.936   5.989 -0.1337 -0.5903 -0.2744
  228MOL   N12645980   7.473   3.846   5.795 -0.2321 -0.8923  0.1761
  228MOL   H12745981   7.516   4.167   6.012 -3.3436 -1.3778 -0.9106
  228MOL   H12845982   7.626   4.253   5.902 -0.1518 -0.1054 -0.5923
  228MOL   H12945983   7.587   4.085   5.730 -0.3231 -0.7000 -0.2417
  228MOL   H13045984   7.507   3.849   5.701 -0.6611 -0.8501  0.0192
  228MOL   H13145985   7.399   3.781   5.817 -0.1232 -1.3247 -0.7349
  228MOL   C13245986   0.082   4.014   5.855  0.7663 -0.5353 -0.0905
  228MOL   C13345987   0.188   4.109   5.794 -0.9166  0.0135  0.0421
  228MOL   C13445988   0.191   4.122   5.643  0.7283  0.0477 -0.2602
  228MOL   O13545989   0.220   4.025   5.570 -0.2425  0.1010  0.2733
  228MOL   N13645990   0.172   4.240   5.581 -0.3205  0.8089  0.6201
  228MOL   H13745991   0.098   3.914   5.814 -0.9597  0.4915 -3.4769
  228MOL   H13845992   0.097   4.006   5.963 -1.5273 -0.1064  0.2822
  228MOL   H13945993   0.178   4.211   5.832  3.4693  0.4984  0.1299
  228MOL   H14045994   0.153   4.323   5.636 -0.9054  2.4224 -1.9367
  228MOL   H14145995   0.211   4.237   5.488 -2.6098  0.7214 -0.3597
  228MOL   C14245996   0.326   4.070   5.862 -0.4570  1.1450 -0.1768
  228MOL   C14345997   0.428   4.190   5.862 -0.6317  0.5632 -0.5747
  228MOL   C14445998   0.505   4.201   5.728  0.5874  0.3377  0.2011
  228MOL   O14545999   0.583   4.113   5.692 -0.2572  0.1823 -0.3296
  228MOL   N14646000   0.487   4.309   5.658 -0.2244  0.2708  0.0911
  228MOL   H14746001   0.382   3.988   5.816 -0.9244  0.3619  0.6491
  228MOL   H14846002   0.304   4.033   5.962  0.5653  1.4838  0.1817
  228MOL   H14946003   0.376   4.278   5.898  1.0776  0.7347  1.5997
  228MOL   H15046004   0.408   4.364   5.689  0.2079  0.9537 -0.0066
  228MOL   H15146005   0.521   4.332   5.566 -0.0248 -0.8581 -0.1238
  228MOL   C15246006   0.532   4.163   5.980  0.0173  0.3080 -0.5149
  228MOL   C15346007   0.600   4.301   6.033  0.1944  0.5853 -0.0157
  228MOL   C15446008   0.723   4.333   5.951 -0.3628  0.5511  0.2764
  228MOL   O15546009   0.831   4.268   5.961 -0.4434  0.4865  0.8848
  228MOL   N15646010   0.711   4.429   5.855 -0.2708  0.2287 -0.1425
  228MOL   H15746011   0.600   4.084   5.948 -0.7820 -0.9596  0.8187
  228MOL   H15846012   0.484   4.118   6.067 -2.6365  1.5480 -1.2947
  228MOL   H15946013   0.537   4.387   6.013  0.3389  0.9977  1.2733
  228MOL   H16046014   0.615   4.453   5.833 -1.1347 -1.2934  1.7491
  228MOL   H16146015   0.787   4.469   5.802 -0.6732 -1.0935 -1.7327
  228MOL   C16246016   0.638   4.298   6.185 -0.1206 -0.1015 -0.0672
  228MOL   C16346017   0.528   4.298   6.291 -0.0067  0.5898 -0.1341
  228MOL   C16446018   0.384   4.334   6.250  0.3129  0.2425 -0.1160
  228MOL   O16546019   0.346   4.450   6.249  0.5252 -0.1892 -0.2700
  228MOL   N16646020   0.307   4.239   6.203 -0.4164  0.1708 -0.0665
  228MOL   H16746021   0.703   4.383   6.210 -1.3681  0.9493 -0.3615
  228MOL   H16846022   0.699   4.208   6.196 -1.9435 -1.3609 -0.2129
  228MOL   H16946023   0.539   4.194   6.320  2.2262  0.9397  0.3719
  228MOL   H17046024   0.344   4.146   6.214 -0.1872  0.2716  0.0207
  228MOL   H17146025   0.211   4.257   6.175 -0.0740  2.4289  0.0957
  228MOL   C17246026   0.574   4.381   6.413 -0.0212 -0.1395 -0.5785
  228MOL   C17346027   0.704   4.322   6.487  0.3030  0.0154 -0.9832
  228MOL   C17446028   0.657   4.204   6.578 -0.8478 -0.1965  0.4375
  228MOL   O17546029   0.552   4.207   6.639 -0.5403  0.8966 -0.2474
  228MOL   N17646030   0.743   4.110   6.614 -0.3811  0.1150  0.0995
  228MOL   H17746031   0.492   4.392   6.484  1.4186  0.1940  1.0664
  228MOL   H17846032   0.604   4.479   6.376 -1.3350 -0.4458 -2.4954
  228MOL   H17946033   0.782   4.286   6.420  0.2360 -0.0190 -1.0421
  228MOL   H18046034   0.834   4.105   6.569 -0.6001 -2.7004 -0.0917
  228MOL   H18146035   0.719   4.039   6.681  1.2042  0.4320  1.0549
  228MOL   C18246036   0.763   4.437   6.576 -0.2289 -1.0771 -0.3040
  228MOL   C18346037   0.875   4.525   6.505 -0.3609 -0.1181 -0.3882
  228MOL   C18446038   1.000   4.450   6.461  0.3592 -0.0868 -0.2565
  228MOL   O18546039   1.078   4.403   6.545 -0.0735  0.0609  0.5190
  228MOL   N18646040   1.022   4.443   6.331  0.4588 -0.0985  0.7576
  228MOL   H18746041   0.804   4.391   6.666  0.5102  0.0985 -0.0390
  228MOL   H18846042   0.687   4.504   6.615 -0.8934 -1.7303 -0.4629
  228MOL   H18946043   0.826   4.566   6.417 -0.1678  0.5296 -0.1972
  228MOL   H19046044   0.954   4.488   6.271  0.7237 -0.7540 -0.0461
  228MOL   H19146045   1.107   4.402   6.297  0.7145 -0.1032  1.3961
  228MOL   C19246046   0.915   4.654   6.579 -0.4300 -0.6971  0.4307
  228MOL   C19346047   0.960   4.765   6.482 -0.1985  0.8842  0.3106
  228MOL   C19446048   0.993   4.897   6.545  0.2396  0.1863 -0.3509
  228MOL   O19546049   0.904   4.968   6.595  0.2182  0.4467  0.3442
  228MOL   N19646050   1.116   4.934   6.538 -0.0166  0.4979 -0.2790
  228MOL   H19746051   0.979   4.629   6.664 -2.0685  0.4936  2.0584
  228MOL   H19846052   0.824   4.691   6.625  0.5235  0.9902  1.0294
  228MOL   H19946053   1.042   4.714   6.431 -0.3264  0.9522  0.0372
  228MOL   H20046054   1.189   4.873   6.505  0.5730 -0.0316  1.9349
  228MOL   H20146055   1.144   5.015   6.592  0.1313 -0.4439  1.0592
  228MOL   H20246056   0.885   4.790   6.407  1.4023  0.2469 -1.5577
  229MOL     C146057   5.760   1.482   2.355  0.6155  0.9898 -0.1963
  229MOL     C246058   5.766   1.327   2.340  0.6743  0.1617  0.0648
  229MOL     C346059   5.790   1.263   2.488  1.0528  0.8042 -0.4053
  229MOL     O446060   5.825   1.328   2.582  0.4020  0.0079  0.2544
  229MOL     N546061   5.748   1.135   2.505  0.3442 -0.2733  0.1244
  229MOL     H646062   5.850   1.534   2.387  0.5720 -0.0083  1.6027
  229MOL     H746063   5.725   1.531   2.264 -1.0836 -2.4518 -1.5011
  229MOL     H846064   5.669   1.291   2.308  0.1689  2.2166 -0.7926
  229MOL     H946065   5.716   1.104   2.596 -1.2676 -0.6401 -0.5499
  229MOL    H1046066   5.713   1.077   2.431 -0.4605  0.7821 -0.3338
  229MOL    H1146067   5.692   1.501   2.438 -1.0228  1.1062 -1.5445
  229MOL    C1246068   5.861   1.291   2.227  0.4261 -0.8175  0.0475
  229MOL    C1346069   5.802   1.192   2.123 -0.0993 -0.0199  0.6551
  229MOL    C1446070   5.788   1.053   2.165  0.2667  0.6212  1.0601
  229MOL    O1546071   5.686   1.024   2.232  0.1499 -0.1515  0.3061
  229MOL    N1646072   5.885   0.961   2.136  0.0964 -0.0840  0.2536
  229MOL    H1746073   5.946   1.241   2.272  2.6578  1.2560 -1.7166
  229MOL    H1846074   5.898   1.383   2.181  1.6065  0.4238  3.2953
  229MOL    H1946075   5.700   1.228   2.108  0.3173  0.6874 -0.5655
  229MOL    H2046076   5.961   0.979   2.072 -0.9746  0.0297 -1.0017
  229MOL    H2146077   5.863   0.866   2.165  1.5652 -0.6028 -0.2607
  229MOL    C2246078   5.865   1.213   1.979 -0.1852  0.0408  0.1800
  229MOL    C2346079   5.845   1.349   1.899  0.2182 -0.9335 -0.5126
  229MOL    C2446080   5.699   1.398   1.906 -0.3108 -0.6181  0.4052
  229MOL    O2546081   5.669   1.500   1.966  0.1694  0.2002  0.9886
  229MOL    N2646082   5.603   1.323   1.857  0.5482  0.1431 -0.3446
  229MOL    H2746083   5.818   1.136   1.918 -0.8208 -0.2167  0.9907
  229MOL    H2846084   5.971   1.184   1.985  0.1811  1.7396  2.3699
  229MOL    H2946085   5.901   1.431   1.945 -0.5584 -0.5680 -0.1986
  229MOL    H3046086   5.510   1.352   1.883  1.3874  1.4000  1.3747
  229MOL    H3146087   5.626   1.241   1.804  0.9676  0.9412 -1.4000
  229MOL    C3246088   5.894   1.336   1.747  0.4925 -0.0294  0.1816
  229MOL    C3346089   6.031   1.396   1.705  0.3803  0.1249  0.2054
  229MOL    C3446090   6.143   1.301   1.739 -0.6415 -0.4344 -0.2870
  229MOL    O3546091   6.176   1.278   1.855  0.0566  1.0291 -0.2561
  229MOL    N3646092   6.200   1.239   1.640  0.1099 -0.2587 -0.1833
  229MOL    H3746093   5.816   1.391   1.695  1.3165  0.7422 -0.2627
  229MOL    H3846094   5.876   1.233   1.717 -2.1274 -0.4874  3.0747
  229MOL    H3946095   6.038   1.416   1.598  0.8338  2.2169  0.6087
  229MOL    H4046096   6.274   1.172   1.656 -0.4965 -0.9992 -0.4566
  229MOL    H4146097   6.153   1.247   1.551 -1.9019 -0.4386  0.8369
  229MOL    C4246098   6.062   1.538   1.761 -0.1166 -0.5022  0.4533
  229MOL    C4346099   6.145   1.640   1.675 -0.0689  0.7062  0.1452
  229MOL    C4446100   6.284   1.590   1.618 -0.4685  0.0699  0.3573
  229MOL    O4546101   6.292   1.511   1.526 -0.0798 -0.1690 -0.4264
  229MOL    N4646102   6.391   1.644   1.684 -0.0543  0.0525 -0.0897
  229MOL    H4746103   6.115   1.527   1.855  1.6666  0.1835 -0.4474
  229MOL    H4846104   5.967   1.591   1.767 -0.5800 -1.1232 -1.2305
  229MOL    H4946105   6.079   1.650   1.588  0.5225 -1.0329 -0.5222
  229MOL    H5046106   6.477   1.593   1.670 -1.1707 -1.6347 -0.9352
  229MOL    H5146107   6.372   1.694   1.770  0.5030  2.1077 -1.1390
  229MOL    C5246108   6.141   1.776   1.736 -0.1601 -0.3553  0.3358
  229MOL    C5346109   6.167   1.891   1.644 -0.3040  0.2101  0.8900
  229MOL    C5446110   6.201   2.014   1.722 -0.2405 -0.4547  0.1834
  229MOL    O5546111   6.116   2.057   1.801 -0.0299  0.3262  1.0001
  229MOL    N5646112   6.327   2.062   1.716  0.2494 -0.3218 -0.4583
  229MOL    H5746113   6.215   1.770   1.817 -2.1894 -2.2141  2.1051
  229MOL    H5846114   6.039   1.791   1.771  0.0323 -0.7757  1.0999
  229MOL    H5946115   6.263   1.861   1.602 -1.4628  0.2853 -1.9724
  229MOL    H6046116   6.339   2.147   1.770 -2.2519 -1.5430  2.2234
  229MOL    H6146117   6.405   2.035   1.659  2.2254 -0.4435  2.2284
  229MOL    C6246118   6.073   1.914   1.525  0.4260  0.1856 -0.8054
  229MOL    C6346119   5.925   1.957   1.548 -0.6024 -0.2307 -0.0695
  229MOL    C6446120   5.822   1.865   1.625 -0.0326 -0.8477  0.7955
  229MOL    O6546121   5.804   1.743   1.588 -0.2040  0.0996  0.0151
  229MOL    N6646122   5.755   1.910   1.730 -0.1386  0.2578  0.1332
  229MOL    H6746123   6.085   1.831   1.455 -0.4129  1.2928 -2.2858
  229MOL    H6846124   6.123   1.992   1.468  0.1037  1.5859  0.7857
  229MOL    H6946125   5.929   2.049   1.605  1.0186 -1.6062  2.1194
  229MOL    H7046126   5.759   1.997   1.781 -0.2076  0.9401 -1.0029
  229MOL    H7146127   5.683   1.843   1.754 -0.2167  0.3403  0.1294
  229MOL    C7246128   5.860   1.992   1.409 -0.1762 -0.0843  0.5639
  229MOL    C7346129   5.892   2.129   1.353  0.4253  0.4935  0.2318
  229MOL    C7446130   5.796   2.231   1.420 -0.2055 -0.0267  0.3769
  229MOL    O7546131   5.677   2.208   1.422  0.2289 -0.1449 -0.0389
  229MOL    N7646132   5.847   2.328   1.489 -0.2010 -0.4547 -0.3489
  229MOL    H7746133   5.752   1.986   1.420 -0.3529  2.8297  0.9020
  229MOL    H7846134   5.879   1.919   1.330 -0.6543  1.3011 -0.8500
  229MOL    H7946135   5.997   2.149   1.375  0.4263 -0.2326  0.9025
  229MOL    H8046136   5.944   2.351   1.471 -0.8660  2.5004 -0.3404
  229MOL    H8146137   5.783   2.402   1.514 -0.7013 -0.5086 -1.4699
  229MOL    C8246138   5.883   2.128   1.202 -0.6512 -0.3451  0.7801
  229MOL    C8346139   5.930   2.256   1.131 -0.2448 -0.0595 -0.4773
  229MOL    C8446140   5.821   2.359   1.113 -0.6886  0.0168 -0.2298
  229MOL    O8546141   5.715   2.325   1.047 -0.1682 -0.1453 -0.1870
  229MOL    N8646142   5.837   2.481   1.163 -0.6346 -0.2601  0.4185
  229MOL    H8746143   5.790   2.100   1.153 -1.5603  0.4856  1.9887
  229MOL    H8846144   5.948   2.045   1.174 -1.7275 -0.8989 -0.1211
  229MOL    H8946145   6.011   2.297   1.191 -0.0058 -0.9282 -0.1986
  229MOL    H9046146   5.917   2.510   1.219  0.4490 -1.6847 -0.3530
  229MOL    H9146147   5.757   2.541   1.151 -1.6581 -1.6884  0.0636
  229MOL    C9246148   5.997   2.214   0.993 -1.0890 -0.0545  0.1608
  229MOL    C9346149   6.034   2.314   0.882  0.0258 -0.8430 -0.1341
  229MOL    C9446150   6.056   2.250   0.747 -0.2631 -0.4727  0.2311
  229MOL    O9546151   6.124   2.152   0.731  0.2295  0.0687  0.4151
  229MOL    N9646152   6.009   2.313   0.642  0.5657  0.4598 -0.2902
  229MOL    H9746153   5.936   2.132   0.955  1.1159 -1.3587 -0.6449
  229MOL    H9846154   6.085   2.163   1.032 -1.0471 -0.5337 -0.5523
  229MOL    H9946155   5.954   2.388   0.877 -0.5155 -1.2601  1.8738
  229MOL   H10046156   6.025   2.274   0.550 -1.5607  0.7747 -0.8363
  229MOL   H10146157   5.969   2.406   0.644  0.6248  0.4797 -0.1001
  229MOL   C10246158   6.167   2.378   0.930 -0.2030 -0.1026  0.1317
  229MOL   C10346159   6.206   2.506   0.850 -0.2552 -0.2668  0.5754
  229MOL   C10446160   6.345   2.490   0.790 -0.3699  0.3207  0.1188
  229MOL   O10546161   6.441   2.557   0.833 -0.1904 -0.3153 -0.2217
  229MOL   N10646162   6.357   2.423   0.678  0.0945  0.3463 -0.2594
  229MOL   H10746163   6.244   2.301   0.926  0.2000  0.2840  0.4267
  229MOL   H10846164   6.160   2.397   1.037  0.3734 -1.5400  0.4377
  229MOL   H10946165   6.141   2.504   0.763 -1.1805 -2.5646  1.3028
  229MOL   H11046166   6.282   2.381   0.625  0.5597 -1.0408  0.1393
  229MOL   H11146167   6.451   2.427   0.640 -0.9423  0.9051 -2.8653
  229MOL   C11246168   6.180   2.633   0.935 -0.2558  0.2790  0.2036
  229MOL   C11346169   6.161   2.767   0.853 -1.3063  0.3518 -0.0898
  229MOL   C11446170   6.254   2.876   0.894  0.0558 -0.1598 -0.0980
  229MOL   O11546171   6.219   2.977   0.951 -0.1304 -0.0362  0.4878
  229MOL   N11646172   6.380   2.865   0.864  0.5903  0.5028 -0.0816
  229MOL   H11746173   6.269   2.649   0.997 -1.4456 -2.4892  2.7076
  229MOL   H11846174   6.106   2.629   1.014 -0.1289  0.1501  0.3164
  229MOL   H11946175   6.191   2.748   0.749 -2.4987 -1.1579 -0.1708
  229MOL   H12046176   6.406   2.777   0.822  1.0720  0.8171 -0.4499
  229MOL   H12146177   6.448   2.937   0.883  0.5494  0.3765  0.5558
  229MOL   C12246178   6.007   2.807   0.863  0.4883 -0.2725  0.2785
  229MOL   C12346179   5.902   2.707   0.816  0.3431  0.6100  0.0012
  229MOL   C12446180   5.918   2.687   0.658 -1.1256  0.1902  0.1485
  229MOL   O12546181   5.946   2.573   0.619  0.1602 -0.4587 -0.5080
  229MOL   N12646182   5.906   2.790   0.574  0.5653  0.2017  0.2060
  229MOL   H12746183   6.008   2.899   0.803 -0.7759 -0.8854 -0.7057
  229MOL   H12846184   5.987   2.830   0.967  2.5808 -1.9271  1.0891
  229MOL   H12946185   5.920   2.608   0.859 -0.5962  0.2044 -0.5112
  229MOL   H13046186   5.923   2.768   0.477  0.2855 -1.3495  0.4986
  229MOL   H13146187   5.868   2.879   0.603 -1.9884 -0.1725 -1.7939
  229MOL   C13246188   5.753   2.743   0.843 -0.1829 -0.3839 -0.5658
  229MOL   C13346189   5.648   2.633   0.885 -0.0254  0.3376  0.1098
  229MOL   C13446190   5.628   2.533   0.781 -0.2342  0.1661  0.4086
  229MOL   O13546191   5.578   2.581   0.681  0.1661 -0.2740 -0.0550
  229MOL   N13646192   5.658   2.405   0.790 -0.1206  0.1677 -0.2920
  229MOL   H13746193   5.726   2.801   0.755 -1.3153 -0.4757 -0.2867
  229MOL   H13846194   5.767   2.809   0.928 -0.4470  0.3706 -1.1041
  229MOL   H13946195   5.695   2.575   0.965 -0.7229 -1.6981 -0.9336
  229MOL   H14046196   5.625   2.353   0.710 -0.4989  0.0353 -0.0555
  229MOL   H14146197   5.707   2.365   0.869 -0.5469  0.7982  0.3069
  229MOL   C14246198   5.509   2.675   0.943  0.1508  0.4791  0.2617
  229MOL   C14346199   5.406   2.757   0.867  0.2615  0.1185 -0.3735
  229MOL   C14446200   5.470   2.885   0.813  0.1424 -0.5274  0.3857
  229MOL   O14546201   5.519   2.967   0.889  0.1600 -0.2468  0.2046
  229MOL   N14646202   5.479   2.897   0.681  0.0441  0.9426  0.6347
  229MOL   H14746203   5.535   2.735   1.030  1.4136  0.2556  0.0603
  229MOL   H14846204   5.464   2.583   0.979 -2.3215  2.4598  2.4608
  229MOL   H14946205   5.371   2.709   0.775  1.6251  1.4598 -1.6190
  229MOL   H15046206   5.529   2.976   0.643 -0.9359  0.6107 -1.4764
  229MOL   H15146207   5.446   2.819   0.625  2.7760  1.5727 -1.9857
  229MOL   C15246208   5.280   2.804   0.951  0.1475 -0.2838  0.5527
  229MOL   C15346209   5.180   2.695   0.977  0.3572  0.6504 -0.3862
  229MOL   C15446210   5.042   2.730   0.913 -0.4716 -0.6598 -0.9383
  229MOL   O15546211   4.950   2.781   0.982 -0.4983 -0.2537 -0.0889
  229MOL   N15646212   5.029   2.719   0.786  0.3562  0.3374 -0.5372
  229MOL   H15746213   5.231   2.894   0.913 -0.3352 -1.2342 -1.1104
  229MOL   H15846214   5.314   2.833   1.050 -2.4947  1.6672  0.9299
  229MOL   H15946215   5.201   2.604   0.921 -3.0234 -0.7433  0.5151
  229MOL   H16046216   4.936   2.736   0.749 -0.3588  1.1226  1.5237
  229MOL   H16146217   5.096   2.674   0.725 -1.1310 -2.4483 -0.1740
  229MOL   C16246218   5.168   2.647   1.121 -0.5368  0.5021  0.6366
  229MOL   C16346219   5.073   2.530   1.162  0.4615  0.1645 -0.3391
  229MOL   C16446220   5.089   2.488   1.311 -0.2465 -0.2162 -0.0717
  229MOL   O16546221   5.126   2.572   1.390 -0.0794 -0.3714  0.2775
  229MOL   N16646222   5.072   2.368   1.354  0.6035  0.3249 -0.8539
  229MOL   H16746223   5.149   2.735   1.182 -1.7086 -0.5874  1.8458
  229MOL   H16846224   5.271   2.614   1.137 -0.8696 -0.2110  1.3082
  229MOL   H16946225   4.967   2.555   1.164  0.6414  0.9271  0.0851
  229MOL   H17046226   5.045   2.290   1.295 -0.4033 -0.0097  0.0243
  229MOL   H17146227   5.080   2.356   1.454  0.6628  0.0305 -0.8939
  229MOL   C17246228   5.080   2.405   1.073 -0.2983 -0.0024 -0.6635
  229MOL   C17346229   5.197   2.303   1.080 -0.5443 -0.0054  0.3378
  229MOL   C17446230   5.318   2.355   1.004  0.1995 -0.0742 -0.2682
  229MOL   O17546231   5.316   2.378   0.884  0.1937 -0.0090 -0.6179
  229MOL   N17646232   5.431   2.348   1.068  0.1968 -0.1962  0.2903
  229MOL   H17746233   5.068   2.442   0.971 -0.9721 -0.0454 -0.5971
  229MOL   H17846234   4.984   2.359   1.093  0.0742 -0.9996 -1.1348
  229MOL   H17946235   5.227   2.282   1.183 -2.3979  1.4578  1.2053
  229MOL   H18046236   5.435   2.313   1.162  1.1674 -1.0219 -0.0488
  229MOL   H18146237   5.509   2.357   1.005  0.3869  0.4539  0.6169
  229MOL   C18246238   5.151   2.174   1.009 -0.1428 -0.1106 -0.1057
  229MOL   C18346239   5.251   2.052   1.005  0.1868 -0.1279  0.8528
  229MOL   C18446240   5.229   1.976   0.879 -0.0483  0.0689  0.0132
  229MOL   O18546241   5.149   1.886   0.868 -0.1095 -0.4265  0.9265
  229MOL   N18646242   5.298   2.017   0.774 -0.4877 -0.2145 -0.0901
  229MOL   H18746243   5.133   2.198   0.904 -0.6221  1.8217  0.4079
  229MOL   H18846244   5.060   2.144   1.063  0.7734  2.9660  3.3354
  229MOL   H18946245   5.357   2.079   1.004  0.5425 -1.5035 -0.2242
  229MOL   H19046246   5.348   2.105   0.768  0.0377 -0.5941 -1.7374
  229MOL   H19146247   5.270   1.960   0.696 -1.1121 -0.1477  0.0883
  229MOL   C19246248   5.233   1.970   1.128 -0.1401 -0.8537  0.1817
  229MOL   C19346249   5.360   1.884   1.161  0.3184  0.1465 -0.2036
  229MOL   C19446250   5.448   1.966   1.259  0.3286 -0.0350  0.5230
  229MOL   O19546251   5.420   1.967   1.376  0.1138  0.0803  0.4387
  229MOL   N19646252   5.550   2.034   1.208 -0.1548  1.0884  0.3633
  229MOL   H19746253   5.140   1.916   1.113 -0.8569  0.2759  0.4521
  229MOL   H19846254   5.206   2.031   1.214 -0.0489  0.3612 -0.6212
  229MOL   H19946255   5.320   1.792   1.204 -1.1108  0.7923 -0.1262
  229MOL   H20046256   5.594   2.098   1.274  2.8172  1.5697 -1.9800
  229MOL   H20146257   5.584   2.030   1.113  0.4220  1.1472  0.5619
  229MOL   H20246258   5.409   1.849   1.070 -1.0080  1.4322 -1.4439
  230MOL     C146259   2.111   6.745   0.275  0.1010  0.1722 -0.2182
  230MOL     C246260   2.210   6.671   0.185  0.5414  0.2247 -0.0928
  230MOL     C346261   2.352   6.725   0.211 -0.1451 -0.2346 -0.2295
  230MOL     O446262   2.382   6.821   0.290  0.2195  0.2252  0.5384
  230MOL     N546263   2.455   6.654   0.162  0.9028  0.2625 -0.2819
  230MOL     H646264   2.097   6.851   0.251 -1.3734  0.0130 -0.0893
  230MOL     H746265   2.013   6.697   0.275  0.9760 -1.6286  0.4615
  230MOL     H846266   2.195   6.565   0.205  0.3380  0.3092  0.1982
  230MOL     H946267   2.546   6.649   0.206  1.9191  2.3993 -2.0426
  230MOL    H1046268   2.435   6.588   0.087  2.2767  0.9007 -1.2337
  230MOL    H1146269   2.151   6.746   0.376  2.3089 -1.2791 -1.0290
  230MOL    C1246270   2.166   6.695   0.037 -0.0153 -0.4003 -1.0597
  230MOL    C1346271   2.035   6.634   7.636 -0.0007  0.2169  0.0232
  230MOL    C1446272   2.047   6.489   7.602  0.4336  0.0824  0.9180
  230MOL    O1546273   2.142   6.439   7.548 -0.3208 -0.3719 -0.8728
  230MOL    N1646274   1.946   6.408   7.627  0.0995  0.2237  0.0008
  230MOL    H1746275   2.237   6.639   7.634 -1.1079 -1.6739 -1.2043
  230MOL    H1846276   2.180   6.801   0.015  2.6486 -0.1996  1.2457
  230MOL    H1946277   1.959   6.646   0.057  1.5062  1.5552  1.3373
  230MOL    H2046278   1.954   6.309   7.609 -1.0846 -0.5299  3.2309
  230MOL    H2146279   1.870   6.439   0.028  0.2032 -1.5997  1.1480
  230MOL    C2246280   1.994   6.729   7.523  0.4757  0.0549  0.3995
  230MOL    C2346281   1.837   6.729   7.493 -0.1374  0.1975 -0.5643
  230MOL    C2446282   1.811   6.817   7.374 -0.2496 -0.3534  0.1183
  230MOL    O2546283   1.829   6.933   7.392  0.0619  0.3060  0.2968
  230MOL    N2646284   1.777   6.768   7.256  0.1590  0.1398  0.1201
  230MOL    H2746285   2.044   6.697   7.431 -1.8896 -5.2403  0.7464
  230MOL    H2846286   2.029   6.831   7.538 -0.2153  0.3233  0.2008
  230MOL    H2946287   1.812   6.626   7.466 -0.2224  0.2257 -0.5904
  230MOL    H3046288   1.762   6.830   7.177 -1.1529 -0.2034  0.0991
  230MOL    H3146289   1.751   6.671   7.244 -0.2029  0.1014  1.1800
  230MOL    C3246290   1.751   6.777   7.618 -0.0688 -0.2725 -0.3310
  230MOL    C3346291   1.595   6.777   7.605  0.6136 -0.4978  0.5103
  230MOL    C3446292   1.534   6.676   7.514  0.5657  0.0028  0.1561
  230MOL    O3546293   1.486   6.705   7.404 -0.3160 -0.2729  0.0525
  230MOL    N3646294   1.525   6.554   7.565 -0.8095  0.4418  0.2976
  230MOL    H3746295   1.783   6.879   7.636 -1.6178  0.5191 -1.8882
  230MOL    H3846296   1.774   6.742   0.062 -1.1265 -0.9193 -0.2994
  230MOL    H3946297   1.546   6.744   0.039 -3.2660 -1.1868 -1.7170
  230MOL    H4046298   1.490   6.483   7.503 -0.6952  0.7408 -0.1081
  230MOL    H4146299   1.564   6.540   0.001  3.1797  2.8908 -0.9006
  230MOL    C4246300   1.542   6.924   7.586  0.4134 -0.2188  0.2262
  230MOL    C4346301   1.543   7.029   0.043  0.0128  0.8924  0.1059
  230MOL    C4446302   1.509   6.959   0.175  0.6646 -0.4018 -0.2715
  230MOL    O4546303   1.400   6.906   0.194  0.8743  0.0730  0.0411
  230MOL    N4646304   1.611   6.931   0.255  0.1686 -0.1993 -0.2064
  230MOL    H4746305   1.435   6.917   7.567  0.3464  0.3801  0.3670
  230MOL    H4846306   1.581   6.959   7.490 -0.3475  1.2421  0.4364
  230MOL    H4946307   1.647   7.062   0.051 -0.8683  3.3774  1.8365
  230MOL    H5046308   1.588   6.881   0.340 -0.0727  0.7038  0.2648
  230MOL    H5146309   1.708   6.952   0.238 -0.1233  0.8532 -0.6108
  230MOL    C5246310   1.465   7.157   0.017 -0.2124 -0.3083 -0.2374
  230MOL    C5346311   1.319   7.152   7.618  0.3810  0.4509 -0.4852
  230MOL    C5446312   1.311   7.147   7.464 -0.1124 -1.1495 -0.5149
  230MOL    O5546313   1.393   7.197   7.397  0.2827  0.2986  1.0006
  230MOL    N5646314   1.199   7.086   7.414 -0.0063 -0.1564  0.0118
  230MOL    H5746315   1.521   7.227   7.611  1.1045 -1.2048 -0.0827
  230MOL    H5846316   1.450   7.215   0.108 -0.4904 -2.4651  1.1248
  230MOL    H5946317   1.276   7.061   0.004  2.3637 -0.0373  0.5207
  230MOL    H6046318   1.121   7.062   7.473 -1.1297 -0.7097 -1.6561
  230MOL    H6146319   1.187   7.065   7.316 -1.6609 -1.3634  0.4610
  230MOL    C6246320   1.236   7.276   0.017  0.7580 -0.2881 -0.0236
  230MOL    C6346321   1.166   7.252   0.156 -0.0805  0.3570 -0.7269
  230MOL    C6446322   1.061   7.140   0.140 -0.2721  0.2005 -0.1599
  230MOL    O6546323   1.008   7.108   0.032  0.0807 -0.2620  0.4740
  230MOL    N6646324   1.027   7.079   0.254  0.4547 -0.0859  0.4284
  230MOL    H6746325   1.156   7.303   7.604  1.6139  2.0597 -0.1451
  230MOL    H6846326   1.301   7.363   0.020 -0.8843  0.9339  1.2240
  230MOL    H6946327   1.246   7.209   0.217 -0.9356  0.1524  0.2525
  230MOL    H7046328   1.061   7.116   0.341 -0.1410 -0.6188  0.8867
  230MOL    H7146329   0.965   6.999   0.254  1.2392 -0.6921  0.8619
  230MOL    C7246330   1.113   7.377   0.240  0.9115  0.4056  0.5431
  230MOL    C7346331   1.005   7.467   0.176  0.0463 -0.3627  0.1231
  230MOL    C7446332   1.072   7.543   0.054  0.1287 -0.7598 -0.4967
  230MOL    O7546333   1.165   7.620   0.075  0.2717 -0.1134 -0.5502
  230MOL    N7646334   1.016   7.540   7.592 -0.5839  0.7894 -0.8007
  230MOL    H7746335   1.199   7.437   0.271  1.2276  1.0180 -1.4300
  230MOL    H7846336   1.068   7.330   0.328  1.5585 -0.1684  0.5720
  230MOL    H7946337   0.934   7.399   0.130 -1.3005  1.1655 -0.0885
  230MOL    H8046338   0.948   7.475   7.555 -1.0402 -1.3477  3.4668
  230MOL    H8146339   1.074   7.585   7.523  0.1530  3.6932  1.6195
  230MOL    C8246340   0.936   7.558   0.280 -0.0345  0.1681 -0.3763
  230MOL    C8346341   0.792   7.516   0.324  0.3658  0.5691 -0.5603
  230MOL    C8446342   0.690   7.550   0.217 -0.3874  0.0373 -0.0925
  230MOL    O8546343   0.677   0.009   0.174  0.3769 -0.1847 -0.0005
  230MOL    N8646344   0.622   7.453   0.160 -0.5986  0.3851 -0.4544
  230MOL    H8746345   0.918   7.655   0.234 -2.5965 -0.1647 -0.1488
  230MOL    H8846346   1.005   7.567   0.365  0.4954  0.8400 -0.8744
  230MOL    H8946347   0.798   7.407   0.334 -0.6264  0.5142 -0.4701
  230MOL    H9046348   0.556   7.465   0.085 -3.0836 -2.8051  1.0952
  230MOL    H9146349   0.639   7.356   0.186  0.6291  0.4153 -1.0965
  230MOL    C9246350   0.763   7.559   0.479  0.4881 -0.3813  0.6010
  230MOL    C9346351   0.657   7.493   0.578 -0.4502 -1.0234  0.3071
  230MOL    C9446352   0.717   7.363   0.629  0.4240  0.0336 -0.1294
  230MOL    O9546353   0.741   7.273   0.550  0.7915 -0.1492 -0.2006
  230MOL    N9646354   0.750   7.353   0.754  0.4376  0.3912  0.4379
  230MOL    H9746355   0.728   0.005   0.467  0.1788 -0.6592 -0.9191
  230MOL    H9846356   0.863   7.567   0.522  0.3673  0.9578  0.6642
  230MOL    H9946357   0.646   7.560   0.663 -0.2793 -2.2932  1.3344
  230MOL   H10046358   0.774   7.265   0.797  0.4966  0.5340  0.7003
  230MOL   H10146359   0.735   7.429   0.818  0.5803  0.5701  0.2624
  230MOL   C10246360   0.519   7.464   0.514 -0.3877  0.1756  0.3224
  230MOL   C10346361   0.400   7.447   0.609  0.7225 -0.0382  0.5162
  230MOL   C10446362   0.367   7.306   0.661 -0.5313 -0.4026  0.1314
  230MOL   O10546363   0.292   7.285   0.756  0.9368 -0.2479  0.5904
  230MOL   N10646364   0.423   7.200   0.610  0.3730 -0.3532 -0.1743
  230MOL   H10746365   0.520   7.377   0.449  0.8679  2.8208 -3.3550
  230MOL   H10846366   0.493   7.546   0.447  0.0292 -0.4278 -0.5772
  230MOL   H10946367   0.425   7.504   0.698  1.4486  0.1679  0.1834
  230MOL   H11046368   0.484   7.212   0.531  0.5526  0.1742  0.0385
  230MOL   H11146369   0.406   7.110   0.652 -1.5770  0.2586  0.4141
  230MOL   C11246370   0.268   7.520   0.553  0.8697  0.0760 -0.3131
  230MOL   C11346371   0.236   7.469   0.410  0.8550 -0.8751 -0.1097
  230MOL   C11446372   0.217   7.590   0.313  0.4786 -0.6183 -0.3039
  230MOL   O11546373   0.120   0.009   0.318 -0.6297 -0.7606 -0.6519
  230MOL   N11646374   0.311   7.605   0.223 -0.4192 -0.3722 -0.4061
  230MOL   H11746375   0.279   7.628   0.557  0.8432  0.0642  0.0293
  230MOL   H11846376   0.180   7.491   0.611 -1.0253  0.3763 -2.9311
  230MOL   H11946377   0.318   7.413   0.367  0.0979 -0.7063 -1.8024
  230MOL   H12046378   0.388   7.542   0.205  1.4885  1.4690  1.0671
  230MOL   H12146379   0.310   0.041   0.183  0.0181 -0.4269 -0.5410
  230MOL   C12246380   0.123   7.366   0.402  0.6571  0.1875  0.0123
  230MOL   C12346381   0.118   7.285   0.275  0.5539 -0.0707  0.4162
  230MOL   C12446382   7.647   7.200   0.262  0.3273 -0.1582 -0.1338
  230MOL   O12546383   7.618   7.112   0.334  0.4210  0.7088  0.0044
  230MOL   N12646384   7.562   7.235   0.170 -0.2754 -0.0429  0.1043
  230MOL   H12746385   0.024   7.413   0.407  0.6576  0.1286  0.5119
  230MOL   H12846386   0.127   7.304   0.491 -1.8029  0.0835  0.0824
  230MOL   H12946387   0.123   7.358   0.195  0.0703  0.0876  0.5261
  230MOL   H13046388   7.489   7.166   0.157 -2.0299  1.9165 -0.8847
  230MOL   H13146389   7.583   7.314   0.111  1.4637 -1.2257 -0.9014
  230MOL   C13246390   0.239   7.185   0.257  0.0307  0.0500 -0.7804
  230MOL   C13346391   0.255   7.111   0.118 -0.1492  0.3426  0.7862
  230MOL   C13446392   0.187   6.969   0.119  0.5028 -0.1587  0.4526
  230MOL   O13546393   0.179   6.907   0.224  0.4849 -0.1409 -0.2955
  230MOL   N13646394   0.139   6.925   0.009 -0.2086 -0.0401 -0.1853
  230MOL   H13746395   0.240   7.107   0.333  2.4319 -0.6255 -1.4863
  230MOL   H13846396   0.333   7.237   0.278  0.2295 -0.5842 -0.1098
  230MOL   H13946397   0.207   7.160   0.034  2.0606 -0.9512 -1.3130
  230MOL   H14046398   0.086   6.840   7.652  0.2374 -0.5841  1.3603
  230MOL   H14146399   0.149   6.966   7.574 -0.6667  0.4341 -0.0221
  230MOL   C14246400   0.400   7.091   0.068 -0.6100  0.0555  0.0539
  230MOL   C14346401   0.504   7.006   0.149 -0.2056 -0.7028  0.1778
  230MOL   C14446402   0.587   7.097   0.246 -0.1120  0.2490 -0.4488
  230MOL   O14546403   0.667   7.171   0.193  0.3000  0.1157  0.5681
  230MOL   N14646404   0.577   7.080   0.379  0.7848 -0.4623 -0.5086
  230MOL   H14746405   0.444   7.191   0.066 -0.0279 -0.1454  1.6586
  230MOL   H14846406   0.405   7.056   7.622  0.1804  1.0628 -0.2635
  230MOL   H14946407   0.444   6.932   0.202 -3.1065  2.4896  1.5300
  230MOL   H15046408   0.641   7.120   0.445 -0.9660  1.3023  0.1850
  230MOL   H15146409   0.509   7.009   0.406  0.2017  0.0588 -0.5930
  230MOL   C15246410   0.591   6.923   0.057  1.3362  0.5516 -0.3751
  230MOL   C15346411   0.707   6.834   0.112 -0.4116  0.0960 -0.1709
  230MOL   C15446412   0.773   6.764   7.652 -0.7548 -0.0580 -0.1369
  230MOL   O15546413   0.735   6.654   7.598  0.5483  0.1352 -0.4275
  230MOL   N15646414   0.881   6.827   7.605 -0.0559  0.1276 -0.2055
  230MOL   H15746415   0.625   6.983   7.630  0.8973  0.9824 -0.2450
  230MOL   H15846416   0.521   6.860   0.000 -1.2507  2.6055  0.4433
  230MOL   H15946417   0.783   6.891   0.165 -0.6684  0.9250 -0.6912
  230MOL   H16046418   0.934   6.790   7.527  0.5837 -1.0849  0.7749
  230MOL   H16146419   0.917   6.912   7.647  0.2027 -0.3809  0.6296
  230MOL   C16246420   0.641   6.718   0.203 -0.4538  0.2086 -0.0407
  230MOL   C16346421   0.744   6.643   0.294  0.6639 -0.3782  0.5091
  230MOL   C16446422   0.825   6.731   0.392 -0.0321 -0.1785 -0.4663
  230MOL   O16546423   0.921   6.790   0.352  0.0132  0.0799  0.5489
  230MOL   N16646424   0.802   6.740   0.524 -0.1149  0.1238  0.0155
  230MOL   H16746425   0.582   6.639   0.157 -0.0895 -1.3539  2.0575
  230MOL   H16846426   0.579   6.768   0.278 -0.6273  0.6983 -0.5077
  230MOL   H16946427   0.678   6.574   0.348 -0.0571  0.1943  0.3649
  230MOL   H17046428   0.857   6.800   0.585 -1.8085  1.4209  0.2982
  230MOL   H17146429   0.711   6.714   0.558  0.3783 -0.6252  0.7970
  230MOL   C17246430   0.833   6.548   0.215  0.1523  0.2173  0.2449
  230MOL   C17346431   0.938   6.470   0.302 -0.3761 -0.2259 -0.0083
  230MOL   C17446432   1.079   6.489   0.250 -0.3336  0.4378 -0.4150
  230MOL   O17546433   1.146   6.402   0.190 -0.4205 -0.0759  0.1691
  230MOL   N17646434   1.130   6.607   0.272 -0.2536 -0.0090 -0.3145
  230MOL   H17746435   0.889   6.605   0.141 -1.8222  0.5973 -0.9885
  230MOL   H17846436   0.769   6.480   0.160  0.7189 -0.7611  0.7861
  230MOL   H17946437   0.949   6.515   0.401 -1.5363 -2.1811  1.0335
  230MOL   H18046438   1.220   6.646   0.246 -0.1256 -1.2191 -1.7657
  230MOL   H18146439   1.062   6.667   0.318 -0.3514 -0.7863  0.5630
  230MOL   C18246440   0.904   6.320   0.322  0.8268 -0.0176 -0.5134
  230MOL   C18346441   0.789   6.278   0.417  0.4160  0.3143 -0.0156
  230MOL   C18446442   0.779   6.364   0.546  0.1660 -0.4678  0.1444
  230MOL   O18546443   0.678   6.427   0.581 -0.3086  0.0378 -0.1931
  230MOL   N18646444   0.902   6.370   0.602  0.3508  0.6890  0.4518
  230MOL   H18746445   0.997   6.276   0.359  0.3451  0.0980  0.8650
  230MOL   H18846446   0.897   6.263   0.230  0.0906 -0.1865 -0.3523
  230MOL   H18946447   0.695   6.292   0.364  1.0517 -0.7544 -1.4624
  230MOL   H19046448   0.930   6.428   0.680  1.7892  0.7998 -0.1280
  230MOL   H19146449   0.977   6.310   0.569 -0.2779  1.0196 -1.6879
  230MOL   C19246450   0.796   6.126   0.452  0.9905 -0.4925  0.3040
  230MOL   C19346451   0.764   6.028   0.337  0.5245  0.1789  0.0665
  230MOL   C19446452   0.613   6.008   0.315 -0.0544 -0.3457  0.3597
  230MOL   O19546453   0.530   6.010   0.410 -0.0994 -0.0164 -0.8247
  230MOL   N19646454   0.573   5.984   0.188 -0.0635  0.6117 -0.0929
  230MOL   H19746455   0.715   6.110   0.522  1.5049 -1.8976  0.6031
  230MOL   H19846456   0.893   6.105   0.497  1.9752  3.1009  0.0244
  230MOL   H19946457   0.832   6.060   0.259  0.7860  1.9630  1.0084
  230MOL   H20046458   0.473   5.991   0.174  0.0157 -0.4184 -1.2642
  230MOL   H20146459   0.637   5.974   0.111  1.6283  0.9064  1.2288
  230MOL   H20246460   0.796   5.925   0.355  1.4369  0.2224 -1.2374
  231MOL     C146461   6.688   7.581   6.233 -0.5804  0.1946 -0.6134
  231MOL     C246462   6.772   7.570   6.359 -0.1810  0.5178  0.1716
  231MOL     C346463   6.757   7.427   6.400  0.4248  0.6149  0.2700
  231MOL     O446464   6.658   7.394   6.463  0.3731 -0.2579 -0.3681
  231MOL     N546465   6.854   7.349   6.372  0.6903  0.0717 -0.5299
  231MOL     H646466   6.711   0.015   6.177 -0.5614  0.4709 -0.1631
  231MOL     H746467   6.689   7.495   6.165  2.6414 -0.3541  0.0318
  231MOL     H846468   6.872   7.578   6.316  0.4620 -2.2237  1.0222
  231MOL     H946469   6.854   7.253   6.403  1.7927  0.0750 -0.5001
  231MOL    H1046470   6.937   7.399   6.342  0.4479  0.2507 -0.9127
  231MOL    H1146471   6.587   7.581   6.274  0.0680 -1.8001  1.0676
  231MOL    C1246472   6.748   0.029   6.461 -0.2705  0.4990 -0.0393
  231MOL    C1346473   6.869   0.053   6.555 -0.4785 -0.4175 -0.4859
  231MOL    C1446474   6.897   7.592   6.646  0.3312 -0.7089  0.4299
  231MOL    O1546475   6.823   7.546   6.733  0.0054  0.0397 -0.4728
  231MOL    N1646476   7.009   7.525   6.623 -0.0771  0.3947  0.3121
  231MOL    H1746477   6.659   0.014   6.523  0.5262 -1.9450  0.5783
  231MOL    H1846478   6.738   0.125   6.410  3.1028  0.0359 -1.6879
  231MOL    H1946479   6.959   0.061   6.494  0.4334 -2.6736  0.5286
  231MOL    H2046480   7.053   7.546   6.535 -1.4498 -1.1019 -0.7659
  231MOL    H2146481   7.042   7.450   6.682 -1.4845 -0.5333 -0.0684
  231MOL    C2246482   6.860   0.186   6.634  0.6734 -0.6275  0.0937
  231MOL    C2346483   6.855   0.320   6.551 -0.4535  0.7773  0.3963
  231MOL    C2446484   6.988   0.328   6.471 -0.3006 -0.2210  0.3534
  231MOL    O2546485   7.093   0.329   6.525 -0.0585  0.0384 -0.5008
  231MOL    N2646486   6.981   0.327   6.338  0.0362 -0.3777  0.4718
  231MOL    H2746487   6.947   0.197   6.699 -0.2153  0.0249  1.2003
  231MOL    H2846488   6.780   0.183   6.708 -0.6072 -0.2963 -1.2541
  231MOL    H2946489   6.765   0.318   6.490  0.0640  0.7450 -0.3786
  231MOL    H3046490   7.064   0.336   6.282 -0.7877  1.8671 -0.4339
  231MOL    H3146491   6.890   0.327   6.293  0.8402 -0.3025 -1.1883
  231MOL    C3246492   6.831   0.438   6.648 -0.5703 -0.1484  0.0488
  231MOL    C3346493   6.769   0.560   6.585 -1.0780 -0.1023 -0.5428
  231MOL    C3446494   6.859   0.630   6.485 -0.5096  0.0997  0.4118
  231MOL    O3546495   6.810   0.677   6.384 -0.1828 -0.4532  0.9925
  231MOL    N3646496   6.991   0.645   6.513 -0.0902  0.2611 -0.0994
  231MOL    H3746497   6.911   0.456   6.720 -0.4302  1.9231 -0.5669
  231MOL    H3846498   6.752   0.405   6.715  0.5760 -0.5989  1.1938
  231MOL    H3946499   6.681   0.529   6.529 -0.4180 -1.7337 -0.7003
  231MOL    H4046500   7.029   0.627   6.605  0.9470  0.2008 -0.5434
  231MOL    H4146501   7.049   0.666   6.434 -1.7602  1.3044 -1.0904
  231MOL    C4246502   6.719   0.666   6.689  0.0663  0.0380  0.6472
  231MOL    C4346503   6.813   0.711   6.805  0.1133  0.5339  0.3373
  231MOL    C4446504   6.800   0.626   6.926  0.8426 -0.1930  0.1707
  231MOL    O4546505   6.689   0.590   6.967  0.2125 -0.1522 -0.2371
  231MOL    N4646506   6.906   0.585   6.987 -0.0290  0.1777  0.6343
  231MOL    H4746507   6.632   0.616   6.732 -0.3127  0.1631  0.0247
  231MOL    H4846508   6.684   0.754   6.636 -2.2226 -1.0801  0.2271
  231MOL    H4946509   6.917   0.697   6.774 -0.1662 -1.4737  0.2526
  231MOL    H5046510   6.895   0.522   7.065 -0.0058 -0.3435  0.2210
  231MOL    H5146511   6.989   0.617   6.940 -0.0495  0.2501  0.6475
  231MOL    C5246512   6.804   0.860   6.834  0.0301  0.7974  0.2326
  231MOL    C5346513   6.921   0.921   6.919 -0.1769  0.0583  0.3736
  231MOL    C5446514   6.878   1.041   7.003  0.6353 -0.0924 -0.2401
  231MOL    O5546515   6.871   1.149   6.943  0.2268  0.1211  0.0685
  231MOL    N5646516   6.845   1.028   7.130 -0.0679 -0.2720  0.3999
  231MOL    H5746517   6.710   0.890   6.880  0.2090 -0.1365  1.2271
  231MOL    H5846518   6.810   0.909   6.737 -0.7921 -1.2936 -0.8970
  231MOL    H5946519   6.931   0.838   6.990  3.8471 -1.8635 -2.2307
  231MOL    H6046520   6.813   1.113   7.176 -0.4833 -1.2819  2.0286
  231MOL    H6146521   6.841   0.944   7.185  1.5816 -1.1314 -0.7550
  231MOL    C6246522   7.057   0.944   6.850 -0.5046 -0.4522  0.4555
  231MOL    C6346523   7.193   0.927   6.935 -0.3210  0.0218 -0.1937
  231MOL    C6446524   7.315   1.001   6.863 -0.3021 -0.2298 -0.6682
  231MOL    O6546525   7.312   1.018   6.744 -0.5839  0.3999 -0.1125
  231MOL    N6646526   7.417   1.035   6.940  0.2792 -0.2926 -0.3009
  231MOL    H6746527   7.063   1.045   6.808  1.7777 -0.5606  0.4301
  231MOL    H6846528   7.066   0.876   6.766  1.0178  0.0652  0.1720
  231MOL    H6946529   7.168   0.982   7.025  1.7910  1.2896 -0.3527
  231MOL    H7046530   7.419   1.028   7.040  1.1476 -1.2195 -0.3763
  231MOL    H7146531   7.500   1.066   6.891 -0.0974  0.1528 -0.6669
  231MOL    C7246532   7.228   0.781   6.966 -0.0971 -0.0806 -0.1688
  231MOL    C7346533   7.321   0.696   6.864  0.1264 -0.0164  0.8094
  231MOL    C7446534   7.237   0.612   6.758  0.3853 -0.1009 -0.2755
  231MOL    O7546535   7.116   0.574   6.775  0.9120 -0.0653  0.2511
  231MOL    N7646536   7.297   0.575   6.646  0.1442  0.4444 -0.0207
  231MOL    H7746537   7.143   0.721   6.999  2.0921 -3.0725  0.3117
  231MOL    H7846538   7.304   0.786   7.045  0.1697 -0.3438 -0.4045
  231MOL    H7946539   7.387   0.759   6.803  1.4791 -2.3523 -0.1861
  231MOL    H8046540   7.392   0.605   6.629  0.9034 -2.2405 -0.6831
  231MOL    H8146541   7.256   0.516   6.576 -0.4061  1.0879 -0.2492
  231MOL    C8246542   7.422   0.597   6.935 -0.1377 -0.0436 -0.6903
  231MOL    C8346543   7.362   0.497   7.041 -0.3358  0.4254 -0.1276
  231MOL    C8446544   7.443   0.480   7.172  0.5165 -0.2670 -0.4248
  231MOL    O8546545   7.549   0.420   7.169  0.4112 -0.4739  0.0867
  231MOL    N8646546   7.387   0.519   7.283 -0.5232  0.3003  0.1921
  231MOL    H8746547   7.482   0.662   6.999  1.0647 -0.1916 -1.6346
  231MOL    H8846548   7.491   0.554   6.862 -1.6233  1.3925 -3.0083
  231MOL    H8946549   7.265   0.530   7.078 -1.1686 -1.1265 -0.8324
  231MOL    H9046550   7.428   0.517   7.376  1.1768  0.7794 -0.5182
  231MOL    H9146551   7.298   0.566   7.278 -1.1695 -0.7478  1.3890
  231MOL    C9246552   7.334   0.366   6.964 -1.0038  0.2310  0.1341
  231MOL    C9346553   7.235   0.270   7.044 -0.5129  0.0547 -0.0199
  231MOL    C9446554   7.285   0.124   7.058  0.1524 -0.4666  0.3570
  231MOL    O9546555   7.231   0.037   6.999 -0.5658 -0.1421  0.2406
  231MOL    N9646556   7.383   0.098   7.140 -0.1636 -0.0913 -0.5594
  231MOL    H9746557   7.434   0.326   6.950 -0.8816  0.5814 -0.0036
  231MOL    H9846558   7.295   0.372   6.863 -0.1836 -0.9562 -0.2545
  231MOL    H9946559   7.231   0.304   7.148  1.7738  0.2995  0.0085
  231MOL   H10046560   7.404   0.000   7.155 -0.4206 -0.1740 -0.7429
  231MOL   H10146561   7.439   0.174   7.176  0.2238 -0.5427 -0.2086
  231MOL   C10246562   7.090   0.280   6.996  0.0171  0.3177 -0.2970
  231MOL   C10346563   6.982   0.217   7.088 -0.6231 -0.5737 -0.0692
  231MOL   C10446564   6.882   0.140   6.996  0.7594 -0.4610  0.0803
  231MOL   O10546565   6.784   0.198   6.946 -0.3014 -0.0209  0.1527
  231MOL   N10646566   6.909   0.019   6.967  0.1364  0.1509  0.1699
  231MOL   H10746567   7.088   0.246   6.893 -0.2034  1.4686 -0.6735
  231MOL   H10846568   7.075   0.387   6.989 -1.1975  0.1855  0.2339
  231MOL   H10946569   7.038   0.144   7.145  0.6763  0.4899  0.0438
  231MOL   H11046570   6.996   7.634   6.996  1.1046 -0.3826 -3.2735
  231MOL   H11146571   6.854   7.624   6.900  0.4249 -0.2532  0.2458
  231MOL   C11246572   6.920   0.332   7.183  0.3751  0.1884 -0.2506
  231MOL   C11346573   6.874   0.307   7.330 -0.2466  0.1835 -0.4426
  231MOL   C11446574   6.997   0.252   7.401  0.3669  1.3222  0.2100
  231MOL   O11546575   7.030   0.135   7.391 -0.2719  0.1039  0.0128
  231MOL   N11646576   7.067   0.340   7.471  0.4833  0.3852 -0.5765
  231MOL   H11746577   6.843   0.391   7.135  0.1109 -0.3723 -0.5238
  231MOL   H11846578   7.000   0.404   7.199 -0.2969  1.3106 -1.8534
  231MOL   H11946579   6.859   0.410   7.363  1.5216  0.8576 -1.6897
  231MOL   H12046580   7.025   0.432   7.479 -0.9154 -0.3411  0.6162
  231MOL   H12146581   7.149   0.320   7.526 -0.2676  0.1205  0.4707
  231MOL   C12246582   6.739   0.230   7.340 -0.1595  0.9372  0.4378
  231MOL   C12346583   6.612   0.287   7.280 -0.1132 -0.5708 -0.5078
  231MOL   C12446584   6.596   0.428   7.333  0.1754 -0.3729  0.9522
  231MOL   O12546585   6.550   0.452   7.445 -0.1748  0.2915 -0.5970
  231MOL   N12646586   6.627   0.526   7.255  0.2070 -0.4716  0.3852
  231MOL   H12746587   6.723   0.219   7.447  0.7330  3.8585  0.9298
  231MOL   H12846588   6.756   0.133   7.293  2.0241  1.8223 -0.6716
  231MOL   H12946589   6.613   0.288   7.171 -1.2332 -0.1548 -0.5274
  231MOL   H13046590   6.617   0.616   7.300  1.9662  0.1741 -0.4575
  231MOL   H13146591   6.643   0.510   7.157 -0.3647 -0.9505  0.3671
  231MOL   C13246592   6.489   0.214   7.323 -0.0184  0.2729 -0.3816
  231MOL   C13346593   6.361   0.260   7.248  0.6348  0.7852 -0.2532
  231MOL   C13446594   6.261   0.339   7.346 -0.6387  0.9358 -0.0843
  231MOL   O13546595   6.202   0.282   7.439  0.1940 -0.2996 -0.8449
  231MOL   N13646596   6.239   0.459   7.308 -0.5293  0.2223  0.2888
  231MOL   H13746597   6.480   0.216   7.431 -0.4425  0.5403 -0.4224
  231MOL   H13846598   6.502   0.108   7.299  1.9021 -0.3516  3.1703
  231MOL   H13946599   6.397   0.334   7.176 -1.2572  1.7058 -0.2900
  231MOL   H14046600   6.302   0.501   7.242 -0.4923  2.8019  1.9105
  231MOL   H14146601   6.175   0.517   7.361  0.0311 -0.9651  2.3368
  231MOL   C14246602   6.291   0.141   7.180  0.5462  0.0720  0.0073
  231MOL   C14346603   6.350   0.074   7.057 -0.3491 -0.0428 -0.7459
  231MOL   C14446604   6.372   0.172   6.942 -0.1764  0.5364 -0.1525
  231MOL   O14546605   6.277   0.219   6.891 -0.0237 -0.2188  0.0807
  231MOL   N14646606   6.503   0.207   6.910 -0.4121  0.1812  0.0984
  231MOL   H14746607   6.190   0.174   7.155  0.7833  0.3385 -0.5849
  231MOL   H14846608   6.269   0.067   7.257  1.5682 -0.2647 -0.0211
  231MOL   H14946609   6.447   0.033   7.085 -0.4791 -0.1349 -0.4310
  231MOL   H15046610   6.591   0.194   6.957 -1.0249 -0.0144  1.2084
  231MOL   H15146611   6.502   0.278   6.839 -0.5063 -0.3937 -0.4765
  231MOL   C15246612   6.250   7.612   7.026 -0.1096 -0.1094  0.0670
  231MOL   C15346613   6.295   7.491   6.941 -0.0150  0.2134 -0.4124
  231MOL   C15446614   6.374   7.528   6.827 -0.5857  0.4233  0.0862
  231MOL   O15546615   6.325   7.591   6.734 -0.1933  0.2107 -0.1698
  231MOL   N15646616   6.498   7.483   6.815  0.0739 -0.3964 -0.4402
  231MOL   H15746617   6.161   0.008   6.992 -0.6329  0.0457  1.6094
  231MOL   H15846618   6.208   7.566   7.116 -2.3671 -1.5783 -1.6714
  231MOL   H15946619   6.355   7.432   7.011  1.1718  0.2123 -1.4190
  231MOL   H16046620   6.554   7.511   6.735 -2.7051  3.5632 -1.1418
  231MOL   H16146621   6.544   7.412   6.870  1.7865  1.0911  0.1298
  231MOL   C16246622   6.179   7.396   6.900  0.7348 -0.0221 -1.0266
  231MOL   C16346623   6.129   7.289   7.001 -0.2194 -0.3648  0.7517
  231MOL   C16446624   6.207   7.161   7.004  0.2668  1.0256 -1.0623
  231MOL   O16546625   6.219   7.106   7.113  0.1164  0.1071 -0.2668
  231MOL   N16646626   6.260   7.112   6.894  0.0918  0.1606  1.2967
  231MOL   H16746627   6.212   7.357   6.804  1.7989  0.2206 -0.7636
  231MOL   H16846628   6.099   7.465   6.874  0.1738  0.1295  1.0135
  231MOL   H16946629   6.139   7.329   7.102 -0.7832 -2.0732  1.5075
  231MOL   H17046630   6.323   7.033   6.886  1.2732  1.3132 -1.4668
  231MOL   H17146631   6.210   7.131   6.808 -0.3627 -1.5837  1.1495
  231MOL   C17246632   5.979   7.248   6.982  0.0849  0.1178 -0.4988
  231MOL   C17346633   5.864   7.355   7.008  0.2705  0.3058  0.5101
  231MOL   C17446634   5.911   7.429   7.134 -0.3056  0.1829  0.0362
  231MOL   O17546635   5.934   7.371   7.246 -0.1640  0.3169 -0.7644
  231MOL   N17646636   5.930   7.562   7.120 -0.2053  0.6854 -0.4831
  231MOL   H17746637   5.951   7.180   7.064  1.4874 -0.3209 -0.3650
  231MOL   H17846638   5.959   7.191   6.891  0.3284  0.8047 -0.9827
  231MOL   H17946639   5.867   7.425   6.925  0.9250  0.1824  0.4251
  231MOL   H18046640   5.923   7.598   7.026  1.2040 -0.7195 -1.1589
  231MOL   H18146641   5.970   7.618   7.195  1.7563 -1.2643  0.0044
  231MOL   C18246642   5.716   7.301   7.031 -0.7393 -0.5269 -0.2393
  231MOL   C18346643   5.607   7.409   7.036  0.0619 -0.0200 -0.0897
  231MOL   C18446644   5.470   7.363   7.074 -0.7537 -0.3732  0.2349
  231MOL   O18546645   5.423   7.269   7.005  0.6103 -0.3063 -0.3917
  231MOL   N18646646   5.399   7.431   7.163 -0.5377  0.9703  0.1522
  231MOL   H18746647   5.707   7.242   7.123 -0.2477 -0.6226 -0.2519
  231MOL   H18846648   5.696   7.230   6.951 -2.0489 -0.3035 -0.1146
  231MOL   H18946649   5.644   7.483   7.107 -0.3520  1.4781 -1.4165
  231MOL   H19046650   5.426   7.516   7.209 -0.8316  0.3658  1.4870
  231MOL   H19146651   5.310   7.387   7.186  0.6506 -1.7268 -0.2010
  231MOL   C19246652   5.596   7.479   6.898 -1.1215 -0.0370  0.0987
  231MOL   C19346653   5.587   7.379   6.776 -0.2798 -0.7130  0.3370
  231MOL   C19446654   5.519   7.446   6.656 -0.5538  0.6597  0.2156
  231MOL   O19546655   5.398   7.423   6.636 -0.3931 -0.2808 -0.4590
  231MOL   N19646656   5.597   7.508   6.570  0.2858  0.0352  0.3671
  231MOL   H19746657   5.687   7.537   6.884 -0.5850 -0.6114  1.1031
  231MOL   H19846658   5.519   7.555   6.896  0.4745  1.6575  1.4661
  231MOL   H19946659   5.686   7.339   6.756 -0.6990 -3.4987  3.3829
  231MOL   H20046660   5.551   7.545   6.488 -1.6910 -1.5587  0.7113
  231MOL   H20146661   5.691   7.532   6.596  0.1378  2.4031 -1.1414
  231MOL   H20246662   5.519   7.298   6.803 -0.3493 -1.0252 -0.7475
  232MOL     C146663   2.443   2.585   0.895  0.0150  0.3787 -0.1520
  232MOL     C246664   2.577   2.655   0.866 -0.1564 -0.2731 -0.3991
  232MOL     C346665   2.646   2.699   0.994  0.4849  0.6014  0.1559
  232MOL     O446666   2.587   2.748   1.086 -0.4040 -0.5984 -0.1605
  232MOL     N546667   2.780   2.677   1.006  0.7335  0.4684  0.1481
  232MOL     H646668   2.373   2.646   0.953 -0.1001 -0.6250  0.7657
  232MOL     H746669   2.386   2.556   0.807 -0.4145  0.1020  0.2120
  232MOL     H846670   2.633   2.568   0.829  2.2077  0.9100  0.2563
  232MOL     H946671   2.818   2.703   1.095  1.1618 -1.6812  0.6249
  232MOL    H1046672   2.827   2.630   0.930  2.5085  0.7841  1.0360
  232MOL    H1146673   2.464   2.490   0.944  0.6161 -0.9209 -2.8264
  232MOL    C1246674   2.560   2.761   0.754 -0.0085 -0.0777  0.0978
  232MOL    C1346675   2.485   2.889   0.809  0.3862  0.3091 -0.1482
  232MOL    C1446676   2.348   2.899   0.742 -0.3461 -0.7831  0.1814
  232MOL    O1546677   2.334   2.900   0.619 -0.4497 -0.2067  0.3300
  232MOL    N1646678   2.237   2.890   0.820 -0.6950 -0.3229  0.4001
  232MOL    H1746679   2.525   2.724   0.658  0.6604 -0.4339 -0.0084
  232MOL    H1846680   2.658   2.801   0.728 -0.1806  1.0746  1.1203
  232MOL    H1946681   2.462   2.888   0.915  0.6227 -1.6181 -0.0917
  232MOL    H2046682   2.150   2.918   0.776 -1.6111  0.3480  2.5341
  232MOL    H2146683   2.251   2.894   0.920 -0.1832 -2.5297  0.4224
  232MOL    C2246684   2.564   3.024   0.778  0.8384 -0.3137  0.0896
  232MOL    C2346685   2.709   3.034   0.848 -0.8885 -0.0132  0.3459
  232MOL    C2446686   2.693   3.093   0.985 -0.5572  0.8756 -0.2026
  232MOL    O2546687   2.707   3.212   1.006 -0.4407 -0.1649  0.3344
  232MOL    N2646688   2.669   3.014   1.087 -0.1787 -0.5172  0.0422
  232MOL    H2746689   2.502   3.109   0.807  1.0725 -0.4783  1.0915
  232MOL    H2846690   2.577   3.023   0.670  0.3415 -0.4411  0.0308
  232MOL    H2946691   2.758   2.936   0.839  1.6247  1.1167  1.1260
  232MOL    H3046692   2.648   2.915   1.083  0.6782 -0.7393  0.6569
  232MOL    H3146693   2.655   3.044   1.183  1.3601 -2.4540  0.9270
  232MOL    C3246694   2.802   3.120   0.756 -0.1716  0.2948  0.0257
  232MOL    C3346695   2.952   3.079   0.753 -0.0337 -0.7539  0.2196
  232MOL    C3446696   3.014   3.090   0.888  0.0895  0.1568  0.2478
  232MOL    O3546697   3.062   2.989   0.944  0.8169  0.2106  0.1140
  232MOL    N3646698   3.022   3.206   0.946  0.0850 -0.7722 -0.0881
  232MOL    H3746699   2.799   3.227   0.778 -0.8741 -0.2514  2.7370
  232MOL    H3846700   2.776   3.104   0.651  0.6712  3.4502 -0.7014
  232MOL    H3946701   2.928   2.975   0.730 -0.7667  0.0718 -3.0169
  232MOL    H4046702   2.972   3.282   0.902 -1.2462 -1.2715  0.5618
  232MOL    H4146703   3.060   3.226   1.038  1.4277  0.5694 -0.9060
  232MOL    C4246704   3.035   3.143   0.646 -0.0840  0.6555  0.3741
  232MOL    C4346705   3.092   3.049   0.537 -0.0205 -0.2091  0.1565
  232MOL    C4446706   2.982   3.001   0.444 -0.1614  0.0673 -0.2557
  232MOL    O4546707   2.920   2.894   0.464 -0.5732  0.3942  0.1907
  232MOL    N4646708   2.949   3.088   0.347 -0.0063 -0.6214 -0.3373
  232MOL    H4746709   3.118   3.197   0.693 -0.6212 -0.4695  2.6694
  232MOL    H4846710   2.974   3.217   0.595  1.1119  2.3604  1.3482
  232MOL    H4946711   3.136   3.117   0.464  0.1251 -0.6623 -0.1845
  232MOL    H5046712   3.002   3.174   0.341  2.5588 -2.0110  1.3804
  232MOL    H5146713   2.867   3.066   0.292  0.7899 -0.4912 -1.5988
  232MOL    C5246714   3.186   2.938   0.582  0.4462 -0.1651  0.7126
  232MOL    C5346715   3.306   2.988   0.664  0.2331 -0.1326 -0.5939
  232MOL    C5446716   3.393   3.104   0.618  0.3765 -1.3996 -0.3225
  232MOL    O5546717   3.460   3.098   0.520 -0.0042  0.1008  0.1508
  232MOL    N5646718   3.389   3.216   0.688 -0.5378  0.6460 -0.7988
  232MOL    H5746719   3.229   2.883   0.499 -1.3034  0.9448 -0.9600
  232MOL    H5846720   3.130   2.869   0.646 -1.7442  0.7231 -0.1964
  232MOL    H5946721   3.272   3.033   0.757 -0.0399 -0.0541 -0.7308
  232MOL    H6046722   3.441   3.300   0.670 -0.5817  0.4143 -2.0422
  232MOL    H6146723   3.340   3.216   0.776 -1.4958 -0.4551 -1.3149
  232MOL    C6246724   3.391   2.866   0.707 -0.1609 -0.0462  0.8362
  232MOL    C6346725   3.352   2.806   0.843  0.2049  0.1031  0.0394
  232MOL    C6446726   3.413   2.883   0.955  0.2493  0.3823  0.8438
  232MOL    O6546727   3.526   2.933   0.942  0.4627 -0.0130 -0.2866
  232MOL    N6646728   3.337   2.914   1.053  0.5886 -0.2660  0.1269
  232MOL    H6746729   3.492   2.904   0.725 -0.1029 -0.2397  0.9139
  232MOL    H6846730   3.390   2.799   0.621 -2.8554  1.2457 -0.1946
  232MOL    H6946731   3.247   2.835   0.854  0.4507  2.3988 -3.1019
  232MOL    H7046732   3.249   2.866   1.064  0.8139 -1.0504 -1.3128
  232MOL    H7146733   3.375   2.971   1.127 -1.1685 -0.0351  0.8825
  232MOL    C7246734   3.371   2.652   0.864  0.5261  0.2217  0.3114
  232MOL    C7346735   3.231   2.573   0.873 -0.6930  0.3015  0.2652
  232MOL    C7446736   3.156   2.592   1.009 -0.4729 -0.2093  0.3713
  232MOL    O7546737   3.159   2.506   1.099  0.0758 -0.4450 -0.0455
  232MOL    N7646738   3.096   2.710   1.034 -0.1368  0.2312  0.8387
  232MOL    H7746739   3.425   2.634   0.957 -1.5141 -0.4085  1.4061
  232MOL    H7846740   3.434   2.611   0.785  1.7937  0.7425  1.0469
  232MOL    H7946741   3.165   2.619   0.799 -0.8967  1.3048  1.0549
  232MOL    H8046742   3.060   2.727   1.127 -2.2197 -1.1850  0.3346
  232MOL    H8146743   3.088   2.769   0.952  0.5498 -0.8563 -0.0227
  232MOL    C8246744   3.250   2.420   0.848 -0.1005  0.0264  0.6044
  232MOL    C8346745   3.118   2.349   0.810  0.3161 -0.0422 -0.3398
  232MOL    C8446746   3.114   2.200   0.839 -0.4079 -0.5273 -0.3949
  232MOL    O8546747   3.158   2.111   0.760 -0.2712 -0.3495 -0.3499
  232MOL    N8646748   3.032   2.161   0.937  0.2465 -0.4583  0.0382
  232MOL    H8746749   3.302   2.378   0.934 -0.0656  2.1245  1.6353
  232MOL    H8846750   3.320   2.405   0.766  0.7402 -1.8958  1.6629
  232MOL    H8946751   3.044   2.392   0.878  1.6109  1.6403  0.0409
  232MOL    H9046752   3.022   2.066   0.969  1.5058 -1.2058 -1.7182
  232MOL    H9146753   2.979   2.224   0.995  0.8421 -1.9626  2.3020
  232MOL    C9246754   3.087   2.380   0.656  0.3460  0.1292  0.2442
  232MOL    C9346755   2.939   2.400   0.630 -1.0783 -0.0219 -0.2247
  232MOL    C9446756   2.901   2.543   0.664  0.3066 -1.1384 -0.3174
  232MOL    O9546757   2.897   2.582   0.779 -0.6066  0.7830  0.3540
  232MOL    N9646758   2.864   2.628   0.570  0.3529  0.4010  0.2729
  232MOL    H9746759   3.131   2.305   0.590  0.4144 -1.7556  2.3548
  232MOL    H9846760   3.142   2.470   0.632  0.8091  0.2310  1.6905
  232MOL    H9946761   2.922   2.393   0.522  0.1134  1.5088 -0.5373
  232MOL   H10046762   2.861   2.598   0.474 -2.7057  1.5928 -0.0595
  232MOL   H10146763   2.839   2.723   0.596 -0.9554  0.2991 -0.5749
  232MOL   C10246764   2.846   2.296   0.701  0.0989  0.4700  0.5779
  232MOL   C10346765   2.700   2.309   0.651 -0.2042 -0.3315 -0.0639
  232MOL   C10446766   2.595   2.269   0.757  0.3708  0.1813 -0.1764
  232MOL   O10546767   2.479   2.307   0.752  0.2691 -0.1781  0.3268
  232MOL   N10646768   2.633   2.215   0.871 -0.0068 -0.5120 -0.0248
  232MOL   H10746769   2.849   2.319   0.807  4.9774 -1.4273  0.9612
  232MOL   H10846770   2.878   2.192   0.697  0.8888  0.6741  1.6198
  232MOL   H10946771   2.672   2.413   0.637 -1.9816 -0.8601 -0.5673
  232MOL   H11046772   2.732   2.213   0.890 -0.2580 -1.7939  1.3274
  232MOL   H11146773   2.563   2.205   0.944 -4.2317  2.3127 -3.4120
  232MOL   C11246774   2.676   2.248   0.505 -0.2435  0.7183 -0.9716
  232MOL   C11346775   2.551   2.296   0.426 -0.3613 -0.6628 -0.1269
  232MOL   C11446776   2.502   2.191   0.328 -0.2930 -0.7947  0.4596
  232MOL   O11546777   2.578   2.100   0.284  0.0799 -0.2911  0.5006
  232MOL   N11646778   2.375   2.194   0.309  0.0767 -0.3658  0.0038
  232MOL   H11746779   2.681   2.139   0.508  0.2882  0.7380 -1.2248
  232MOL   H11846780   2.764   2.260   0.442 -0.2796 -0.3347 -1.2386
  232MOL   H11946781   2.473   2.307   0.502 -0.9242  0.5422 -0.8586
  232MOL   H12046782   2.336   2.130   0.241 -1.0612  0.6907 -0.3476
  232MOL   H12146783   2.317   2.259   0.360 -0.2468  1.5668 -2.7037
  232MOL   C12246784   2.575   2.431   0.350  0.0448  0.3939  0.0859
  232MOL   C12346785   2.511   2.554   0.423  0.3039 -0.2799 -0.1044
  232MOL   C12446786   2.356   2.562   0.411 -0.4126  0.3414 -0.0170
  232MOL   O12546787   2.291   2.501   0.322  0.0669  0.2647  0.2845
  232MOL   N12646788   2.290   2.645   0.485 -0.1694  0.0484  0.2363
  232MOL   H12746789   2.535   2.423   0.249  0.0730 -0.6837  0.1460
  232MOL   H12846790   2.682   2.441   0.336 -0.0372  0.6422 -0.3658
  232MOL   H12946791   2.519   2.540   0.531  3.0397  0.5292 -0.1576
  232MOL   H13046792   2.340   2.713   0.540 -2.8997  1.5437  0.9596
  232MOL   H13146793   2.192   2.664   0.473 -0.0246 -0.2219 -1.4730
  232MOL   C13246794   2.591   2.679   0.376  0.3519  0.2445  0.4844
  232MOL   C13346795   2.553   2.745   0.237  0.3238  0.3195 -0.2029
  232MOL   C13446796   2.616   2.678   0.108  0.2201  0.2861  0.1775
  232MOL   O13546797   2.724   2.625   0.108 -0.4294  0.3431  0.4177
  232MOL   N13646798   2.536   2.664   0.001  0.4410  0.0085  0.1669
  232MOL   H13746799   2.693   2.652   0.347 -0.2536 -0.0345 -1.4808
  232MOL   H13846800   2.612   2.755   0.451  1.3801 -1.3876  1.9005
  232MOL   H13946801   2.445   2.735   0.223  0.2456 -0.7159  1.0919
  232MOL   H14046802   2.566   2.616   7.574  2.9910  1.2477  0.3110
  232MOL   H14146803   2.443   2.702   0.007  0.8702  1.1136  0.1065
  232MOL   C14246804   2.588   2.894   0.238  0.4776  0.1963  0.1005
  232MOL   C14346805   2.500   2.981   0.342 -0.2270 -0.0601 -0.1269
  232MOL   C14446806   2.351   3.010   0.290 -0.7086 -0.0554  0.6702
  232MOL   O14546807   2.337   3.031   0.170  0.1985  0.0022  0.6635
  232MOL   N14646808   2.251   3.008   0.379  0.3020 -0.4514 -0.1204
  232MOL   H14746809   2.559   2.928   0.138  0.1041  0.2730  0.2343
  232MOL   H14846810   2.693   2.916   0.257  0.9931 -1.4740 -0.7111
  232MOL   H14946811   2.489   2.926   0.435 -0.0913  0.8981  0.4628
  232MOL   H15046812   2.162   3.042   0.346 -0.5455 -3.0283 -0.6115
  232MOL   H15146813   2.266   2.988   0.477  0.4936  0.3313  0.0136
  232MOL   C15246814   2.576   3.107   0.389  0.2410 -0.1684  0.2472
  232MOL   C15346815   2.570   3.233   0.304  0.5907 -0.0023 -0.1961
  232MOL   C15446816   2.610   3.214   0.151 -0.3481 -0.1123  0.8195
  232MOL   O15546817   2.717   3.160   0.120  0.6292 -0.2473 -0.4139
  232MOL   N15646818   2.532   3.256   0.052 -0.1665  0.2033 -0.2228
  232MOL   H15746819   2.679   3.082   0.415  0.2071  1.3147  1.8024
  232MOL   H15846820   2.529   3.124   0.485 -0.3070  0.6522 -0.1697
  232MOL   H15946821   2.466   3.266   0.311  0.3778 -0.5118 -0.9412
  232MOL   H16046822   2.441   3.299   0.064 -0.4405 -0.8789  1.7770
  232MOL   H16146823   2.571   3.257   7.616  3.0753  1.2371  1.0927
  232MOL   C16246824   2.653   3.342   0.364 -0.3133  0.7823 -0.4002
  232MOL   C16346825   2.616   3.483   0.317 -0.3914 -0.5007  0.0262
  232MOL   C16446826   2.705   3.536   0.202 -0.3240  0.5758  0.3178
  232MOL   O16546827   2.824   3.549   0.216  0.8717 -0.1939 -0.2508
  232MOL   N16646828   2.645   3.575   0.095 -0.1538 -0.0362  0.4014
  232MOL   H16746829   2.759   3.322   0.351  0.0039  0.0424  2.8546
  232MOL   H16846830   2.634   3.339   0.471  0.9937 -0.0182 -0.1852
  232MOL   H16946831   2.513   3.481   0.282 -0.9880 -2.2396  1.8033
  232MOL   H17046832   2.544   3.565   0.093 -0.1964  0.4824 -0.8200
  232MOL   H17146833   2.696   3.596   0.010  1.3728  0.4717  1.4379
  232MOL   C17246834   2.600   3.587   0.431  0.1547 -0.0124 -1.1633
  232MOL   C17346835   2.735   3.645   0.489 -0.0975  0.3740 -0.0225
  232MOL   C17446836   2.832   3.545   0.553  0.3039  0.4539 -0.2162
  232MOL   O17546837   2.810   3.476   0.652 -0.3132 -0.2596  0.2164
  232MOL   N17646838   2.939   3.526   0.478 -0.2897 -0.0008 -0.4152
  232MOL   H17746839   2.546   3.531   0.509  0.7947  0.2530 -0.5251
  232MOL   H17846840   2.541   3.666   0.386 -0.0152  0.7027  0.2929
  232MOL   H17946841   2.790   3.699   0.412  1.6288  0.9314  1.5725
  232MOL   H18046842   3.003   3.455   0.510  1.1739  0.3538 -2.4726
  232MOL   H18146843   2.952   3.563   0.386 -0.3739 -0.6400 -0.6892
  232MOL   C18246844   2.701   3.761   0.592 -0.0315 -0.0717 -0.5795
  232MOL   C18346845   2.631   3.878   0.531  0.4866 -0.2291 -0.3504
  232MOL   C18446846   2.692   4.000   0.593  0.3803 -0.2142 -0.5956
  232MOL   O18546847   2.695   4.023   0.711  0.2313 -0.1353  0.1310
  232MOL   N18646848   2.741   4.094   0.514  0.4161 -0.3979 -0.3381
  232MOL   H18746849   2.797   3.790   0.633 -0.8624 -2.2190  3.1011
  232MOL   H18846850   2.658   3.726   0.686 -0.3887  1.0925 -0.3039
  232MOL   H18946851   2.655   3.887   0.425  2.9532  1.1124  0.2921
  232MOL   H19046852   2.766   4.185   0.550 -1.5775 -0.4417  1.2810
  232MOL   H19146853   2.741   4.081   0.414 -1.7226  0.9524 -0.5495
  232MOL   C19246854   2.476   3.872   0.553  0.4051  0.2018 -0.0780
  232MOL   C19346855   2.390   3.959   0.461  0.3391  0.1146  0.1308
  232MOL   C19446856   2.239   3.945   0.465 -0.2665 -0.1372  0.3284
  232MOL   O19546857   2.188   3.858   0.532  0.1018 -0.0727 -0.9296
  232MOL   N19646858   2.181   4.037   0.397  0.3030  0.2948 -0.0253
  232MOL   H19746859   2.459   3.897   0.658  1.0814 -1.0906  0.3593
  232MOL   H19846860   2.441   3.769   0.542  0.7960  0.3213 -2.7706
  232MOL   H19946861   2.422   4.063   0.458  0.4664  0.0583 -0.4482
  232MOL   H20046862   2.081   4.046   0.409  0.4837  0.6839  1.2248
  232MOL   H20146863   2.233   4.100   0.336  1.2881  0.8285  1.3356
  232MOL   H20246864   2.408   3.925   0.359 -0.1927 -1.0830  0.4223
  233MOL     C146865   2.001   5.671   4.824  0.7290  0.0623 -0.5179
  233MOL     C246866   1.930   5.638   4.691 -0.1712  0.6290  0.0150
  233MOL     C346867   1.783   5.690   4.682  0.3152  0.2018 -0.0311
  233MOL     O446868   1.712   5.699   4.782 -0.4153  0.4305  0.0898
  233MOL     N546869   1.742   5.736   4.567 -0.3615  0.3455  0.6908
  233MOL     H646870   1.956   5.607   4.900 -2.1568 -0.3063 -2.4530
  233MOL     H746871   2.107   5.651   4.815  0.4232 -1.7103 -0.2925
  233MOL     H846872   1.993   5.676   4.611  0.8510 -0.9397  0.0610
  233MOL     H946873   1.646   5.763   4.558 -1.1178 -2.2372  0.6548
  233MOL    H1046874   1.805   5.745   4.489 -2.1553  3.7271 -0.4396
  233MOL    H1146875   1.991   5.775   4.856  0.1718 -0.6431  1.7109
  233MOL    C1246876   1.929   5.477   4.690  0.2907  0.9034 -0.5972
  233MOL    C1346877   1.924   5.415   4.554  0.4108 -0.5336 -0.4573
  233MOL    C1446878   1.782   5.400   4.489 -0.4910 -0.0860 -0.0694
  233MOL    O1546879   1.690   5.344   4.548  0.1474  0.1437 -0.0199
  233MOL    N1646880   1.759   5.440   4.366 -0.4628  0.6384  0.3283
  233MOL    H1746881   1.848   5.438   4.750  2.1839 -1.7569  0.3044
  233MOL    H1846882   2.013   5.434   4.745 -0.5155  1.4336  1.0873
  233MOL    H1946883   1.981   5.481   4.488 -0.5063 -0.8904 -1.6325
  233MOL    H2046884   1.832   5.481   4.308 -1.0023 -0.1916 -0.9534
  233MOL    H2146885   1.670   5.427   4.321  0.1038  1.3906 -1.0613
  233MOL    C2246886   1.997   5.276   4.559  0.3821  0.1157  0.0186
  233MOL    C2346887   2.060   5.228   4.422 -0.0930  0.3674 -0.5539
  233MOL    C2446888   2.088   5.081   4.447  0.1812 -0.7360 -0.0602
  233MOL    O2546889   2.161   5.037   4.540  0.1486 -0.0058 -0.1581
  233MOL    N2646890   2.017   4.997   4.372  0.0052 -0.2231 -0.5027
  233MOL    H2746891   1.914   5.213   4.589  0.3949 -0.0152 -0.2132
  233MOL    H2846892   2.082   5.272   4.627  0.1952 -1.3110  0.1770
  233MOL    H2946893   1.991   5.238   4.337  3.7216 -1.3197 -4.0170
  233MOL    H3046894   1.969   5.037   4.293 -0.8369  0.8629  0.5451
  233MOL    H3146895   2.050   4.901   4.371  0.7562  0.0335 -0.4338
  233MOL    C3246896   2.187   5.318   4.386  0.1443  0.0028  1.3123
  233MOL    C3346897   2.265   5.307   4.247 -0.6569 -0.0797  0.6216
  233MOL    C3446898   2.351   5.179   4.237  0.0302 -0.6827  0.8175
  233MOL    O3546899   2.351   5.114   4.132 -0.3986 -0.3915  0.0820
  233MOL    N3646900   2.428   5.146   4.336  0.4241  0.6971  1.0088
  233MOL    H3746901   2.254   5.289   4.467  3.3795  0.7529 -0.9996
  233MOL    H3846902   2.164   5.425   4.395 -2.6414 -0.4344 -0.0894
  233MOL    H3946903   2.193   5.298   4.166  0.1356 -0.1198 -0.0773
  233MOL    H4046904   2.434   5.212   4.412 -2.0249  1.4954  0.5751
  233MOL    H4146905   2.486   5.064   4.335  0.1047  0.4267  2.9226
  233MOL    C4246906   2.348   5.433   4.200  0.2145 -0.0960 -0.5893
  233MOL    C4346907   2.493   5.467   4.252  0.0583 -0.5154  0.0215
  233MOL    C4446908   2.502   5.459   4.402 -0.3969 -0.2454 -0.4587
  233MOL    O4546909   2.433   5.525   4.476 -0.1826  0.0800  0.5093
  233MOL    N4646910   2.578   5.361   4.446 -0.4071  0.3793 -0.5667
  233MOL    H4746911   2.278   5.516   4.211  0.4642  0.2752 -1.7508
  233MOL    H4846912   2.363   5.433   4.092  0.0964 -0.0582 -0.6061
  233MOL    H4946913   2.561   5.392   4.212 -1.0860 -1.3411 -0.4078
  233MOL    H5046914   2.623   5.292   4.389 -0.5233  0.8048 -1.1793
  233MOL    H5146915   2.566   5.346   4.545  1.6251 -1.0214 -0.5247
  233MOL    C5246916   2.544   5.605   4.197  0.0744 -0.0531 -0.7582
  233MOL    C5346917   2.470   5.737   4.241  0.6109  0.6492  0.0431
  233MOL    C5446918   2.442   5.831   4.119 -0.1459  0.2610 -0.6378
  233MOL    O5546919   2.528   5.856   4.033 -0.0205  0.2629  0.2619
  233MOL    N5646920   2.323   5.891   4.112  0.0251  1.0300  0.0318
  233MOL    H5746921   2.522   5.599   4.090 -0.6201  0.6948 -0.6685
  233MOL    H5846922   2.652   5.614   4.204  0.0253 -0.8595  1.3135
  233MOL    H5946923   2.370   5.707   4.273 -0.2242  2.7311 -0.5091
  233MOL    H6046924   2.300   5.956   4.038 -1.1370  0.1084 -0.4525
  233MOL    H6146925   2.254   5.859   4.179  0.2223  0.7829  0.1145
  233MOL    C6246926   2.540   5.828   4.349  0.9166 -0.6488 -0.1141
  233MOL    C6346927   2.454   5.938   4.420  0.3004  0.2447 -0.4625
  233MOL    C6446928   2.528   6.061   4.459 -0.0169 -0.3721  0.1678
  233MOL    O6546929   2.490   6.169   4.413  0.3088 -0.2381 -0.2071
  233MOL    N6646930   2.623   6.054   4.550  0.4409  0.0748  0.5776
  233MOL    H6746931   2.610   5.894   4.299 -0.1865  0.0803 -0.7110
  233MOL    H6846932   2.601   5.778   4.424 -1.0728 -1.8788  0.7331
  233MOL    H6946933   2.384   5.982   4.350 -0.9139  0.8664  1.1089
  233MOL    H7046934   2.664   6.136   4.593  0.3805  0.6052 -0.3810
  233MOL    H7146935   2.653   5.963   4.582 -1.3246 -1.0686 -0.9531
  233MOL    C7246936   2.352   5.884   4.529 -0.2417  0.3946 -0.6302
  233MOL    C7346937   2.276   5.980   4.628 -0.0231  0.3079 -0.0772
  233MOL    C7446938   2.316   5.962   4.775  0.1447  0.1451 -0.0900
  233MOL    O7546939   2.254   5.886   4.854  0.6030  0.0165  0.0013
  233MOL    N7646940   2.427   6.024   4.815  0.0838  0.4864  0.1177
  233MOL    H7746941   2.404   5.811   4.592 -4.1003 -1.2410  0.8716
  233MOL    H7846942   2.266   5.829   4.489  0.0824 -2.7833  2.7164
  233MOL    H7946943   2.307   6.084   4.613 -0.6776  0.6494  0.8687
  233MOL    H8046944   2.447   6.015   4.913 -1.3494  1.5971  0.5395
  233MOL    H8146945   2.481   6.080   4.751  0.5474  0.6405  0.6454
  233MOL    C8246946   2.122   5.967   4.605 -0.1299 -0.1052 -0.6786
  233MOL    C8346947   2.041   6.084   4.668 -0.6349  0.3138  0.1642
  233MOL    C8446948   1.892   6.050   4.688 -0.6065 -0.3413  0.2773
  233MOL    O8546949   1.829   6.026   4.588  0.2108 -0.3473 -0.3112
  233MOL    N8646950   1.840   6.044   4.810 -0.4893  0.0002  0.3562
  233MOL    H8746951   2.096   5.868   4.644 -0.5647  0.1032 -0.4359
  233MOL    H8846952   2.108   5.970   4.497 -2.8070  3.7567 -0.3360
  233MOL    H8946953   2.081   6.102   4.768  0.5250  2.0059 -0.5819
  233MOL    H9046954   1.886   6.081   4.892  0.3700  0.5762 -0.3917
  233MOL    H9146955   1.741   6.020   4.816  0.0606 -2.4858  0.1221
  233MOL    C9246956   2.055   6.223   4.601 -0.4264  0.3382 -0.4406
  233MOL    C9346957   1.977   6.337   4.663  0.4106 -0.2301  0.0983
  233MOL    C9446958   1.959   6.462   4.572 -0.0047  0.1561 -0.1764
  233MOL    O9546959   2.055   6.516   4.519  0.3724 -0.3391 -0.1525
  233MOL    N9646960   1.838   6.518   4.562 -0.3890  0.4068  0.3104
  233MOL    H9746961   2.029   6.201   4.497  0.4099  2.1695 -1.0595
  233MOL    H9846962   2.162   6.246   4.604 -0.1029 -1.2334  1.7722
  233MOL    H9946963   1.873   6.313   4.684 -0.1464 -0.4225 -2.7286
  233MOL   H10046964   1.824   6.594   4.497  0.5845 -1.0924 -1.7207
  233MOL   H10146965   1.757   6.489   4.614  0.2603  0.8309  1.5949
  233MOL   C10246966   2.035   6.384   4.791 -0.1080  0.0908 -0.1452
  233MOL   C10346967   1.946   6.468   4.894  0.1753  0.3221  0.2640
  233MOL   C10446968   2.013   6.595   4.935 -0.2053  0.2862 -0.3208
  233MOL   O10546969   2.109   6.602   5.012  0.2274 -0.6727  0.1035
  233MOL   N10646970   1.966   6.705   4.885  0.6352 -0.4482  0.0609
  233MOL   H10746971   2.136   6.422   4.782  1.2287 -3.1070  0.4532
  233MOL   H10846972   2.060   6.296   4.851 -0.8545 -0.0027  0.0432
  233MOL   H10946973   1.853   6.503   4.850 -0.9427 -0.3923  1.9959
  233MOL   H11046974   2.013   6.792   4.907  0.7233 -0.2670 -0.7913
  233MOL   H11146975   1.895   6.706   4.813  3.4961 -0.6535 -2.9064
  233MOL   C11246976   1.895   6.370   5.012  0.0919  0.4042  0.2347
  233MOL   C11346977   1.801   6.442   5.111  0.4412  1.1081 -1.4599
  233MOL   C11446978   1.838   6.411   5.262  0.2613 -0.1988 -0.6630
  233MOL   O11546979   1.886   6.305   5.292 -0.7318 -0.1578  0.5344
  233MOL   N11646980   1.816   6.512   5.349 -0.0344  0.2911 -0.1044
  233MOL   H11746981   1.988   6.344   5.064 -0.1721  4.7986  3.1304
  233MOL   H11846982   1.853   6.278   4.972  1.2939 -0.6695  1.3811
  233MOL   H11946983   1.815   6.547   5.086  1.9136  0.4583 -3.5003
  233MOL   H12046984   1.839   6.490   5.445 -0.1771 -0.5434 -0.2595
  233MOL   H12146985   1.766   6.597   5.329 -0.6012  0.5094  2.0824
  233MOL   C12246986   1.648   6.402   5.080 -0.3118  0.0626  0.0322
  233MOL   C12346987   1.564   6.518   5.005 -0.4886  0.7722 -0.6504
  233MOL   C12446988   1.532   6.636   5.092 -0.9493 -0.1678 -0.2776
  233MOL   O12546989   1.592   6.654   5.195 -0.2561  0.4419  0.2858
  233MOL   N12646990   1.429   6.713   5.049 -0.8490  0.2846  0.0107
  233MOL   H12746991   1.596   6.374   5.171  2.6066  2.0699  2.4322
  233MOL   H12846992   1.649   6.320   5.008  0.6551  0.1793 -0.0918
  233MOL   H12946993   1.623   6.553   4.921  1.8107  4.3899  2.3009
  233MOL   H13046994   1.421   6.796   5.106  0.4000 -0.6598  1.6304
  233MOL   H13146995   1.389   6.708   4.957  0.0964 -1.6107 -0.3226
  233MOL   C13246996   1.438   6.445   4.960  0.5418 -0.1942 -1.0404
  233MOL   C13346997   1.440   6.394   4.820 -0.1273 -0.0135 -0.3936
  233MOL   C13446998   1.464   6.505   4.725  0.1801 -1.3618  0.1910
  233MOL   O13546999   1.574   6.519   4.670 -0.3908 -0.3219  0.2432
  233MOL   N13647000   1.371   6.602   4.719 -0.5854  0.6839 -0.3989
  233MOL   H13747001   1.345   6.495   4.987  0.3315 -1.3041  0.3022
  233MOL   H13847002   1.436   6.357   5.023  3.4301 -0.0670 -0.7199
  233MOL   H13947003   1.521   6.324   4.798  0.2921  0.7306 -1.2978
  233MOL   H14047004   1.286   6.584   4.769  0.1457 -1.2695  0.1821
  233MOL   H14147005   1.388   6.691   4.674 -1.6530  1.4084  0.6111
  233MOL   C14247006   1.312   6.319   4.777  0.0557  0.1829 -0.5392
  233MOL   C14347007   1.264   6.194   4.863 -0.2470  0.4532 -0.3731
  233MOL   C14447008   1.382   6.094   4.885  0.0159 -0.8001  0.1674
  233MOL   O14547009   1.431   6.026   4.792  0.6422 -0.6947  1.2517
  233MOL   N14647010   1.417   6.073   5.010  1.2252  0.4862  0.0770
  233MOL   H14747011   1.343   6.264   4.688 -0.7389 -1.6931  0.3207
  233MOL   H14847012   1.240   6.396   4.751 -0.0663  0.0230 -0.6703
  233MOL   H14947013   1.245   6.229   4.965 -0.5443  0.1941 -0.3384
  233MOL   H15047014   1.508   6.035   5.029  1.9932  1.4890 -1.4174
  233MOL   H15147015   1.367   6.116   5.086  1.5074  2.0538 -0.6031
  233MOL   C15247016   1.136   6.128   4.818 -0.2185  0.3038 -0.5305
  233MOL   C15347017   1.109   6.097   4.671 -0.3006  0.2353  0.0257
  233MOL   C15447018   1.065   6.216   4.588  0.2186  0.1987 -0.8984
  233MOL   O15547019   0.969   6.290   4.614  0.4979 -0.1621  0.4916
  233MOL   N15647020   1.144   6.241   4.486  0.3048 -0.0672  0.5437
  233MOL   H15747021   1.054   6.196   4.842  0.8681  0.5673  2.6228
  233MOL   H15847022   1.120   6.047   4.889 -0.2859 -0.1507 -1.0616
  233MOL   H15947023   1.203   6.060   4.631 -1.3296  1.1973 -3.4203
  233MOL   H16047024   1.224   6.181   4.468  0.4792  0.4949 -0.5757
  233MOL   H16147025   1.150   6.335   4.449 -0.1177 -1.0086 -2.0546
  233MOL   C16247026   0.987   6.002   4.656 -0.5739 -0.3646  0.5648
  233MOL   C16347027   1.023   5.850   4.686  0.0445  0.0614 -0.4072
  233MOL   C16447028   1.106   5.804   4.567 -1.0072  0.0390  0.1149
  233MOL   O16547029   1.050   5.807   4.455 -0.1864 -0.3425 -0.7450
  233MOL   N16647030   1.232   5.779   4.585  0.2048  0.2747 -0.4583
  233MOL   H16747031   0.943   6.021   4.558 -0.1144 -0.3520  0.3608
  233MOL   H16847032   0.913   6.042   4.726 -0.8987  2.0070 -1.0699
  233MOL   H16947033   1.093   5.847   4.770  0.4535 -0.2093 -0.7551
  233MOL   H17047034   1.285   5.741   4.508 -0.7571 -0.2785 -0.8556
  233MOL   H17147035   1.280   5.789   4.673 -0.9741  0.1717  0.2075
  233MOL   C17247036   0.906   5.759   4.714 -0.3984 -0.1230  0.2004
  233MOL   C17347037   0.936   5.616   4.751  0.7963 -0.5494  0.0063
  233MOL   C17447038   0.869   5.539   4.637 -0.0532  1.0182  0.4437
  233MOL   O17547039   0.762   5.489   4.657  0.0397  0.2353  0.2114
  233MOL   N17647040   0.931   5.517   4.518  0.2371 -0.4164  0.4903
  233MOL   H17747041   0.834   5.779   4.634  0.0375  0.9530  0.0603
  233MOL   H17847042   0.849   5.788   4.802 -3.3617  0.4135 -1.8381
  233MOL   H17947043   1.043   5.596   4.749  0.7476 -0.8307  0.2347
  233MOL   H18047044   1.028   5.543   4.510  0.2878 -1.1061 -1.2217
  233MOL   H18147045   0.889   5.475   4.436  0.8559 -0.0057 -0.0452
  233MOL   C18247046   0.883   5.571   4.892  0.3158  0.3482 -0.3588
  233MOL   C18347047   0.987   5.588   4.999  0.5457 -0.3247  0.7129
  233MOL   C18447048   1.001   5.458   5.084 -0.5054  0.2288 -0.2056
  233MOL   O18547049   0.910   5.385   5.112  0.1828  0.5506 -0.3182
  233MOL   N18647050   1.118   5.420   5.115 -0.6278  0.4322  0.4842
  233MOL   H18747051   0.848   5.468   4.896  1.4347  0.0062  0.9589
  233MOL   H18847052   0.797   5.624   4.933  1.6135  1.2335  1.2879
  233MOL   H18947053   1.083   5.599   4.950  0.7244 -0.7394  0.9659
  233MOL   H19047054   1.121   5.331   5.163  0.5466  1.1998  1.8861
  233MOL   H19147055   1.199   5.462   5.072 -0.3050 -1.7191 -1.0897
  233MOL   C19247056   0.954   5.711   5.079 -0.1468 -0.1667  0.1664
  233MOL   C19347057   1.075   5.800   5.112 -0.4826 -1.1221  0.6940
  233MOL   C19447058   1.049   5.951   5.132  0.3133 -0.2849 -0.0559
  233MOL   O19547059   0.952   6.010   5.087 -0.3095 -0.4162  0.4425
  233MOL   N19647060   1.143   6.016   5.197 -0.2389  0.0428 -0.4971
  233MOL   H19747061   0.906   5.672   5.169  1.9902  1.1062  1.8989
  233MOL   H19847062   0.884   5.775   5.025  1.3062 -0.4807 -2.1235
  233MOL   H19947063   1.136   5.761   5.194  2.1046 -0.0886 -0.6673
  233MOL   H20047064   1.158   6.115   5.207 -0.6555  0.0433  0.1406
  233MOL   H20147065   1.220   5.950   5.200 -0.7156 -0.4773  0.4442
  233MOL   H20247066   1.138   5.799   5.022 -1.7739  2.4435 -0.3005
  234MOL     C147067   1.998   7.115   5.771 -0.2333  0.2703  0.1760
  234MOL     C247068   1.987   7.234   5.679 -0.4080 -0.0642 -0.8644
  234MOL     C347069   2.097   7.225   5.579 -0.2575 -0.0877  0.9821
  234MOL     O447070   2.212   7.236   5.619 -0.6321  0.5401  1.0728
  234MOL     N547071   2.076   7.242   5.445 -0.4234  0.1561  0.1122
  234MOL     H647072   1.939   7.143   5.858  1.1965 -0.6194  1.4389
  234MOL     H747073   1.969   7.023   5.718 -2.5336  1.2871 -0.3967
  234MOL     H847074   1.895   7.231   5.620 -0.7865  0.0210 -0.2758
  234MOL     H947075   2.143   7.236   5.370  0.5446  0.2836  0.9525
  234MOL    H1047076   1.983   7.263   5.413 -0.5868 -1.3627 -0.4763
  234MOL    H1147077   2.100   7.108   5.808 -0.2236  1.3189  0.3390
  234MOL    C1247078   1.984   7.360   5.763 -0.1482 -0.7327  0.9097
  234MOL    C1347079   1.989   7.493   5.683 -0.3969  0.3292  0.4884
  234MOL    C1447080   2.127   7.556   5.660  0.1107 -0.0072  0.1974
  234MOL    O1547081   2.191   7.615   5.745 -0.5321  0.7378 -0.2344
  234MOL    N1647082   2.177   7.558   5.540  0.5564 -0.4001  0.1261
  234MOL    H1747083   2.066   7.350   5.834 -1.5407 -0.7522  2.5435
  234MOL    H1847084   1.887   7.356   5.813 -0.1683 -2.2972  0.7702
  234MOL    H1947085   1.958   7.477   5.579  2.1544 -0.1375 -0.2387
  234MOL    H2047086   2.271   7.594   5.536  1.5120 -2.4338  2.4670
  234MOL    H2147087   2.135   7.502   5.467 -0.5156 -2.1102  1.9745
  234MOL    C2247088   1.899   7.598   5.749  0.3428  0.0132  0.0045
  234MOL    C2347089   1.744   7.586   5.729 -0.3186  0.2984 -0.1127
  234MOL    C2447090   1.715   7.604   5.580  0.2323  0.5691  0.6083
  234MOL    O2547091   1.760   0.038   5.513  0.5262 -0.4509 -0.1250
  234MOL    N2647092   1.641   7.511   5.524  0.0420  0.0319  0.1423
  234MOL    H2747093   1.937   0.042   5.731 -0.4499  0.2190 -0.5562
  234MOL    H2847094   1.924   7.602   5.855  0.6602  0.4972 -0.0865
  234MOL    H2947095   1.720   7.487   5.767 -1.6857  0.8814  0.5602
  234MOL    H3047096   1.601   7.444   5.588  1.9831 -1.5074 -0.1940
  234MOL    H3147097   1.620   7.520   5.426 -1.3436 -2.3768  0.1892
  234MOL    C3247098   1.652   0.035   5.803 -0.6438  0.0917  0.5146
  234MOL    C3347099   1.674   0.040   5.957 -0.3439 -0.1099  0.9813
  234MOL    C3447100   1.590   7.585   6.020  0.6213  0.6757 -0.4192
  234MOL    O3547101   1.466   7.579   6.015  0.0200 -0.1670 -0.4740
  234MOL    N3647102   1.657   7.479   6.065  0.2652 -0.3901  0.0422
  234MOL    H3747103   1.544   0.021   5.800 -0.7866  0.7596  2.0502
  234MOL    H3847104   1.665   0.137   5.767  3.1105 -0.5285 -0.1092
  234MOL    H3947105   1.779   0.034   5.984  0.1008  0.8159 -0.4725
  234MOL    H4047106   1.607   7.394   6.085 -0.4103 -0.0879 -0.3655
  234MOL    H4147107   1.747   7.498   6.108 -0.2387 -0.3417  1.1081
  234MOL    C4247108   1.640   0.176   6.034  0.1274  0.1977  0.2472
  234MOL    C4347109   1.755   0.289   6.045 -0.1101 -0.0922  0.4525
  234MOL    C4447110   1.693   0.412   6.119 -0.4613 -0.5079 -0.3321
  234MOL    O4547111   1.721   0.527   6.087  0.3532 -0.4584 -0.2131
  234MOL    N4647112   1.617   0.388   6.224  0.7709  0.3731  0.6059
  234MOL    H4747113   1.623   0.145   6.137  0.1183  0.2446  0.2594
  234MOL    H4847114   1.544   0.221   6.008 -1.0512 -1.6727  1.2565
  234MOL    H4947115   1.831   0.244   6.108 -1.2622 -0.2873  1.7389
  234MOL    H5047116   1.586   0.294   6.242  0.5195  0.2365 -0.4819
  234MOL    H5147117   1.569   0.463   6.271 -0.4225  0.4136 -0.6554
  234MOL    C5247118   1.812   0.321   5.911 -0.6990 -0.5329  0.1212
  234MOL    C5347119   1.940   0.412   5.906 -0.8480  0.4428  0.1748
  234MOL    C5447120   1.926   0.526   5.794  0.3677  0.7043 -0.7657
  234MOL    O5547121   1.933   0.496   5.680 -0.2945 -0.3753 -0.1047
  234MOL    N5647122   1.910   0.657   5.826  0.6118 -0.2280  0.9234
  234MOL    H5747123   1.734   0.376   5.859  0.9305  0.8705 -0.8958
  234MOL    H5847124   1.831   0.232   5.852  0.1286  1.0584 -2.0785
  234MOL    H5947125   1.951   0.454   6.006 -1.8497 -0.3404  0.6279
  234MOL    H6047126   1.933   0.685   5.920  2.6414  1.6351 -0.0705
  234MOL    H6147127   1.911   0.720   5.747 -0.6054 -0.7430  0.4911
  234MOL    C6247128   2.072   0.326   5.887 -0.1742  0.8968 -0.5557
  234MOL    C6347129   2.210   0.388   5.916  0.2822  0.4303  0.2494
  234MOL    C6447130   2.217   0.442   6.055  0.1614  0.1130 -0.1365
  234MOL    O6547131   2.212   0.369   6.153  0.3032  0.2282 -0.8331
  234MOL    N6647132   2.239   0.570   6.085 -0.4628 -0.1559 -0.3659
  234MOL    H6747133   2.077   0.291   5.784  1.2369  0.4777 -0.3473
  234MOL    H6847134   2.051   0.239   5.949  0.8251 -0.8291 -2.5811
  234MOL    H6947135   2.274   0.300   5.913  1.0663  0.9407  1.5126
  234MOL    H7047136   2.240   0.655   6.030  0.1710  1.4575  2.1056
  234MOL    H7147137   2.246   0.583   6.184  2.8151  3.8030 -0.9996
  234MOL    C7247138   2.267   0.484   5.802 -0.5473  0.0015  0.0626
  234MOL    C7347139   2.295   0.429   5.656  0.3174 -0.4943  0.6877
  234MOL    C7447140   2.387   0.307   5.671 -0.2813  0.6318 -0.0808
  234MOL    O7547141   2.477   0.300   5.758 -0.2890  0.7095 -0.2211
  234MOL    N7647142   2.370   0.207   5.591 -0.3429  0.2070  0.0083
  234MOL    H7747143   2.352   0.542   5.838 -1.6697  2.3625 -0.9331
  234MOL    H7847144   2.193   0.562   5.781 -1.1969 -1.1095 -1.8611
  234MOL    H7947145   2.194   0.410   5.620  0.0959 -2.8681  2.4819
  234MOL    H8047146   2.312   0.208   5.508 -2.7332  2.9840  1.5744
  234MOL    H8147147   2.429   0.126   5.603  0.7928  1.0643  0.3103
  234MOL    C8247148   2.364   0.541   5.576  0.0634 -0.8082  0.1201
  234MOL    C8347149   2.351   0.523   5.427  0.1793  0.0878 -0.2860
  234MOL    C8447150   2.476   0.448   5.366 -0.9008  0.7679  0.2020
  234MOL    O8547151   2.584   0.502   5.397  0.3477 -0.2953  0.1429
  234MOL    N8647152   2.461   0.339   5.297 -0.0034  0.2128 -0.3380
  234MOL    H8747153   2.466   0.555   5.613  1.1475 -1.0307 -2.6974
  234MOL    H8847154   2.319   0.638   5.599  0.9843 -0.4847  0.6253
  234MOL    H8947155   2.264   0.461   5.407  0.0860 -0.4202  1.5695
  234MOL    H9047156   2.369   0.298   5.300  0.0873  0.0320  0.0599
  234MOL    H9147157   2.540   0.284   5.264  0.3994 -0.2305  1.3023
  234MOL    C9247158   2.344   0.665   5.355  0.0967 -0.7587  0.2675
  234MOL    C9347159   2.369   0.678   5.196  0.6029  0.5648 -0.2778
  234MOL    C9447160   2.367   0.820   5.137  0.4550 -0.3339 -0.4670
  234MOL    O9547161   2.262   0.870   5.099  0.4402  0.0592 -0.1525
  234MOL    N9647162   2.483   0.886   5.152  0.1045  0.0991  0.3326
  234MOL    H9747163   2.422   0.733   5.390  0.8719 -1.1320 -0.6988
  234MOL    H9847164   2.244   0.705   5.370  0.5317 -0.1177  1.5716
  234MOL    H9947165   2.471   0.645   5.176  0.5026  0.6641 -0.9548
  234MOL   H10047166   2.563   0.852   5.203  0.1377 -1.0534 -0.4791
  234MOL   H10147167   2.480   0.984   5.127 -1.4523  0.2316  0.9622
  234MOL   C10247168   2.270   0.591   5.107 -0.0520  0.6227 -0.0537
  234MOL   C10347169   2.275   0.590   4.957  0.0917 -0.6793 -0.4608
  234MOL   C10447170   2.170   0.493   4.889 -0.3982 -0.1264 -0.1342
  234MOL   O10547171   2.199   0.375   4.863  0.2924 -0.3598  0.4100
  234MOL   N10647172   2.057   0.548   4.850  0.9160 -0.0342  0.3442
  234MOL   H10747173   2.165   0.615   5.125 -0.7299 -0.9017 -1.7911
  234MOL   H10847174   2.278   0.486   5.137 -0.9487  0.2803 -0.9693
  234MOL   H10947175   2.244   0.690   4.926  0.3766 -0.8916 -1.4423
  234MOL   H11047176   2.025   0.635   4.891 -2.9738 -1.8488  1.3958
  234MOL   H11147177   1.987   0.497   4.798  1.5145  1.4240 -1.9619
  234MOL   C11247178   2.418   0.551   4.906  0.2381 -0.3250 -0.5878
  234MOL   C11347179   2.452   0.607   4.758 -0.2159 -0.7285 -0.4886
  234MOL   C11447180   2.536   0.494   4.704  0.0689  0.0677 -1.1193
  234MOL   O11547181   2.642   0.468   4.758  0.4633 -0.4547 -0.2115
  234MOL   N11647182   2.487   0.418   4.606 -0.3767  0.3514 -0.1247
  234MOL   H11747183   2.435   0.445   4.923 -1.0308 -0.3768  0.3929
  234MOL   H11847184   2.502   0.585   4.966 -0.9740  3.4531 -0.8713
  234MOL   H11947185   2.354   0.614   4.710  0.4129  0.7605 -1.6001
  234MOL   H12047186   2.541   0.344   4.563 -1.0289 -0.6093  0.7159
  234MOL   H12147187   2.395   0.436   4.568 -1.2753 -0.2244  1.7504
  234MOL   C12247188   2.522   0.741   4.748  0.1884  0.1495 -0.0696
  234MOL   C12347189   2.500   0.808   4.611 -0.1219 -0.5706 -0.0415
  234MOL   C12447190   2.610   0.787   4.510  0.3723 -0.0188 -0.4579
  234MOL   O12547191   2.722   0.829   4.536 -0.0390 -0.4167  0.1278
  234MOL   N12647192   2.580   0.717   4.401  0.5873  0.4929  0.2563
  234MOL   H12747193   2.629   0.727   4.769 -0.3285 -1.8222  1.4416
  234MOL   H12847194   2.496   0.807   4.831  0.7269  0.6852 -0.3175
  234MOL   H12947195   2.403   0.772   4.578  0.3162  0.0727 -2.0764
  234MOL   H13047196   2.483   0.689   4.389  1.4801 -2.5091 -0.2907
  234MOL   H13147197   2.655   0.670   4.354  0.4403 -0.9783  1.4272
  234MOL   C13247198   2.490   0.964   4.633 -0.3206  0.4320 -0.0313
  234MOL   C13347199   2.387   1.023   4.739  0.1866 -0.1349  0.0740
  234MOL   C13447200   2.241   0.989   4.714 -0.3185 -0.3100  0.0223
  234MOL   O13547201   2.179   1.013   4.610 -0.1468 -0.4722 -0.0658
  234MOL   N13647202   2.184   0.914   4.811  0.1168  0.2024 -0.5905
  234MOL   H13747203   2.461   0.989   4.531 -0.7996 -1.8620 -0.4767
  234MOL   H13847204   2.592   1.001   4.643 -0.2186 -0.4827  2.5687
  234MOL   H13947205   2.411   0.988   4.839 -0.6620  0.2192  0.4098
  234MOL   H14047206   2.227   0.884   4.897 -0.7295 -0.3020 -0.3320
  234MOL   H14147207   2.094   0.877   4.784  0.9475 -2.8429  0.6487
  234MOL   C14247208   2.398   1.171   4.738  0.0358 -0.7571 -0.1082
  234MOL   C14347209   2.524   1.227   4.809 -0.0044  0.2358 -0.3898
  234MOL   C14447210   2.502   1.236   4.964 -0.4838  0.6604 -0.1050
  234MOL   O14547211   2.406   1.299   5.005  0.0561  0.3607 -0.3159
  234MOL   N14647212   2.581   1.175   5.051  0.1760  0.4920 -0.4725
  234MOL   H14747213   2.302   1.214   4.767 -0.4645 -3.0655  1.7394
  234MOL   H14847214   2.404   1.203   4.634 -0.6293 -0.7752 -0.1574
  234MOL   H14947215   2.612   1.165   4.792  0.6238  1.0696 -0.2620
  234MOL   H15047216   2.672   1.149   5.015  1.2182  2.0613  0.9435
  234MOL   H15147217   2.574   1.218   5.142 -1.9363 -0.3371 -0.2058
  234MOL   C15247218   2.558   1.368   4.757 -0.0233 -0.4981  0.7444
  234MOL   C15347219   2.628   1.366   4.613 -0.0902  0.1061 -0.3735
  234MOL   C15447220   2.776   1.314   4.618  0.4621  0.0487  0.4045
  234MOL   O15547221   2.862   1.368   4.688  0.4568 -0.4244 -0.6394
  234MOL   N15647222   2.804   1.216   4.537  0.0105 -0.0953  0.1953
  234MOL   H15747223   2.628   1.412   4.827  0.4998  0.6085 -0.4625
  234MOL   H15847224   2.472   1.434   4.766  0.8182  0.7797 -0.4240
  234MOL   H15947225   2.558   1.307   4.554 -0.2919  1.3807 -1.4280
  234MOL   H16047226   2.731   1.188   4.474  1.4306  0.5256 -1.7751
  234MOL   H16147227   2.895   1.176   4.517  0.2875  0.2667  0.7198
  234MOL   C16247228   2.627   1.514   4.560  0.0465  0.1552 -0.2559
  234MOL   C16347229   2.493   1.584   4.519  0.4086 -0.1528 -0.3773
  234MOL   C16447230   2.380   1.484   4.475  0.1999 -0.7373 -0.5846
  234MOL   O16547231   2.299   1.455   4.557  0.4292 -0.2947 -0.7128
  234MOL   N16647232   2.374   1.462   4.345 -0.1024 -0.4211 -0.0203
  234MOL   H16747233   2.692   1.508   4.473 -1.9839  0.0331 -1.7997
  234MOL   H16847234   2.684   1.587   4.618  2.8452  1.3575 -4.2321
  234MOL   H16947235   2.459   1.621   4.615 -2.1155 -1.7414 -0.5970
  234MOL   H17047236   2.294   1.421   4.299  2.1870 -2.1909 -2.6259
  234MOL   H17147237   2.450   1.496   4.287  0.2426 -1.2836 -0.0871
  234MOL   C17247238   2.526   1.697   4.419 -0.5258 -0.4567  0.0296
  234MOL   C17347239   2.402   1.776   4.364  0.0180  0.7247  0.1724
  234MOL   C17447240   2.439   1.854   4.239 -0.2979  0.1950 -0.0650
  234MOL   O17547241   2.453   1.977   4.244  0.4625 -0.3989 -0.4847
  234MOL   N17647242   2.461   1.784   4.131 -0.3558  0.3754  0.4913
  234MOL   H17747243   2.575   1.654   4.332  0.8632 -0.1786  0.6644
  234MOL   H17847244   2.591   1.774   4.461 -0.3320  0.2456 -1.4990
  234MOL   H17947245   2.329   1.701   4.332 -2.0579  1.9347  1.8892
  234MOL   H18047246   2.487   1.835   4.048  1.5280 -1.0304  0.1999
  234MOL   H18147247   2.454   1.684   4.118 -0.0010  0.2421  1.2953
  234MOL   C18247248   2.346   1.867   4.474 -0.3656 -0.0401 -0.0214
  234MOL   C18347249   2.208   1.926   4.443  0.0323 -0.3641 -0.1861
  234MOL   C18447250   2.192   2.057   4.524 -0.2328  0.4034  0.0158
  234MOL   O18547251   2.142   2.051   4.636  0.8072  0.3761  0.5214
  234MOL   N18647252   2.224   2.173   4.465 -0.0159  0.6458 -0.3296
  234MOL   H18747253   2.411   1.954   4.480 -1.4028  0.8414 -1.4069
  234MOL   H18847254   2.348   1.809   4.567 -0.9207  1.0999  0.7050
  234MOL   H18947255   2.204   1.959   4.340  0.5734 -2.0884 -0.7826
  234MOL   H19047256   2.276   2.179   4.379  0.1162 -1.3376 -0.4096
  234MOL   H19147257   2.182   2.255   4.506 -0.4048  0.7754 -0.9888
  234MOL   C19247258   2.101   1.812   4.475  0.5862 -0.8308 -0.0669
  234MOL   C19347259   1.961   1.842   4.433  0.7573  0.7629 -0.1657
  234MOL   C19447260   1.934   1.819   4.282  0.0211 -0.1568  0.2354
  234MOL   O19547261   1.945   1.916   4.211  0.4804  0.1126  0.1659
  234MOL   N19647262   1.930   1.698   4.227 -0.4759 -0.0032  0.3497
  234MOL   H19747263   2.116   1.782   4.579  0.6706 -0.8411 -0.0819
  234MOL   H19847264   2.140   1.724   4.422  0.9558 -0.2913 -0.6933
  234MOL   H19947265   1.893   1.773   4.483  0.5560  1.8375  1.0797
  234MOL   H20047266   1.926   1.694   4.126 -0.5255  1.1647  0.2940
  234MOL   H20147267   1.932   1.613   4.281 -1.8410  0.6647  1.4822
  234MOL   H20247268   1.932   1.940   4.472  0.1116  0.7293 -0.5532
  235MOL     C147269   1.551   4.580   6.339  0.3751 -0.1334  0.8171
  235MOL     C247270   1.496   4.637   6.477  0.0074  0.2838  0.0504
  235MOL     C347271   1.351   4.608   6.485 -0.2077  0.3159  0.3046
  235MOL     O447272   1.277   4.666   6.406  0.1630 -0.0199 -0.2288
  235MOL     N547273   1.306   4.516   6.576 -0.3350 -0.1064 -0.0126
  235MOL     H647274   1.660   4.589   6.336  0.2834  0.8286 -0.0402
  235MOL     H747275   1.523   4.475   6.335  1.0983 -0.2842 -0.6237
  235MOL     H847276   1.543   4.574   6.552 -0.0152  1.0112  0.6865
  235MOL     H947277   1.365   4.467   6.642 -2.8865 -3.4324 -0.1195
  235MOL    H1047278   1.210   4.488   6.568 -0.4701 -0.2329  1.8500
  235MOL    H1147279   1.507   4.638   6.257 -1.0872 -1.8152  0.3877
  235MOL    C1247280   1.520   4.788   6.489 -0.4602  0.2053 -0.4009
  235MOL    C1347281   1.634   4.808   6.599 -0.4569 -0.4055  0.1608
  235MOL    C1447282   1.595   4.766   6.745 -0.6681  0.8492 -0.8544
  235MOL    O1547283   1.494   4.814   6.800  0.1808  0.0500  0.5450
  235MOL    N1647284   1.657   4.655   6.791 -0.0432 -0.1024 -0.2213
  235MOL    H1747285   1.435   4.852   6.512 -0.4398  0.1393 -0.1490
  235MOL    H1847286   1.543   4.818   6.387 -1.5654  1.3937 -0.3128
  235MOL    H1947287   1.712   4.742   6.564 -0.4491  0.2672 -1.1098
  235MOL    H2047288   1.713   4.604   6.723  0.7593 -0.8299  0.9612
  235MOL    H2147289   1.653   4.625   6.887  1.5718  1.4950  0.3694
  235MOL    C2247290   1.673   4.960   6.596 -0.3875 -0.0352 -0.3501
  235MOL    C2347291   1.808   4.991   6.517  0.5512 -0.2699 -0.5236
  235MOL    C2447292   1.788   4.963   6.366  0.4656  0.0762  0.5136
  235MOL    O2547293   1.797   4.846   6.323  0.1174  0.4239 -0.3758
  235MOL    N2647294   1.773   5.065   6.283 -0.3087  0.3791 -0.5771
  235MOL    H2747295   1.701   4.985   6.699  1.5341  0.1132 -0.8817
  235MOL    H2847296   1.586   5.019   6.568 -0.0423  0.6486 -0.0106
  235MOL    H2947297   1.826   5.098   6.528  0.6861 -0.2142 -1.3104
  235MOL    H3047298   1.774   5.052   6.183 -0.0980  0.4043 -0.5773
  235MOL    H3147299   1.776   5.162   6.311 -0.1051  0.2306 -0.0920
  235MOL    C3247300   1.923   4.914   6.582 -0.0602  0.6825 -0.7068
  235MOL    C3347301   2.060   4.993   6.589  0.5718 -0.0376 -0.1389
  235MOL    C3447302   2.088   5.068   6.461 -0.6661  0.6010  0.0145
  235MOL    O3547303   2.132   5.012   6.359  0.0165  0.1021  0.7380
  235MOL    N3647304   2.070   5.199   6.458  0.7269  0.3562 -0.0202
  235MOL    H3747305   1.939   4.817   6.534 -0.6102  0.1326  0.2163
  235MOL    H3847306   1.903   4.884   6.685  1.4543  1.9030 -0.0260
  235MOL    H3947307   2.042   5.069   6.665  0.7087 -0.1266 -0.0155
  235MOL    H4047308   2.081   5.255   6.374 -0.1052 -0.4510 -0.6835
  235MOL    H4147309   2.049   5.244   6.546  0.4399  0.2457 -0.0291
  235MOL    C4247310   2.186   4.901   6.623 -0.2344  0.0081  0.6283
  235MOL    C4347311   2.196   4.871   6.775  0.2744  1.1162 -0.1292
  235MOL    C4447312   2.278   4.977   6.848 -0.5303 -0.0052  0.1148
  235MOL    O4547313   2.397   4.985   6.829  0.3884 -0.0055 -0.1574
  235MOL    N4647314   2.218   5.043   6.945 -0.7257  0.3927 -0.5253
  235MOL    H4747315   2.280   4.941   6.585  0.2440 -0.9702  0.7377
  235MOL    H4847316   2.176   4.815   6.557  0.5153  0.4160 -0.0214
  235MOL    H4947317   2.099   4.865   6.824  1.4028  0.0051  2.0762
  235MOL    H5047318   2.263   5.115   6.999 -2.9466  1.3545  0.0833
  235MOL    H5147319   2.120   5.023   6.959 -0.4774 -1.0020 -0.6360
  235MOL    C5247320   2.251   4.723   6.804 -0.4836  0.1334  0.7939
  235MOL    C5347321   2.252   4.679   6.949 -0.1370 -0.1674  0.2509
  235MOL    C5447322   2.400   4.667   6.990 -0.3146 -0.2060  0.0558
  235MOL    O5547323   2.457   4.563   6.954 -0.0937 -0.0977  0.0570
  235MOL    N5647324   2.461   4.772   7.048 -0.1159  1.0994 -0.2261
  235MOL    H5747325   2.352   4.722   6.763 -0.7728 -1.1743  0.1014
  235MOL    H5847326   2.201   4.648   6.744 -1.5486  2.2010 -0.9736
  235MOL    H5947327   2.216   4.768   7.000  2.1608 -0.7009  2.9512
  235MOL    H6047328   2.406   4.857   7.049 -1.8057  0.0769 -2.5006
  235MOL    H6147329   2.561   4.772   7.059 -0.0522 -0.7855 -0.5848
  235MOL    C6247330   2.156   4.563   6.976 -0.7470  0.1833 -0.1415
  235MOL    C6347331   2.121   4.552   7.126 -0.2744 -0.2331  0.5137
  235MOL    C6447332   2.118   4.407   7.164 -0.3195 -0.3993  1.1768
  235MOL    O6547333   2.024   4.335   7.126  0.0563 -0.1327 -0.0734
  235MOL    N6647334   2.223   4.365   7.230 -0.5493 -0.1882 -0.1584
  235MOL    H6747335   2.206   4.470   6.948  2.8709  1.9258  0.1919
  235MOL    H6847336   2.063   4.562   6.921 -2.3579 -1.6327  2.4923
  235MOL    H6947337   2.203   4.598   7.182  0.9092  0.6087 -1.8411
  235MOL    H7047338   2.306   4.420   7.242 -0.5479 -0.4423  1.0633
  235MOL    H7147339   2.221   4.282   7.288  1.3508  0.1088  0.3564
  235MOL    C7247340   1.998   4.640   7.158 -0.2903 -0.4885  0.2317
  235MOL    C7347341   1.965   4.681   7.302 -0.5009  0.7855  0.1801
  235MOL    C7447342   1.948   4.565   7.395  0.2704 -0.0379  0.1954
  235MOL    O7547343   1.860   4.479   7.384  0.1152 -0.4687  0.0163
  235MOL    N7647344   2.020   4.561   7.504 -0.0481  0.0939 -0.0518
  235MOL    H7747345   1.907   4.601   7.112 -1.3401  1.1363  0.8801
  235MOL    H7847346   2.012   4.740   7.117 -2.0083  0.1586  1.2021
  235MOL    H7947347   2.037   4.752   7.343 -0.9557 -0.4894  3.2718
  235MOL    H8047348   2.072   4.643   7.531 -0.1306  0.1829 -0.1584
  235MOL    H8147349   1.994   4.493   7.574  0.2272  1.6744  1.6172
  235MOL    C8247350   1.838   4.760   7.300  0.2501  0.2625  0.1332
  235MOL    C8347351   1.769   4.803   7.439  0.1629 -0.1250 -0.5204
  235MOL    C8447352   1.618   4.774   7.451  0.0209 -0.2288  0.0037
  235MOL    O8547353   1.541   4.865   7.481 -0.0472 -0.2633 -0.0617
  235MOL    N8647354   1.582   4.646   7.449  0.3113  0.0243 -0.4840
  235MOL    H8747355   1.761   4.715   7.237 -0.8633 -0.0016  1.6534
  235MOL    H8847356   1.868   4.851   7.247 -1.9871 -0.7920 -3.0968
  235MOL    H8947357   1.814   4.747   7.521 -0.5875 -1.0084 -0.7021
  235MOL    H9047358   1.644   4.567   7.453  0.5900  0.2586 -0.1327
  235MOL    H9147359   1.482   4.639   7.449  0.1480  1.8803  0.0749
  235MOL    C9247360   1.792   4.955   7.467  1.1461  0.5300 -0.2774
  235MOL    C9347361   1.939   4.993   7.499  0.0978 -0.6824  0.5892
  235MOL    C9447362   2.002   4.914   7.620 -0.0397  0.2650 -0.3811
  235MOL    O9547363   2.086   4.828   7.594  0.3775  0.2664 -0.0980
  235MOL    N9647364   1.943   4.910   0.075 -0.1835 -0.0828  0.2602
  235MOL    H9747365   1.729   4.996   7.546 -0.1324  0.2101 -1.1106
  235MOL    H9847366   1.754   5.009   7.380 -0.5634 -1.2221 -0.6439
  235MOL    H9947367   1.992   4.959   7.410 -0.0547 -1.4502  0.7901
  235MOL   H10047368   1.971   4.845   0.147 -2.9141 -0.7731  0.7655
  235MOL   H10147369   1.866   4.973   0.093 -0.4899 -0.5034  0.4276
  235MOL   C10247370   1.962   5.141   7.500  0.8289 -0.4473  0.3094
  235MOL   C10347371   2.109   5.185   7.483 -0.0936  0.4010  0.3481
  235MOL   C10447372   2.158   5.252   7.615  0.2130  0.0183  0.4298
  235MOL   O10547373   2.118   5.357   0.001 -0.3478 -0.4971 -0.0530
  235MOL   N10647374   2.260   5.196   0.022  0.6024 -0.1460 -0.6314
  235MOL   H10747375   1.924   5.182   7.593 -1.4230 -1.0760 -0.3033
  235MOL   H10847376   1.903   5.187   7.421  1.4527  2.4101  1.4550
  235MOL   H10947377   2.178   5.101   7.470  0.7638  0.9143  1.5128
  235MOL   H11047378   2.301   5.244   0.101 -0.3321 -1.0602  0.4487
  235MOL   H11147379   2.300   5.108   7.649  1.8221 -0.4058  1.6323
  235MOL   C11247380   2.127   5.284   7.362 -0.1076 -0.0703 -0.1402
  235MOL   C11347381   2.269   5.349   7.348 -0.3432 -0.0476  0.1146
  235MOL   C11447382   2.269   5.489   7.290 -0.3287  0.1748  0.0587
  235MOL   O11547383   2.289   5.517   7.175  0.0801  0.2852  0.0906
  235MOL   N11647384   2.230   5.584   7.378 -0.2365  0.4523  0.2820
  235MOL   H11747385   2.063   5.370   7.380  0.2184 -0.1024  1.2308
  235MOL   H11847386   2.097   5.234   7.270 -0.4263  0.8112 -0.5183
  235MOL   H11947387   2.309   5.357   7.449  0.5476  0.6178 -0.2808
  235MOL   H12047388   2.170   5.572   7.458 -1.8534  0.2145 -0.9438
  235MOL   H12147389   2.215   5.673   7.333  1.6716  0.7293  0.1724
  235MOL   C12247390   2.370   5.257   7.271  0.3607  0.4394  0.3136
  235MOL   C12347391   2.516   5.272   7.309  0.2359  0.2241 -0.3733
  235MOL   C12447392   2.609   5.249   7.193  0.1217 -0.5122 -0.1837
  235MOL   O12547393   2.581   5.153   7.120  0.2886 -0.4612 -0.6142
  235MOL   N12647394   2.713   5.326   7.163 -0.6178 -0.2646 -0.2147
  235MOL   H12747395   2.369   5.277   7.164  1.1918  1.9101  0.5709
  235MOL   H12847396   2.345   5.153   7.292 -0.9053  0.6338 -0.1381
  235MOL   H12947397   2.525   5.379   7.324  0.7062  0.2895 -1.1086
  235MOL   H13047398   2.738   5.404   7.222  2.2627 -2.1571  1.2446
  235MOL   H13147399   2.774   5.302   7.085  0.8686 -1.2182  1.1929
  235MOL   C13247400   2.567   5.213   7.445 -0.5881  0.0375  0.2714
  235MOL   C13347401   2.632   5.071   7.443 -0.4318 -0.1937  0.5160
  235MOL   C13447402   2.522   4.966   7.478 -0.9954 -0.4802  0.4672
  235MOL   O13547403   2.466   4.975   7.584  0.1547  0.0386 -0.3326
  235MOL   N13647404   2.488   4.884   7.381 -0.5452  0.9378 -0.4381
  235MOL   H13747405   2.488   5.210   7.520 -0.4531  0.2445  0.4223
  235MOL   H13847406   2.638   5.284   7.487 -0.8892 -0.3668  1.4749
  235MOL   H13947407   2.673   5.037   7.348  4.0401 -0.5769  2.4355
  235MOL   H14047408   2.522   4.912   7.290  0.9661 -0.3638 -0.2941
  235MOL   H14147409   2.437   4.799   7.399  1.3472  0.0902  1.0944
  235MOL   C14247410   2.743   5.062   7.560  0.5972  0.0195  0.1085
  235MOL   C14347411   2.876   5.149   7.545  0.6702 -0.4621  0.3821
  235MOL   C14447412   2.939   5.110   7.405 -0.0377  0.0691 -0.4062
  235MOL   O14547413   2.979   4.996   7.379  0.1755 -0.7186  0.0223
  235MOL   N14647414   2.942   5.204   7.312  0.0172 -0.1065 -0.5929
  235MOL   H14747415   2.774   4.958   7.572  0.8465  0.2251  1.3059
  235MOL   H14847416   2.700   5.092   7.655 -0.8307  0.3517 -0.6280
  235MOL   H14947417   2.841   5.251   7.535 -1.2421 -1.1579 -0.1989
  235MOL   H15047418   2.963   5.171   7.219 -0.9902 -2.0768 -0.1461
  235MOL   H15147419   2.905   5.295   7.337 -2.9594 -1.2342 -0.6555
  235MOL   C15247420   2.980   5.136   7.656 -0.2522 -0.2296 -1.1820
  235MOL   C15347421   2.950   5.234   0.113  0.9161 -0.2151 -0.1745
  235MOL   C15447422   2.939   5.380   0.064 -0.7591  0.2446  0.1216
  235MOL   O15547423   3.032   5.447   0.016 -0.3865  0.8066  0.4027
  235MOL   N15647424   2.817   5.435   0.081 -0.0493 -0.1393  0.2313
  235MOL   H15747425   3.076   5.160   7.611 -1.3283  1.8695 -2.4746
  235MOL   H15847426   2.986   5.031   0.025  2.3954  0.1997  0.0902
  235MOL   H15947427   2.855   5.197   0.151  0.7026 -1.4868 -1.8720
  235MOL   H16047428   2.743   5.370   0.102  0.3249 -0.4865  0.4690
  235MOL   H16147429   2.803   5.527   0.040 -2.0076 -1.1789 -1.5354
  235MOL   C16247430   3.062   5.222   0.225 -0.7051 -0.0681  0.5534
  235MOL   C16347431   3.054   5.290   0.369 -0.2245  0.2589 -0.3069
  235MOL   C16447432   2.934   5.263   0.447  0.7800  0.1194 -0.1912
  235MOL   O16547433   2.873   5.350   0.508  0.1906 -0.3730 -0.7067
  235MOL   N16647434   2.896   5.138   0.462  0.1770 -0.3396  0.1531
  235MOL   H16747435   3.159   5.243   0.179 -1.5070 -0.5368 -1.3819
  235MOL   H16847436   3.066   5.120   0.262 -0.6226 -0.1193  0.4036
  235MOL   H16947437   3.129   5.236   0.426 -0.1455 -1.7268 -2.2092
  235MOL   H17047438   2.940   5.062   0.412  1.7245  1.3532 -1.1376
  235MOL   H17147439   2.831   5.106   0.532 -0.4372  0.6961  0.0668
  235MOL   C17247440   3.086   5.441   0.379 -0.0464 -0.3342  0.3036
  235MOL   C17347441   3.226   5.473   0.326  0.0943 -0.3705  0.4698
  235MOL   C17447442   3.334   5.403   0.410  0.2931  0.2222 -0.2053
  235MOL   O17547443   3.332   5.406   0.534  1.1221  0.9217 -0.6999
  235MOL   N17647444   3.434   5.338   0.348  0.2023  0.2220 -0.4434
  235MOL   H17747445   3.066   5.474   0.481  0.8759 -1.0214  0.7077
  235MOL   H17847446   3.017   5.494   0.314  2.5768  0.3819 -1.9709
  235MOL   H17947447   3.217   5.441   0.222 -1.5349 -1.8472  1.0287
  235MOL   H18047448   3.426   5.330   0.248 -0.6802  2.1075 -0.5517
  235MOL   H18147449   3.512   5.298   0.397 -0.0423  1.6946  1.2220
  235MOL   C18247450   3.263   5.626   0.322 -0.0466 -0.2172 -0.1692
  235MOL   C18347451   3.149   5.723   0.367  0.2898 -0.4121 -0.8378
  235MOL   C18447452   3.027   5.733   0.272  0.9545  0.4550  0.6319
  235MOL   O18547453   3.049   5.729   0.154  0.2453  1.2342 -0.0782
  235MOL   N18647454   2.906   5.740   0.323 -0.5630  0.5685  0.1774
  235MOL   H18747455   3.288   5.644   0.217  1.8014  0.7954  0.4180
  235MOL   H18847456   3.344   5.656   0.388 -0.6096 -1.5365  1.1477
  235MOL   H18947457   3.116   5.701   0.469  1.3069 -0.2875 -0.4690
  235MOL   H19047458   2.887   5.750   0.422  0.5129  1.2785  0.3256
  235MOL   H19147459   2.830   5.734   0.257 -1.0887  0.9030  0.7371
  235MOL   C19247460   3.210   5.869   0.386 -0.4010  0.4488 -0.2832
  235MOL   C19347461   3.151   5.932   0.512  1.1919  0.3225 -0.5444
  235MOL   C19447462   3.239   5.902   0.635  0.3583 -0.0348 -0.1081
  235MOL   O19547463   3.357   5.933   0.640 -0.2776  0.0472 -0.0695
  235MOL   N19647464   3.175   5.851   0.741  0.4207  0.0997  0.5192
  235MOL   H19747465   3.185   5.932   0.300  0.8462 -1.5108 -2.1178
  235MOL   H19847466   3.318   5.875   0.390 -0.3319  1.1971 -2.4247
  235MOL   H19947467   3.143   6.040   0.503 -2.3819  0.1532 -0.0353
  235MOL   H20047468   3.217   5.847   0.832 -0.3744 -0.1947  0.8736
  235MOL   H20147469   3.075   5.841   0.741  0.3381  0.8424  0.3734
  235MOL   H20247470   3.048   5.905   0.534  2.2214 -4.0137 -0.5298
  236MOL     C147471   3.299   1.905   2.399  0.0073  0.5986 -0.9122
  236MOL     C247472   3.338   2.024   2.489 -0.0932  0.0833 -0.6095
  236MOL     C347473   3.371   2.144   2.407  0.1184  0.2997  0.1848
  236MOL     O447474   3.464   2.149   2.331  0.0986  0.3627 -0.3546
  236MOL     N547475   3.287   2.245   2.409 -0.5134  0.0865  0.3076
  236MOL     H647476   3.260   1.925   2.299 -1.5785 -2.4789 -0.9783
  236MOL     H747477   3.382   1.840   2.374 -0.8018  0.3240 -2.9483
  236MOL     H847478   3.247   2.055   2.541 -0.5509 -2.2974  0.0742
  236MOL     H947479   3.305   2.337   2.371  0.9120  0.3318  1.5537
  236MOL    H1047480   3.201   2.215   2.451 -0.8417  0.3672 -0.1585
  236MOL    H1147481   3.228   1.835   2.444  1.9812 -1.2272 -0.5721
  236MOL    C1247482   3.429   1.982   2.607 -0.1845  0.2361  0.0555
  236MOL    C1347483   3.450   2.082   2.725  0.0456  0.5745  0.2811
  236MOL    C1447484   3.574   2.039   2.800 -1.0695  0.3399 -0.4000
  236MOL    O1547485   3.641   1.937   2.779  0.0155 -0.1552 -0.0243
  236MOL    N1647486   3.610   2.134   2.885  0.3093  0.8659 -0.1955
  236MOL    H1747487   3.522   1.949   2.560  0.2575  1.1272  0.2942
  236MOL    H1847488   3.383   1.893   2.650  1.6739 -0.2379  1.1128
  236MOL    H1947489   3.464   2.179   2.677 -1.4949  0.0248 -1.3439
  236MOL    H2047490   3.545   2.201   2.923  0.2714  1.0270 -0.5407
  236MOL    H2147491   3.690   2.124   2.946  1.0538 -0.6928 -1.3858
  236MOL    C2247492   3.321   2.079   2.807 -0.2789  0.3853 -0.1943
  236MOL    C2347493   3.236   2.201   2.810  0.0097  0.6343 -0.2844
  236MOL    C2447494   3.310   2.306   2.886 -0.8647  0.1010 -0.4607
  236MOL    O2547495   3.340   2.285   3.008  0.6628 -0.2333 -0.4247
  236MOL    N2647496   3.342   2.418   2.821  0.4174 -0.3292 -0.0508
  236MOL    H2747497   3.350   2.049   2.908 -0.9594  2.9529  0.8070
  236MOL    H2847498   3.248   2.005   2.776  0.8653  0.0809 -2.2568
  236MOL    H2947499   3.216   2.249   2.714  3.0785  2.6116  0.0070
  236MOL    H3047500   3.305   2.443   2.730 -2.0325 -3.0676  0.1109
  236MOL    H3147501   3.372   2.495   2.880 -0.1717  1.7258 -2.3681
  236MOL    C3247502   3.098   2.174   2.879  0.2950 -1.3926 -0.3324
  236MOL    C3347503   2.981   2.245   2.799  0.6869 -0.2515 -0.1750
  236MOL    C3447504   2.996   2.401   2.798 -0.0165  0.6898  0.5126
  236MOL    O3547505   2.999   2.464   2.906 -0.0505  0.6498  0.2308
  236MOL    N3647506   3.001   2.462   2.680 -0.1267  0.1002 -0.6628
  236MOL    H3747507   3.090   2.184   2.987 -1.0133  0.8990 -0.6155
  236MOL    H3847508   3.078   2.067   2.884 -1.6544 -1.0808 -1.0027
  236MOL    H3947509   2.961   2.205   2.700 -0.4062  0.6776 -0.3327
  236MOL    H4047510   3.004   2.415   2.591 -0.3093 -1.0101 -0.0904
  236MOL    H4147511   2.988   2.562   2.673 -0.7986  0.2930  2.6005
  236MOL    C4247512   2.852   2.216   2.881  0.3808  0.2349 -0.3591
  236MOL    C4347513   2.720   2.197   2.806  0.0722  0.1511  0.1648
  236MOL    C4447514   2.674   2.335   2.753  0.4005  0.0411  0.3901
  236MOL    O4547515   2.629   2.426   2.826  0.4862 -0.3812 -0.2101
  236MOL    N4647516   2.680   2.363   2.622 -0.4054 -0.3972 -0.1146
  236MOL    H4747517   2.833   2.286   2.962 -1.6125 -1.8308  1.0202
  236MOL    H4847518   2.867   2.120   2.932  1.6275 -0.1164 -1.3462
  236MOL    H4947519   2.735   2.133   2.718 -1.3107 -0.7765  0.5809
  236MOL    H5047520   2.640   2.447   2.582  0.7529  0.0510 -0.3515
  236MOL    H5147521   2.748   2.320   2.561  0.0006  0.1479 -0.0538
  236MOL    C5247522   2.614   2.136   2.899 -0.0484 -0.0766  0.7298
  236MOL    C5347523   2.500   2.049   2.832  0.2266 -0.0143  0.1769
  236MOL    C5447524   2.374   2.049   2.922 -0.0621  0.1931  0.3058
  236MOL    O5547525   2.377   2.016   3.043  0.0328 -0.2031 -0.0465
  236MOL    N5647526   2.259   2.089   2.866  0.2387  0.3809  0.3176
  236MOL    H5747527   2.562   2.222   2.941 -1.6495 -0.0844 -1.1402
  236MOL    H5847528   2.654   2.086   2.987 -0.7159 -1.4818  0.2529
  236MOL    H5947529   2.478   2.090   2.734  0.8065  0.3271  0.1871
  236MOL    H6047530   2.172   2.094   2.917 -0.5123  1.8253 -1.0683
  236MOL    H6147531   2.261   2.110   2.767 -0.7587 -2.9092 -0.4421
  236MOL    C6247532   2.558   1.901   2.814 -0.2655 -0.0422 -0.3332
  236MOL    C6347533   2.623   1.858   2.681 -0.1129 -0.0589  0.0057
  236MOL    C6447534   2.513   1.830   2.576  0.4406 -0.4631  0.3800
  236MOL    O6547535   2.414   1.758   2.599  0.4985 -0.3020 -0.3753
  236MOL    N6647536   2.529   1.887   2.457 -0.2557 -0.0347 -0.8045
  236MOL    H6747537   2.483   1.832   2.851 -1.3729  1.3803  0.0871
  236MOL    H6847538   2.636   1.894   2.889  0.2413 -1.2326 -0.9466
  236MOL    H6947539   2.674   1.945   2.641  1.9549 -1.0386  0.4693
  236MOL    H7047540   2.612   1.935   2.427  0.9843 -2.1198 -0.8190
  236MOL    H7147541   2.462   1.856   2.389 -1.8084  0.0919  0.6392
  236MOL    C7247542   2.723   1.746   2.712  0.2339  0.6890 -0.7240
  236MOL    C7347543   2.860   1.748   2.635  0.1414 -0.2573 -0.1808
  236MOL    C7447544   2.844   1.707   2.490  0.4658  0.5236  0.5586
  236MOL    O7547545   2.929   1.729   2.404 -0.4044 -0.2824  0.4209
  236MOL    N7647546   2.745   1.627   2.452  0.0421 -0.2338 -0.4715
  236MOL    H7747547   2.671   1.653   2.691  1.9264 -0.2963 -0.5694
  236MOL    H7847548   2.747   1.729   2.817  0.2796  1.2396 -0.6396
  236MOL    H7947549   2.877   1.856   2.637 -0.8072 -0.1153  3.0303
  236MOL    H8047550   2.738   1.592   2.357  1.7717 -1.7020 -0.0833
  236MOL    H8147551   2.688   1.588   2.525 -2.1485  1.1388 -1.3850
  236MOL    C8247552   2.984   1.712   2.719  0.2330  0.6768 -0.6024
  236MOL    C8347553   3.022   1.565   2.718 -0.3890  0.2050  0.6085
  236MOL    C8447554   2.910   1.462   2.733  0.2040  0.6198 -0.4097
  236MOL    O8547555   2.850   1.452   2.840 -0.0839 -0.1068  0.7684
  236MOL    N8647556   2.867   1.386   2.632 -0.5156  0.3035  0.2926
  236MOL    H8747557   2.972   1.741   2.823  0.7524  3.2106 -1.2284
  236MOL    H8847558   3.075   1.763   2.690  0.6582  1.5155  2.0894
  236MOL    H8947559   3.066   1.549   2.620  0.5328  2.6566  0.5867
  236MOL    H9047560   2.802   1.313   2.658  3.2055 -2.3455  2.7019
  236MOL    H9147561   2.910   1.396   2.541 -0.5573  1.0416  0.3495
  236MOL    C9247562   3.133   1.548   2.827  0.5059 -0.8163  0.2117
  236MOL    C9347563   3.235   1.429   2.818  0.5378  0.1522  0.6276
  236MOL    C9447564   3.278   1.384   2.954  0.5402 -0.3766  1.0079
  236MOL    O9547565   3.310   1.467   3.037 -0.3126 -0.3490 -0.0412
  236MOL    N9647566   3.266   1.257   2.986 -0.7097  0.0752  0.4550
  236MOL    H9747567   3.075   1.542   2.919  0.8238 -0.5153  0.4339
  236MOL    H9847568   3.187   1.641   2.842  0.1549 -0.6524  0.4517
  236MOL    H9947569   3.186   1.343   2.773 -0.5232 -0.0230  2.0595
  236MOL   H10047570   3.236   1.187   2.919 -1.1668 -0.0407  0.7789
  236MOL   H10147571   3.274   1.219   3.079 -0.6768 -2.9989 -0.7296
  236MOL   C10247572   3.354   1.476   2.729 -0.0785 -0.2330 -0.1529
  236MOL   C10347573   3.438   1.354   2.674 -0.1747 -0.1080 -0.5451
  236MOL   C10447574   3.583   1.406   2.645 -0.0201  0.5439  0.5543
  236MOL   O10547575   3.679   1.339   2.676 -0.3998 -0.0442 -0.5610
  236MOL   N10647576   3.603   1.530   2.598 -0.2701 -1.1407 -0.1912
  236MOL   H10747577   3.412   1.547   2.788  3.2000 -1.7383 -1.5051
  236MOL   H10847578   3.319   1.524   2.638  2.3500  1.8329 -0.0584
  236MOL   H10947579   3.447   1.282   2.756  2.7406  3.1033  2.1439
  236MOL   H11047580   3.696   1.569   2.594 -0.5814  0.2470  3.4591
  236MOL   H11147581   3.527   1.590   2.572 -0.2601  0.0682  2.3823
  236MOL   C11247582   3.381   1.288   2.544  0.4568  0.2534 -0.3204
  236MOL   C11347583   3.242   1.214   2.554  0.3920  0.0838  0.0049
  236MOL   C11447584   3.248   1.100   2.658 -0.0410 -0.1236 -0.0607
  236MOL   O11547585   3.189   1.101   2.767  0.4004 -0.0632  0.3807
  236MOL   N11647586   3.326   0.993   2.622  0.2972 -0.2039 -0.2868
  236MOL   H11747587   3.462   1.221   2.517  1.2472  1.2713 -0.4916
  236MOL   H11847588   3.376   1.365   2.467 -0.5154 -0.0394 -0.5661
  236MOL   H11947589   3.162   1.284   2.578  1.5481  2.2730 -2.2243
  236MOL   H12047590   3.331   0.917   2.688 -0.0081 -0.3570 -0.4417
  236MOL   H12147591   3.377   0.980   2.536  1.0389  0.2070  0.0838
  236MOL   C12247592   3.195   1.150   2.423 -0.5546  0.5279  0.1215
  236MOL   C12347593   3.042   1.117   2.402 -0.1704 -0.1503 -0.0683
  236MOL   C12447594   2.957   1.244   2.373 -0.5711 -0.4822  0.5060
  236MOL   O12547595   2.999   1.352   2.405 -0.2092 -0.0329 -0.4574
  236MOL   N12647596   2.856   1.238   2.289  0.3642  0.1688 -0.4097
  236MOL   H12747597   3.241   1.054   2.401  1.2330  1.2061  0.8796
  236MOL   H12847598   3.235   1.206   2.338 -0.2675  1.6777  0.9956
  236MOL   H12947599   3.050   1.060   2.309  0.4914 -0.3117  0.0871
  236MOL   H13047600   2.831   1.157   2.234  0.1893  1.3773 -2.1810
  236MOL   H13147601   2.807   1.325   2.272  1.7713  1.1996  0.6083
  236MOL   C13247602   2.983   1.017   2.510  0.3197 -0.1456 -0.1268
  236MOL   C13347603   2.872   0.920   2.454  0.5948 -0.4355  0.9538
  236MOL   C13447604   2.807   0.842   2.574  0.1067 -0.1507  0.6998
  236MOL   O13547605   2.856   0.746   2.632 -0.0722  0.2458  0.1454
  236MOL   N13647606   2.693   0.888   2.614 -0.0086 -0.2163  0.6677
  236MOL   H13747607   2.954   1.066   2.603 -1.3821 -0.5487 -0.4251
  236MOL   H13847608   3.059   0.943   2.534 -0.5937 -1.3583 -0.9146
  236MOL   H13947609   2.803   0.982   2.397 -1.4046 -2.0158  1.5928
  236MOL   H14047610   2.652   0.976   2.589 -0.1483  0.1533  2.1256
  236MOL   H14147611   2.648   0.835   2.688 -0.9224  2.2211  1.8850
  236MOL   C14247612   2.924   0.819   2.338  0.3788  0.8833 -0.2025
  236MOL   C14347613   2.820   0.766   2.238 -0.4215  0.2991  0.8315
  236MOL   C14447614   2.777   0.871   2.132 -0.0578  0.3367  0.2449
  236MOL   O14547615   2.761   0.990   2.156 -0.1929  0.5167 -0.0969
  236MOL   N14647616   2.752   0.835   2.006  0.5140 -0.1114  0.9279
  236MOL   H14747617   2.984   0.735   2.373 -0.5578  0.6296  0.8023
  236MOL   H14847618   2.993   0.879   2.278 -0.0248 -0.1144 -1.7057
  236MOL   H14947619   2.875   0.691   2.181  0.5739  1.9801 -0.4468
  236MOL   H15047620   2.748   0.911   1.940  0.1134 -0.4275  0.5850
  236MOL   H15147621   2.734   0.738   1.983 -0.9792  0.2624  0.4780
  236MOL   C15247622   2.696   0.700   2.296 -0.2577 -0.4755 -0.4821
  236MOL   C15347623   2.709   0.562   2.373  0.4751 -0.8287 -0.4073
  236MOL   C15447624   2.770   0.448   2.293  0.4225 -0.0290  0.2709
  236MOL   O15547625   2.716   0.428   2.186 -0.1728  0.0851 -0.5521
  236MOL   N15647626   2.877   0.381   2.334  0.0280  0.0583 -0.3025
  236MOL   H15747627   2.616   0.681   2.224 -0.4552 -2.0514  0.1275
  236MOL   H15847628   2.655   0.779   2.359  2.0910  0.3684  0.0232
  236MOL   H15947629   2.770   0.582   2.461 -1.1725  1.5541  0.2586
  236MOL   H16047630   2.926   0.316   2.274  1.0945  0.1708  0.4175
  236MOL   H16147631   2.925   0.410   2.418  0.9832 -0.0049 -0.8190
  236MOL   C16247632   2.575   0.513   2.428  0.8700 -0.2480 -0.0363
  236MOL   C16347633   2.565   0.389   2.513  0.4823 -0.6271 -0.3921
  236MOL   C16447634   2.471   0.287   2.456 -0.2201 -0.1280  0.6076
  236MOL   O16547635   2.351   0.291   2.486 -0.3428  0.5099  0.2467
  236MOL   N16647636   2.520   0.186   2.384  0.0659  0.1472  0.2278
  236MOL   H16747637   2.514   0.493   2.340  0.9166 -1.5920  0.2371
  236MOL   H16847638   2.522   0.599   2.471  1.7978  0.6759 -0.7218
  236MOL   H16947639   2.660   0.335   2.510  0.4018 -0.6995 -3.1416
  236MOL   H17047640   2.461   0.134   2.321  2.5871 -2.7507  0.1037
  236MOL   H17147641   2.619   0.181   2.362 -0.0692 -0.6380 -0.1945
  236MOL   C17247642   2.522   0.421   2.657  0.1371 -0.2475 -0.5735
  236MOL   C17347643   2.630   0.479   2.753 -0.3989 -0.0151  0.1953
  236MOL   C17447644   2.720   0.366   2.793  0.0938  0.7738  0.1292
  236MOL   O17547645   2.679   0.257   2.836  0.4011  0.0304  0.7085
  236MOL   N17647646   2.851   0.378   2.779  0.0603 -0.3147  0.0742
  236MOL   H17747647   2.474   0.335   2.704  2.0199 -1.9460 -1.6423
  236MOL   H17847648   2.433   0.483   2.660  0.4558  0.1649  0.7147
  236MOL   H17947649   2.690   0.552   2.699 -1.7977  0.3576 -0.8916
  236MOL   H18047650   2.882   0.464   2.737 -1.0728 -0.1901 -0.5400
  236MOL   H18147651   2.914   0.305   2.810  0.6298 -0.5678 -1.5825
  236MOL   C18247652   2.546   0.545   2.871  0.0690  0.7166  0.0009
  236MOL   C18347653   2.622   0.629   2.978  0.4506  0.2179 -0.4200
  236MOL   C18447654   2.522   0.650   3.094 -0.2763 -0.1510 -0.0742
  236MOL   O18547655   2.443   0.738   3.099 -0.3615 -0.1383  0.0038
  236MOL   N18647656   2.530   0.554   3.187 -0.1949 -0.5454 -0.1927
  236MOL   H18747657   2.498   0.466   2.929  0.3480  0.5164 -0.0424
  236MOL   H18847658   2.472   0.611   2.825 -0.0717  1.1256  0.8034
  236MOL   H18947659   2.713   0.579   3.010  1.2617  2.0324  0.1706
  236MOL   H19047660   2.597   0.479   3.174 -1.2352 -1.2372 -1.7205
  236MOL   H19147661   2.472   0.558   3.270  0.4640 -1.1184  0.3104
  236MOL   C19247662   2.675   0.765   2.921 -0.0982 -0.1137  0.1047
  236MOL   C19347663   2.765   0.851   3.017  0.1268  0.2405  0.6419
  236MOL   C19447664   2.817   0.981   2.956 -0.0611  0.1172 -0.0192
  236MOL   O19547665   2.742   1.075   2.951 -0.8059 -0.1769 -0.2438
  236MOL   N19647666   2.942   0.997   2.918  0.0721 -0.0552 -0.3332
  236MOL   H19747667   2.602   0.826   2.868  1.4966  0.9939 -0.8343
  236MOL   H19847668   2.742   0.729   2.843  0.1597 -1.1057  0.7766
  236MOL   H19947669   2.710   0.868   3.109  0.9255 -4.5606  2.1498
  236MOL   H20047670   2.980   1.085   2.883  2.5904 -0.6381  0.8290
  236MOL   H20147671   3.000   0.915   2.929 -0.0828  0.1489  2.1267
  236MOL   H20247672   2.849   0.789   3.048  1.6436  0.3876 -2.8627
  237MOL     C147673   4.953   4.637   4.924  0.2467 -0.0151 -0.2259
  237MOL     C247674   4.904   4.707   4.803 -0.0535 -0.0312  0.0922
  237MOL     C347675   4.979   4.654   4.688 -0.7558 -0.2538  0.4366
  237MOL     O447676   5.089   4.692   4.651  0.4620  0.3022  0.4700
  237MOL     N547677   4.920   4.559   4.613  0.4480  0.4781 -0.2687
  237MOL     H647678   4.893   4.546   4.925 -1.1931  0.9083 -1.0115
  237MOL     H747679   5.057   4.606   4.934 -0.0030 -0.1644  2.0278
  237MOL     H847680   4.804   4.665   4.800 -0.7033  1.5360 -0.7505
  237MOL     H947681   4.822   4.542   4.627 -0.6562  4.7287 -2.2391
  237MOL    H1047682   4.980   4.518   4.542  0.8138  1.1907 -0.3755
  237MOL    H1147683   4.923   4.689   5.015 -1.3705  0.1595 -0.8374
  237MOL    C1247684   4.887   4.863   4.794  0.1009  0.8567  0.1368
  237MOL    C1347685   4.764   4.924   4.734 -0.0086 -0.5707  0.4806
  237MOL    C1447686   4.727   4.867   4.596  0.2364  0.1016  0.0616
  237MOL    O1547687   4.813   4.849   4.508  0.1329 -0.3241  0.2841
  237MOL    N1647688   4.595   4.837   4.581  0.1225 -0.1666  0.2193
  237MOL    H1747689   4.972   4.914   4.748 -0.8396  1.4349 -0.9720
  237MOL    H1847690   4.877   4.906   4.894 -3.2618  1.1875 -0.2984
  237MOL    H1947691   4.679   4.902   4.798 -0.4096 -3.2955 -0.9129
  237MOL    H2047692   4.559   4.783   4.504  0.7822 -2.1545  1.2592
  237MOL    H2147693   4.531   4.849   4.658 -1.1275  1.1941 -1.0003
  237MOL    C2247694   4.782   5.080   4.726  0.8155 -0.1144  0.4444
  237MOL    C2347695   4.659   5.161   4.689  0.1600  0.8717  1.1420
  237MOL    C2447696   4.699   5.306   4.650  0.6406  0.1454 -0.4192
  237MOL    O2547697   4.651   5.405   4.707  0.6121  0.1771  0.5462
  237MOL    N2647698   4.771   5.325   4.539  0.8870  0.2498 -0.3354
  237MOL    H2747699   4.876   5.093   4.673 -0.1039  1.2543 -0.8656
  237MOL    H2847700   4.806   5.114   4.827 -0.8947 -1.0424  1.2004
  237MOL    H2947701   4.625   5.115   4.596 -1.2338 -0.0255  2.0771
  237MOL    H3047702   4.812   5.413   4.510  1.9078 -0.9617 -2.6991
  237MOL    H3147703   4.818   5.241   4.507 -0.6116 -0.5542 -0.4618
  237MOL    C3247704   4.536   5.155   4.783  0.1646  0.2333 -0.3094
  237MOL    C3347705   4.522   5.215   4.920  0.0578  0.1326 -0.1232
  237MOL    C3447706   4.557   5.116   5.042 -0.5172  0.0426  0.0017
  237MOL    O3547707   4.652   5.043   5.036  0.2004 -0.0712 -0.6853
  237MOL    N3647708   4.480   5.100   5.147  0.2193  0.4647 -0.0280
  237MOL    H3747709   4.506   5.050   4.795  0.7501  0.0153 -0.7519
  237MOL    H3847710   4.449   5.191   4.728  0.9985 -0.1528 -1.9057
  237MOL    H3947711   4.588   5.302   4.917 -1.1926  1.0466 -1.4754
  237MOL    H4047712   4.518   5.048   5.226  0.3874  0.2020 -0.2802
  237MOL    H4147713   4.392   5.147   5.156  0.7095  1.0758  1.9266
  237MOL    C4247714   4.389   5.291   4.939 -0.1481 -0.2964  0.0535
  237MOL    C4347715   4.398   5.446   4.908 -0.1925  0.3985  0.0525
  237MOL    C4447716   4.491   5.512   5.015 -0.4618 -0.5634  0.1776
  237MOL    O4547717   4.463   5.520   5.130  0.6800  0.3657  0.7944
  237MOL    N4647718   4.612   5.550   4.977 -0.6678  0.2237 -0.4381
  237MOL    H4747719   4.354   5.285   5.042  2.4474  0.5156  1.0327
  237MOL    H4847720   4.308   5.249   4.880 -0.2866 -2.2685  1.6047
  237MOL    H4947721   4.436   5.456   4.806  0.9504 -1.5358  0.2592
  237MOL    H5047722   4.639   5.539   4.880 -3.8990 -0.6683 -1.2946
  237MOL    H5147723   4.690   5.571   5.038  0.9454 -0.5257 -2.1804
  237MOL    C5247724   4.258   5.509   4.900 -0.2076 -0.6311 -0.6537
  237MOL    C5347725   4.236   5.614   4.781 -0.1404 -0.7373 -0.3952
  237MOL    C5447726   4.343   5.721   4.801  0.7210  0.3627  0.7935
  237MOL    O5547727   4.342   5.803   4.894  0.4881 -0.3467 -0.5280
  237MOL    N5647728   4.438   5.718   4.706  0.3230  0.0283  0.1858
  237MOL    H5747729   4.227   5.552   4.996 -1.3799 -0.5015 -1.0857
  237MOL    H5847730   4.188   5.428   4.879  1.9768 -2.3615 -1.4829
  237MOL    H5947731   4.261   5.572   4.684 -0.5436 -1.3953 -0.2167
  237MOL    H6047732   4.447   5.638   4.645 -2.8448  0.3058 -0.7034
  237MOL    H6147733   4.495   5.800   4.697 -1.8482  1.1581 -4.0727
  237MOL    C6247734   4.090   5.674   4.786 -0.0498  0.6013 -0.0346
  237MOL    C6347735   4.043   5.752   4.662  0.0976 -0.3304  0.4503
  237MOL    C6447736   4.107   5.888   4.627  0.0370  0.0993 -0.5689
  237MOL    O6547737   4.080   5.985   4.694 -0.3626 -0.0931 -0.1668
  237MOL    N6647738   4.196   5.888   4.526  0.0348 -0.2911 -0.4591
  237MOL    H6747739   4.076   5.738   4.873  0.4250  0.4420  0.1600
  237MOL    H6847740   4.030   5.587   4.814 -0.8427  1.0985 -0.1574
  237MOL    H6947741   4.069   5.695   4.573  0.7992  1.0037 -0.2091
  237MOL    H7047742   4.255   5.970   4.524  0.3627 -0.5391 -0.8457
  237MOL    H7147743   4.217   5.801   4.480 -0.4179  0.7972 -2.8488
  237MOL    C7247744   3.886   5.766   4.650  0.4981 -0.5336 -0.3746
  237MOL    C7347745   3.819   5.690   4.547 -0.1576 -0.0564  0.6250
  237MOL    C7447746   3.845   5.757   4.410 -0.0839 -0.0850 -0.0128
  237MOL    O7547747   3.787   5.856   4.375  0.0116 -0.2711  0.2311
  237MOL    N7647748   3.934   5.699   4.333  0.3053 -0.3244  0.1718
  237MOL    H7747749   3.858   5.871   4.638  1.9289 -0.1821 -0.7610
  237MOL    H7847750   3.849   5.736   4.748 -0.7706 -0.5434 -0.8499
  237MOL    H7947751   3.872   5.594   4.548  0.2995  0.1927  0.3943
  237MOL    H8047752   3.974   5.609   4.354  1.9012  0.0988 -0.9413
  237MOL    H8147753   3.943   5.748   4.245  1.6280 -0.1897  0.3673
  237MOL    C8247754   3.670   5.679   4.577 -0.4352  0.4206 -0.2102
  237MOL    C8347755   3.587   5.581   4.485 -0.1058 -0.1113 -0.4305
  237MOL    C8447756   3.436   5.601   4.510  0.7704 -0.4969 -0.3397
  237MOL    O8547757   3.389   5.581   4.623  0.0400 -0.2357  0.2400
  237MOL    N8647758   3.363   5.634   4.407  0.3938 -0.4696  0.0449
  237MOL    H8747759   3.624   5.778   4.569  0.7352  1.0896  1.2867
  237MOL    H8847760   3.660   5.642   4.679  2.2173 -2.3381 -0.8889
  237MOL    H8947761   3.611   5.604   4.381 -1.4530  0.0267 -0.7317
  237MOL    H9047762   3.395   5.671   4.318  0.0292  0.9568  0.5011
  237MOL    H9147763   3.266   5.660   4.423  1.2840  2.7375  0.5068
  237MOL    C9247764   3.610   5.433   4.510 -0.3475 -0.0223 -0.5861
  237MOL    C9347765   3.553   5.340   4.401 -0.7756 -0.1730 -0.0206
  237MOL    C9447766   3.432   5.254   4.443 -0.5298 -0.9610  0.0946
  237MOL    O9547767   3.437   5.185   4.543 -0.0723  0.2384 -0.4161
  237MOL    N9647768   3.325   5.265   4.363  0.4645 -0.0871 -0.4513
  237MOL    H9747769   3.593   5.405   4.614  0.6563  2.1616  0.2008
  237MOL    H9847770   3.719   5.422   4.508 -0.4307 -0.7730 -1.0865
  237MOL    H9947771   3.527   5.398   4.313  3.2254 -0.3903 -1.4467
  237MOL   H10047772   3.244   5.211   4.389 -0.4836  1.2808 -0.4962
  237MOL   H10147773   3.327   5.318   4.277  0.2353 -0.5660 -0.7504
  237MOL   C10247774   3.664   5.251   4.335  0.4964 -0.6333  0.0156
  237MOL   C10347775   3.622   5.186   4.199  0.2862  0.3701  0.2793
  237MOL   C10447776   3.698   5.054   4.185  0.7913 -0.3207 -0.3437
  237MOL   O10547777   3.817   5.039   4.215  0.0920  0.0475  0.1724
  237MOL   N10647778   3.636   4.961   4.112 -0.1812 -0.0012  0.0320
  237MOL   H10747779   3.685   5.176   4.410 -0.0160 -1.2081 -0.4117
  237MOL   H10847780   3.760   5.302   4.327  1.9380 -3.0729  1.2816
  237MOL   H10947781   3.517   5.158   4.205  0.4649 -0.1258  1.1690
  237MOL   H11047782   3.559   4.994   4.056 -0.6747  0.9075  1.2074
  237MOL   H11147783   3.689   4.877   4.093  0.4935 -0.0673  2.0440
  237MOL   C11247784   3.653   5.286   4.083  0.3096  0.1287 -0.1136
  237MOL   C11347785   3.540   5.349   3.993 -0.7036  0.5689 -0.2574
  237MOL   C11447786   3.460   5.459   4.069 -0.0046  0.4266  0.3584
  237MOL   O11547787   3.370   5.431   4.144 -0.3392  0.0283  0.8001
  237MOL   N11647788   3.508   5.585   4.057  0.4449 -0.0324 -0.2706
  237MOL   H11747789   3.716   5.236   4.010  2.4570 -0.5233  2.1110
  237MOL   H11847790   3.717   5.360   4.131  0.3284 -0.3501  0.6114
  237MOL   H11947791   3.599   5.408   3.923  1.1982  0.8250  1.4934
  237MOL   H12047792   3.586   5.586   3.992  0.1560  0.0007 -0.6189
  237MOL   H12147793   3.452   5.662   4.088 -0.9786 -0.1481 -2.4056
  237MOL   C12247794   3.447   5.261   3.917  0.8098  0.0008  0.6383
  237MOL   C12347795   3.426   5.304   3.765 -0.0453  0.1820 -0.1900
  237MOL   C12447796   3.376   5.445   3.745  0.1273  0.2697 -0.0423
  237MOL   O12547797   3.281   5.485   3.806  0.6834  1.3774 -0.1719
  237MOL   N12647798   3.434   5.523   3.659  0.8700  0.2898 -0.0482
  237MOL   H12747799   3.349   5.275   3.961 -0.7502 -0.2562 -2.6482
  237MOL   H12847800   3.476   5.156   3.920 -0.7489 -0.4612 -0.3810
  237MOL   H12947801   3.530   5.306   3.734  0.1167  2.3969  0.4580
  237MOL   H13047802   3.401   5.618   3.651 -2.3045 -0.7248  0.4566
  237MOL   H13147803   3.512   5.500   3.599 -0.4730 -2.5946 -0.7928
  237MOL   C13247804   3.351   5.204   3.687  0.0023  0.7691  0.1182
  237MOL   C13347805   3.213   5.170   3.742 -0.4874  0.3435 -0.3644
  237MOL   C13447806   3.220   5.041   3.831  0.9646 -0.1139 -0.1162
  237MOL   O13547807   3.247   4.931   3.786  0.3879  0.0454 -0.0340
  237MOL   N13647808   3.203   5.045   3.965 -0.1555  0.1569 -0.0346
  237MOL   H13747809   3.405   5.110   3.685 -1.1927  0.0719  0.4579
  237MOL   H13847810   3.354   5.226   3.580  2.0942 -1.6088 -0.3638
  237MOL   H13947811   3.173   5.252   3.801 -0.4416 -0.1068  0.3011
  237MOL   H14047812   3.166   4.958   4.000 -0.8571  0.5047  0.0807
  237MOL   H14147813   3.164   5.128   4.006 -0.1736 -0.1409  0.5468
  237MOL   C14247814   3.119   5.142   3.623 -0.1599 -0.2951  0.0752
  237MOL   C14347815   2.961   5.119   3.639  0.0554 -0.1643 -0.2007
  237MOL   C14447816   2.901   5.092   3.502 -0.4801  0.2393  0.5055
  237MOL   O14547817   2.876   5.179   3.418 -0.2944  0.4101 -0.8054
  237MOL   N14647818   2.867   4.965   3.468  0.1013 -0.3287 -0.0328
  237MOL   H14747819   3.147   5.056   3.562 -0.9840  0.5199 -1.4812
  237MOL   H14847820   3.134   5.209   3.538 -1.4941  0.0989  0.1414
  237MOL   H14947821   2.949   5.030   3.700 -2.1383  1.0123  1.1701
  237MOL   H15047822   2.879   4.893   3.538 -2.8960 -0.1889  0.6801
  237MOL   H15147823   2.847   4.945   3.371  1.6395  2.1144 -0.9035
  237MOL   C15247824   2.901   5.235   3.716  0.6646 -0.4874  0.1553
  237MOL   C15347825   2.893   5.237   3.874 -0.3368 -0.1704  0.5364
  237MOL   C15447826   2.807   5.109   3.915 -0.4106 -0.2739  0.9230
  237MOL   O15547827   2.869   5.013   3.958  0.3527 -0.2861 -0.1324
  237MOL   N15647828   2.673   5.115   3.899 -0.5247  0.6872  0.0652
  237MOL   H15747829   2.797   5.241   3.683  0.4913 -0.7420  0.6438
  237MOL   H15847830   2.958   5.319   3.678  1.6281  0.2110  3.0386
  237MOL   H15947831   2.989   5.236   3.926  0.4397  0.4407 -0.8797
  237MOL   H16047832   2.626   5.204   3.888  1.0557  1.4947 -0.1653
  237MOL   H16147833   2.613   5.034   3.905 -0.5355  0.7344  0.6512
  237MOL   C16247834   2.823   5.371   3.914 -0.1675  0.2081  0.2031
  237MOL   C16347835   2.927   5.489   3.937  0.0090 -0.4723 -0.5768
  237MOL   C16447836   3.004   5.468   4.070 -0.2557 -0.5712  0.4207
  237MOL   O16547837   2.975   5.385   4.152  0.5480 -0.1701 -0.4069
  237MOL   N16647838   3.117   5.537   4.079  0.1092 -0.1704  0.2701
  237MOL   H16747839   2.766   5.354   4.005 -0.5846  0.9696  0.0901
  237MOL   H16847840   2.752   5.407   3.839  0.4149  0.3380 -0.2897
  237MOL   H16947841   3.007   5.492   3.863  0.1155  0.7297 -0.4139
  237MOL   H17047842   3.190   5.506   4.142  1.0562 -2.9671 -2.1308
  237MOL   H17147843   3.139   5.588   3.995 -0.3467  0.0349  0.2711
  237MOL   C17247844   2.860   5.628   3.934 -0.0363  0.9849  0.0954
  237MOL   C17347845   2.834   5.669   3.790  0.1618 -0.3263  0.4707
  237MOL   C17447846   2.966   5.719   3.726 -0.1419 -0.4863  0.0390
  237MOL   O17547847   3.037   5.806   3.782 -0.0379 -0.0867 -0.3064
  237MOL   N17647848   2.998   5.674   3.604  0.9804 -0.6478  0.4313
  237MOL   H17747849   2.919   5.700   3.990  0.4646  1.0488 -0.5096
  237MOL   H17847850   2.764   5.613   3.985  0.0613 -1.6094 -0.4222
  237MOL   H17947851   2.801   5.584   3.730 -2.9863  2.3479 -1.7498
  237MOL   H18047852   2.935   5.619   3.548  1.3429 -0.0589 -0.5515
  237MOL   H18147853   3.091   5.687   3.568  0.8760  2.7789  1.2466
  237MOL   C18247854   2.722   5.768   3.786 -0.2376 -1.0203 -0.2839
  237MOL   C18347855   2.670   5.826   3.648  0.3363 -0.0890 -0.5136
  237MOL   C18447856   2.582   5.945   3.660 -0.6986 -0.2349 -0.3847
  237MOL   O18547857   2.573   6.022   3.569 -0.8844 -0.3354 -0.1390
  237MOL   N18647858   2.506   5.962   3.771 -0.6645 -0.0164  0.0544
  237MOL   H18747859   2.739   5.850   3.856  0.3786  0.9533 -2.6844
  237MOL   H18847860   2.642   5.720   3.842  1.7073 -2.1824  1.5861
  237MOL   H18947861   2.760   5.860   3.597 -0.1721 -0.7722 -1.8905
  237MOL   H19047862   2.496   5.898   3.848 -2.2921  1.5048  1.1460
  237MOL   H19147863   2.493   6.059   3.797 -3.2709 -0.0377 -1.0368
  237MOL   C19247864   2.615   5.702   3.566  0.0246  0.0615  1.3245
  237MOL   C19347865   2.573   5.741   3.418  0.0515 -0.3369 -0.2539
  237MOL   C19447866   2.626   5.629   3.326 -0.0060 -0.1612 -0.1705
  237MOL   O19547867   2.553   5.531   3.303  0.1287 -0.7718 -0.2352
  237MOL   N19647868   2.747   5.636   3.281  0.0380  0.4660  0.6367
  237MOL   H19747869   2.541   5.646   3.623  1.0905 -1.4006  1.2958
  237MOL   H19847870   2.695   5.628   3.564  0.2340  0.2804  1.5046
  237MOL   H19947871   2.468   5.770   3.411  0.1427  0.1285  0.2084
  237MOL   H20047872   2.779   5.569   3.213  0.1055  1.3020 -0.1556
  237MOL   H20147873   2.806   5.717   3.290 -0.1296  0.6145  0.3676
  237MOL   H20247874   2.621   5.835   3.390  1.3591 -1.5486 -2.2024
  238MOL     C147875   6.986   3.695   1.125  0.5557 -0.1783 -0.1188
  238MOL     C247876   6.980   3.656   1.272  0.2038  0.5513  0.4202
  238MOL     C347877   6.982   3.503   1.292 -0.2744  0.2183  0.3929
  238MOL     O447878   6.897   3.433   1.244 -0.2110  0.1411 -0.1494
  238MOL     N547879   7.087   3.451   1.360 -0.2812 -0.2366 -0.2267
  238MOL     H647880   6.992   3.804   1.124  0.0449 -0.1418  0.4903
  238MOL     H747881   7.072   3.654   1.071  0.5340  0.2208 -0.4641
  238MOL     H847882   7.072   3.699   1.314 -0.4057 -0.0331  2.3785
  238MOL     H947883   7.101   3.352   1.352  0.4599 -0.3041  1.7999
  238MOL    H1047884   7.153   3.514   1.403 -1.5886 -0.3937  2.0904
  238MOL    H1147885   6.892   3.673   1.073  0.7374 -1.7564  0.2177
  238MOL    C1247886   6.853   3.720   1.335 -0.3327 -0.0248  0.1275
  238MOL    C1347887   6.827   3.718   1.491  0.1649 -0.5871  0.3466
  238MOL    C1447888   6.785   3.577   1.548 -0.0562 -0.5429  0.3388
  238MOL    O1547889   6.849   3.525   1.640 -0.1783  0.2794 -0.4733
  238MOL    N1647890   6.674   3.522   1.503 -0.6255  0.4075 -0.0973
  238MOL    H1747891   6.767   3.667   1.295 -0.3045  0.0526 -0.0365
  238MOL    H1847892   6.859   3.826   1.308 -0.1252  0.3156  1.4814
  238MOL    H1947893   6.922   3.748   1.537 -1.0799  2.4509  1.0588
  238MOL    H2047894   6.626   3.562   1.424  1.9388  1.1840 -1.3295
  238MOL    H2147895   6.650   3.426   1.524 -0.3244 -0.1967 -2.3824
  238MOL    C2247896   6.720   3.821   1.545  0.1886 -0.6133 -0.2138
  238MOL    C2347897   6.741   3.907   1.671 -1.3560 -0.4568 -0.1459
  238MOL    C2447898   6.619   4.000   1.687  0.1343 -0.3228  0.0442
  238MOL    O2547899   6.597   4.101   1.613 -0.2891 -0.0922 -0.1007
  238MOL    N2647900   6.533   3.972   1.784  0.0498 -0.3426 -0.4836
  238MOL    H2747901   6.624   3.769   1.551 -0.0825 -0.1710 -0.7484
  238MOL    H2847902   6.706   3.895   1.467 -2.5629 -0.8954 -0.0370
  238MOL    H2947903   6.745   3.841   1.757 -0.7634  0.4547  0.5477
  238MOL    H3047904   6.564   3.886   1.827  1.2443 -0.4969 -1.6045
  238MOL    H3147905   6.452   4.028   1.808  1.2543  2.1850 -2.0877
  238MOL    C3247906   6.872   3.985   1.669 -0.2142  0.1986 -0.6773
  238MOL    C3347907   6.971   3.967   1.791 -0.3148  0.9362  0.7718
  238MOL    C3447908   7.093   4.056   1.770  0.7372  0.6439 -0.3082
  238MOL    O3547909   7.098   4.121   1.671 -0.3904 -0.4494 -0.1475
  238MOL    N3647910   7.186   4.061   1.862 -0.1254 -0.9609 -0.0456
  238MOL    H3747911   6.866   4.092   1.650  0.8857  0.5928  1.1431
  238MOL    H3847912   6.921   3.952   1.577 -0.1997 -0.9783 -0.2539
  238MOL    H3947913   6.917   4.014   1.873  0.6535  1.0578  1.3523
  238MOL    H4047914   7.262   4.126   1.853 -1.3383  0.8494  2.4043
  238MOL    H4147915   7.168   4.031   1.957 -2.4483 -1.2890 -0.5577
  238MOL    C4247916   6.993   3.827   1.853  0.2833 -0.0769  0.3556
  238MOL    C4347917   6.939   3.792   1.995  0.5766 -0.0677  0.1693
  238MOL    C4447918   6.985   3.888   2.109  0.6622  0.3013  0.3275
  238MOL    O4547919   7.094   3.936   2.102  0.0660  0.2405 -0.2440
  238MOL    N4647920   6.912   3.913   2.215 -0.6608 -0.6783 -0.3923
  238MOL    H4747921   7.100   3.810   1.847  0.0400 -1.3292 -0.8098
  238MOL    H4847922   6.955   3.758   1.777  1.4531  0.1317 -0.4192
  238MOL    H4947923   6.831   3.807   1.995  0.7704  1.5803  1.9182
  238MOL    H5047924   6.817   3.879   2.219 -1.2725  1.1290  1.3407
  238MOL    H5147925   6.949   3.969   2.290 -1.5136  0.1665 -0.5821
  238MOL    C5247926   6.975   3.652   2.043 -0.6734 -0.1782 -0.2335
  238MOL    C5347927   6.895   3.601   2.172  0.3246  0.3482 -0.2390
  238MOL    C5447928   6.977   3.537   2.283 -0.6815 -0.3727  0.7074
  238MOL    O5547929   7.086   3.582   2.309  0.4424  0.0770 -1.0047
  238MOL    N5647930   6.932   3.431   2.341  0.2291 -0.4881 -0.2642
  238MOL    H5747931   7.083   3.648   2.058 -0.5782  0.0915 -0.8442
  238MOL    H5847932   6.975   3.582   1.959  1.5775  0.2568 -0.6290
  238MOL    H5947933   6.843   3.690   2.209 -2.2641 -1.6412  0.9911
  238MOL    H6047934   6.835   3.410   2.322  0.4337  0.2165 -2.2672
  238MOL    H6147935   6.989   3.391   2.414 -0.5533  0.2178  0.7438
  238MOL    C6247936   6.785   3.505   2.131 -0.1146 -0.1950 -0.5502
  238MOL    C6347937   6.640   3.523   2.188  0.1029 -0.0223 -0.0737
  238MOL    C6447938   6.620   3.540   2.334  0.0698 -0.1467  0.0100
  238MOL    O6547939   6.650   3.446   2.413  0.1470 -0.3252  0.1523
  238MOL    N6647940   6.598   3.658   2.380  0.0104 -0.2615 -0.3176
  238MOL    H6747941   6.817   3.401   2.138  0.4058 -0.0660 -0.9805
  238MOL    H6847942   6.776   3.520   2.023 -0.3255 -0.3847 -0.5618
  238MOL    H6947943   6.612   3.618   2.143  1.9591 -0.5470 -2.4801
  238MOL    H7047944   6.625   3.675   2.475  0.2527  1.4174 -0.6589
  238MOL    H7147945   6.549   3.736   2.338  0.1091  1.5752  2.8611
  238MOL    C7247946   6.559   3.405   2.142  0.1855 -0.2092 -0.2513
  238MOL    C7347947   6.409   3.414   2.159 -0.0696 -0.1849 -0.6837
  238MOL    C7447948   6.329   3.283   2.144 -1.0266 -0.0851  0.5130
  238MOL    O7547949   6.329   3.230   2.033  0.1742 -0.1195 -0.4003
  238MOL    N7647950   6.273   3.226   2.251 -1.0900 -0.0708  0.0607
  238MOL    H7747951   6.584   3.314   2.197  2.2981 -0.0451 -0.8898
  238MOL    H7847952   6.575   3.382   2.037 -1.6436 -2.3065 -0.0905
  238MOL    H7947953   6.394   3.446   2.262  2.9985 -1.0439  0.0899
  238MOL    H8047954   6.268   3.285   2.333 -1.8848  0.5382 -0.4143
  238MOL    H8147955   6.245   3.129   2.252  1.4132 -0.8469 -1.8317
  238MOL    C8247956   6.354   3.537   2.069  0.3471  0.0691 -0.5125
  238MOL    C8347957   6.364   3.530   1.917  0.5708 -0.2703  0.7596
  238MOL    C8447958   6.500   3.580   1.869 -0.9732  0.0677 -0.6373
  238MOL    O8547959   6.546   3.694   1.885  0.2991 -0.4696 -0.2169
  238MOL    N8647960   6.577   3.493   1.806 -0.2191  0.4422  0.7283
  238MOL    H8747961   6.399   3.630   2.105  1.1407 -1.1241  1.7093
  238MOL    H8847962   6.251   3.547   2.102  0.5020 -1.3183  0.4038
  238MOL    H8947963   6.360   3.424   1.890 -0.8071  0.5874 -2.6631
  238MOL    H9047964   6.536   3.405   1.777  0.2255  1.1036 -2.1145
  238MOL    H9147965   6.667   3.518   1.768 -0.7321 -2.5406 -2.7733
  238MOL    C9247966   6.240   3.610   1.855 -0.0123 -0.4043  0.3090
  238MOL    C9347967   6.211   3.585   1.702  0.5409  0.6155  0.5545
  238MOL    C9447968   6.137   3.460   1.664  0.5986  0.6153  0.0401
  238MOL    O9547969   6.186   3.374   1.596 -0.2476  0.6588 -0.5086
  238MOL    N9647970   6.011   3.453   1.717 -0.8634 -0.0808  0.3996
  238MOL    H9747971   6.266   3.715   1.873 -1.9472  0.0587  0.4331
  238MOL    H9847972   6.149   3.593   1.912 -1.0417 -0.0480 -1.2081
  238MOL    H9947973   6.129   3.657   1.696 -2.2797 -2.2999  2.6058
  238MOL   H10047974   5.954   3.377   1.684 -0.7563 -0.0722  0.1941
  238MOL   H10147975   5.980   3.518   1.788  0.0703  0.0391  0.7140
  238MOL   C10247976   6.330   3.618   1.600 -0.5464 -0.2404  0.1709
  238MOL   C10347977   6.288   3.687   1.475  0.0324 -0.2976  0.3584
  238MOL   C10447978   6.365   3.640   1.354 -0.0364 -0.1063  0.9686
  238MOL   O10547979   6.481   3.634   1.359 -1.2697 -0.0387 -0.0188
  238MOL   N10647980   6.294   3.597   1.254  0.0673 -0.5569 -0.5909
  238MOL   H10747981   6.382   3.525   1.580  0.2533  0.5461 -1.5389
  238MOL   H10847982   6.402   3.683   1.650 -1.1426  2.6893 -2.5759
  238MOL   H10947983   6.186   3.656   1.452  0.4243  0.0597 -1.9757
  238MOL   H11047984   6.349   3.560   1.178  0.6502  0.1062 -0.4931
  238MOL   H11147985   6.195   3.616   1.242 -0.3614 -1.7770  0.8000
  238MOL   C11247986   6.297   3.836   1.492 -0.0530 -0.4884 -0.0373
  238MOL   C11347987   6.211   3.926   1.404 -0.9066 -0.1661  0.1373
  238MOL   C11447988   6.288   4.032   1.326 -0.2993  0.5157  0.7490
  238MOL   O11547989   6.302   4.138   1.386  0.2372  0.5328 -0.0904
  238MOL   N11647990   6.337   4.007   1.208  0.7341  0.7708 -0.2700
  238MOL   H11747991   6.398   3.876   1.497 -0.8669  1.6784 -0.4012
  238MOL   H11847992   6.261   3.859   1.592  3.7849  1.3182  1.0178
  238MOL   H11947993   6.175   3.853   1.332 -0.6047 -0.5980  0.4227
  238MOL   H12047994   6.389   4.083   1.166  0.2240  0.8898 -0.6922
  238MOL   H12147995   6.327   3.918   1.163  3.2730 -1.0217  2.4889
  238MOL   C12247996   6.088   3.997   1.462 -0.4184 -0.0109  0.1501
  238MOL   C12347997   5.977   3.912   1.529 -0.3680  0.4330  0.6452
  238MOL   C12447998   5.898   3.822   1.434  0.2070 -0.2447  0.0599
  238MOL   O12547999   5.879   3.712   1.469  0.6871 -0.1017  0.4920
  238MOL   N12648000   5.858   3.862   1.318 -0.9050  0.3992  0.4246
  238MOL   H12748001   6.049   4.077   1.399  1.2178  0.6128 -0.1031
  238MOL   H12848002   6.130   4.054   1.545  0.4196  1.2054 -1.0808
  238MOL   H12948003   6.029   3.835   1.586  0.5040  0.3766 -0.2047
  238MOL   H13048004   5.881   3.957   1.292 -0.1636  0.1988  0.3361
  238MOL   H13148005   5.813   3.798   1.254 -0.7078  0.4572  0.2262
  238MOL   C13248006   5.880   3.976   1.632 -0.3514  0.6088  0.1218
  238MOL   C13348007   5.934   3.983   1.773 -0.7947  0.2135  0.3073
  238MOL   C13448008   5.915   3.853   1.856 -0.2549 -0.5695  0.8367
  238MOL   O13548009   5.916   3.852   1.976  0.1811 -0.4586 -0.3630
  238MOL   N13648010   5.901   3.729   1.799 -0.1013  0.1031  0.1467
  238MOL   H13748011   5.775   3.949   1.618  0.2470 -2.9783  1.8945
  238MOL   H13848012   5.865   4.081   1.608  2.0388  1.2898  1.4471
  238MOL   H13948013   6.041   4.000   1.761 -0.6811  1.0926  2.2676
  238MOL   H14048014   5.892   3.706   1.701  2.7548 -1.6806  0.2386
  238MOL   H14148015   5.875   3.663   1.871 -0.7546 -0.0575 -0.2362
  238MOL   C14248016   5.870   4.103   1.843  0.1709 -0.2502  0.4194
  238MOL   C14348017   5.945   4.163   1.969  0.1364  0.6496  0.4009
  238MOL   C14448018   5.851   4.166   2.095 -0.1033 -0.8910 -0.1507
  238MOL   O14548019   5.820   4.264   2.160 -0.0062 -0.0494 -0.3061
  238MOL   N14648020   5.812   4.047   2.138 -0.1318  0.2680  0.6559
  238MOL   H14748021   5.763   4.086   1.857  0.2025 -0.2203  0.7097
  238MOL   H14848022   5.863   4.183   1.769 -1.0240 -2.3538 -1.8066
  238MOL   H14948023   6.019   4.088   1.995 -0.4109 -0.1583 -0.3365
  238MOL   H15048024   5.749   4.024   2.214  0.3265 -1.7738  0.4443
  238MOL   H15148025   5.845   3.962   2.095 -0.4349  1.5961 -2.2914
  238MOL   C15248026   6.023   4.292   1.951 -0.0080 -0.2452 -0.1292
  238MOL   C15348027   6.147   4.287   1.848  0.6856  0.3756  0.1645
  238MOL   C15448028   6.278   4.254   1.915  0.4242 -0.8665  0.4491
  238MOL   O15548029   6.313   4.136   1.926 -0.7779 -0.0876  0.1229
  238MOL   N15648030   6.349   4.356   1.968 -0.3252  0.0634  0.1020
  238MOL   H15748031   6.055   4.331   2.048 -0.1071  0.0559 -0.2144
  238MOL   H15848032   5.947   4.360   1.913 -1.8057 -2.1683 -0.0303
  238MOL   H15948033   6.139   4.200   1.783  0.3553  0.0152  0.6805
  238MOL   H16048034   6.436   4.329   2.013 -0.3772 -0.8292 -0.3251
  238MOL   H16148035   6.322   4.453   1.969  0.0103  0.1586  1.2915
  238MOL   C16248036   6.166   4.411   1.756  0.4173 -0.1188 -0.2225
  238MOL   C16348037   6.264   4.406   1.633  0.0631 -0.0928 -0.2506
  238MOL   C16448038   6.409   4.456   1.662  1.4076  0.5690  0.1651
  238MOL   O16548039   6.426   4.573   1.709 -0.6767  0.3708  0.4541
  238MOL   N16648040   6.507   4.372   1.626 -0.7732  0.2059 -0.5614
  238MOL   H16748041   6.178   4.502   1.815  0.6198  1.0550 -2.0296
  238MOL   H16848042   6.069   4.431   1.711  1.1189  2.5988 -0.6216
  238MOL   H16948043   6.275   4.299   1.615 -1.6900 -0.7349  2.2216
  238MOL   H17048044   6.601   4.406   1.610  0.9063 -3.2476  1.4327
  238MOL   H17148045   6.504   4.273   1.611  1.4695 -0.3898  2.4620
  238MOL   C17248046   6.204   4.487   1.521  0.4472  0.1882 -0.2381
  238MOL   C17348047   6.259   4.473   1.375  0.4550  0.5780 -0.5638
  238MOL   C17448048   6.352   4.596   1.343 -0.5907 -0.0418  0.5304
  238MOL   O17548049   6.306   4.690   1.287 -0.0805 -0.2056  0.2132
  238MOL   N17648050   6.481   4.588   1.375  0.4281  0.5025  0.4401
  238MOL   H17748051   6.202   4.593   1.547  0.7739 -0.0952  0.9480
  238MOL   H17848052   6.098   4.463   1.512  0.1044  1.4215  0.3983
  238MOL   H17948053   6.319   4.383   1.368  1.0900  1.0566 -1.3696
  238MOL   H18048054   6.513   4.505   1.423  0.8149  0.2787 -0.2028
  238MOL   H18148055   6.543   4.666   1.365  1.1192  0.0517  1.1683
  238MOL   C18248056   6.149   4.433   1.270  0.2462  0.2768  0.5453
  238MOL   C18348057   6.190   4.406   1.118  0.5117  0.4654  0.5776
  238MOL   C18448058   6.221   4.535   1.043  0.4524 -0.1326 -0.1651
  238MOL   O18548059   6.139   4.625   1.033  0.1646  0.0871 -0.0660
  238MOL   N18648060   6.338   4.539   0.985 -0.2228 -0.1286 -0.2569
  238MOL   H18748061   6.072   4.510   1.274  1.6414  1.9210 -2.3254
  238MOL   H18848062   6.098   4.343   1.304  0.9970  0.1807  1.4461
  238MOL   H18948063   6.279   4.345   1.106 -0.4323 -1.5391  3.0596
  238MOL   H19048064   6.398   4.459   1.000  0.9072  1.2474  3.1587
  238MOL   H19148065   6.348   4.620   0.927  2.3265 -0.9073 -0.9457
  238MOL   C19248066   6.081   4.319   1.041 -0.2889 -0.3371  0.3236
  238MOL   C19348067   5.934   4.351   1.057 -0.0615  0.1067  0.1495
  238MOL   C19448068   5.829   4.301   0.957 -0.5775  0.1764 -0.6827
  238MOL   O19548069   5.833   4.311   0.835 -0.5972 -0.3905  0.4519
  238MOL   N19648070   5.730   4.230   1.011 -0.4739  0.0129 -0.0811
  238MOL   H19748071   6.085   4.211   1.056 -3.3199 -0.0971  3.4619
  238MOL   H19848072   6.096   4.329   0.933  0.3587 -1.5785  0.2873
  238MOL   H19948073   5.912   4.319   1.159  1.1953  3.8464  1.6936
  238MOL   H20048074   5.663   4.180   0.955 -0.6333 -0.0819  0.1962
  238MOL   H20148075   5.723   4.211   1.110  0.7960 -0.1815 -0.0193
  238MOL   H20248076   5.918   4.459   1.057 -1.7893 -0.1129  1.9163
  239MOL     C148077   3.477   2.891   2.335  0.5400  0.2414 -0.1309
  239MOL     C248078   3.433   2.825   2.469  0.1331  0.2202  0.3341
  239MOL     C348079   3.431   2.932   2.583 -0.0802  0.3861  0.5047
  239MOL     O448080   3.527   3.009   2.594  0.0727 -0.2599 -0.0321
  239MOL     N548081   3.326   2.937   2.664  0.6117  0.5222 -0.4217
  239MOL     H648082   3.499   2.997   2.345 -1.3221  0.7502 -1.1273
  239MOL     H748083   3.568   2.844   2.299  0.2981  0.0701 -0.5166
  239MOL     H848084   3.326   2.804   2.467 -0.0134  0.9061  0.7059
  239MOL     H948085   3.249   2.874   2.644  1.5423  0.1134 -2.7535
  239MOL    H1048086   3.315   3.007   2.736 -0.2093  0.1884 -0.2075
  239MOL    H1148087   3.399   2.878   2.260 -2.0608  1.1943  2.3152
  239MOL    C1248088   3.507   2.696   2.508  0.9073  0.2647  0.1349
  239MOL    C1348089   3.507   2.584   2.404  0.2864  0.3303  0.0264
  239MOL    C1448090   3.378   2.566   2.331 -0.3990  0.2034  0.2396
  239MOL    O1548091   3.278   2.532   2.382  0.4846 -0.6543  0.6849
  239MOL    N1648092   3.374   2.601   2.206 -0.2995  0.1203  0.3113
  239MOL    H1748093   3.478   2.657   2.605  1.4994  1.3555  0.7692
  239MOL    H1848094   3.608   2.725   2.538  0.8533  0.7846 -0.1725
  239MOL    H1948095   3.577   2.620   2.328  0.8057 -0.9747 -0.1313
  239MOL    H2048096   3.462   2.636   2.171  0.3947 -0.3065  1.6153
  239MOL    H2148097   3.294   2.600   2.144  0.2629 -0.0710 -0.4188
  239MOL    C2248098   3.562   2.452   2.453 -0.1214  0.0083 -0.0617
  239MOL    C2348099   3.710   2.444   2.497 -1.3571 -0.5627 -0.1576
  239MOL    C2448100   3.796   2.483   2.382 -0.5749  0.6630  0.6707
  239MOL    O2548101   3.804   2.410   2.283  0.2896 -0.4449  0.2267
  239MOL    N2648102   3.865   2.591   2.376 -0.0739  0.1804 -0.1782
  239MOL    H2748103   3.547   2.383   2.370 -0.6396  0.4930 -0.3736
  239MOL    H2848104   3.500   2.411   2.533  1.8363 -0.8640  1.0382
  239MOL    H2948105   3.731   2.506   2.585 -0.9095 -1.7083  0.5460
  239MOL    H3048106   3.862   2.659   2.450 -1.6023  1.2583 -1.1955
  239MOL    H3148107   3.929   2.624   2.304  1.7136  2.0846  2.2134
  239MOL    C3248108   3.744   2.298   2.543 -0.6183 -0.1682 -0.4509
  239MOL    C3348109   3.894   2.274   2.576 -0.2881  0.3893  0.1299
  239MOL    C3448110   3.951   2.175   2.469  0.2907  0.4405  0.0473
  239MOL    O3548111   3.977   2.060   2.500 -0.0152 -0.2875 -0.0202
  239MOL    N3648112   3.990   2.228   2.358  0.2854  0.2249  0.1055
  239MOL    H3748113   3.696   2.237   2.466 -1.0102  1.8315 -1.8064
  239MOL    H3848114   3.683   2.279   2.631 -1.5624 -1.2498 -1.3133
  239MOL    H3948115   3.943   2.372   2.576 -2.1426  1.3637  1.3317
  239MOL    H4048116   4.032   2.172   2.284  1.7160  1.5579 -0.1126
  239MOL    H4148117   3.948   2.317   2.337 -0.3460  0.2644  1.5085
  239MOL    C4248118   3.902   2.216   2.719 -0.3906  0.2261 -0.6238
  239MOL    C4348119   4.048   2.208   2.777 -0.7135  0.1263  0.0719
  239MOL    C4448120   4.062   2.088   2.872 -0.5807 -0.1037  0.0383
  239MOL    O4548121   3.990   2.076   2.972  0.4140  0.1255  0.0177
  239MOL    N4648122   4.147   1.993   2.847  0.3064 -0.1223 -0.3009
  239MOL    H4748123   3.858   2.117   2.726 -2.4701  1.0578 -1.5063
  239MOL    H4848124   3.848   2.279   2.789 -1.7304 -0.4407 -1.0368
  239MOL    H4948125   4.112   2.194   2.690 -1.7684  1.8962 -1.0405
  239MOL    H5048126   4.213   2.006   2.772  2.9025 -0.8200  1.7975
  239MOL    H5148127   4.151   1.920   2.917 -1.0950 -0.7830 -0.9029
  239MOL    C5248128   4.092   2.334   2.854  0.5277 -0.6141  0.0459
  239MOL    C5348129   4.240   2.339   2.922  0.1431  0.4739 -0.0649
  239MOL    C5448130   4.234   2.418   3.055  0.2693  0.6977  0.0508
  239MOL    O5548131   4.265   2.375   3.164  0.1158  0.1703 -0.7169
  239MOL    N5648132   4.205   2.548   3.045 -0.3538  0.1435  0.2093
  239MOL    H5748133   4.021   2.352   2.934 -1.3284 -2.8171 -1.0677
  239MOL    H5848134   4.087   2.425   2.793  2.2922 -0.8669 -0.5330
  239MOL    H5948135   4.269   2.236   2.945  0.1104  0.2035 -1.2418
  239MOL    H6048136   4.208   2.573   2.947  0.5844  0.7147  0.3778
  239MOL    H6148137   4.181   2.604   3.125  0.9463  2.5075 -1.0102
  239MOL    C6248138   4.354   2.390   2.833 -0.3483  0.4289 -0.2001
  239MOL    C6348139   4.459   2.281   2.786 -0.0014 -0.0617  0.4495
  239MOL    C6448140   4.538   2.235   2.916  0.4123  0.7609  0.4563
  239MOL    O6548141   4.612   2.309   2.980 -0.3865 -0.7218  0.5126
  239MOL    N6648142   4.527   2.108   2.960  0.5064 -0.6275 -0.1021
  239MOL    H6748143   4.413   2.465   2.886  1.3564 -1.9411  1.3778
  239MOL    H6848144   4.319   2.436   2.741  2.0241 -0.9732 -1.8946
  239MOL    H6948145   4.395   2.199   2.755 -0.5786 -0.1565  1.8399
  239MOL    H7048146   4.483   2.042   2.898  0.9020  0.5944 -1.7385
  239MOL    H7148147   4.577   2.084   3.044 -1.8612 -0.5977  1.3203
  239MOL    C7248148   4.564   2.335   2.680 -0.1646 -0.9223 -0.1300
  239MOL    C7348149   4.617   2.219   2.590 -0.1369 -0.2821  0.1696
  239MOL    C7448150   4.731   2.138   2.653 -0.5750  0.7888 -0.4618
  239MOL    O7548151   4.827   2.203   2.702 -0.6615  0.8726  0.2494
  239MOL    N7648152   4.732   2.004   2.652 -0.0051 -0.5296  0.7283
  239MOL    H7748153   4.643   2.402   2.713 -1.4920  0.0339  1.2057
  239MOL    H7848154   4.517   2.404   2.610  1.0941  0.7787  0.6934
  239MOL    H7948155   4.548   2.136   2.573  1.7641 -2.2268  1.6373
  239MOL    H8048156   4.806   1.944   2.683 -0.0858 -0.2878  1.4080
  239MOL    H8148157   4.655   1.958   2.606 -2.1023  1.9213  1.6418
  239MOL    C8248158   4.650   2.264   2.446  0.0334  0.6715  0.3564
  239MOL    C8348159   4.675   2.144   2.345 -0.4977 -0.0864  0.7339
  239MOL    C8448160   4.752   2.184   2.220  0.5333 -0.3648 -0.4088
  239MOL    O8548161   4.810   2.097   2.151 -0.1294 -0.5876  0.0723
  239MOL    N8648162   4.763   2.309   2.180 -0.6008  0.3357  0.0164
  239MOL    H8748163   4.742   2.323   2.448 -0.6457  1.7361  0.5498
  239MOL    H8848164   4.566   2.328   2.419  0.1136  0.9204  0.6823
  239MOL    H8948165   4.757   2.087   2.390  1.4097  0.5095 -1.8871
  239MOL    H9048166   4.830   2.328   2.107  0.0095  0.6093  0.6425
  239MOL    H9148167   4.711   2.378   2.232 -0.9998  0.4230 -0.5007
  239MOL    C9248168   4.553   2.053   2.307  0.3301  0.4801 -0.0933
  239MOL    C9348169   4.429   2.129   2.256 -0.4805  0.1203  0.1065
  239MOL    C9448170   4.324   2.140   2.370  0.3667 -0.4015 -0.2350
  239MOL    O9548171   4.316   2.230   2.448  0.5875 -0.3410  0.0127
  239MOL    N9648172   4.242   2.038   2.388 -0.1370 -0.1987 -0.2160
  239MOL    H9748173   4.532   1.985   2.390 -1.0862 -0.6753 -1.3601
  239MOL    H9848174   4.587   1.984   2.230  0.2009 -0.9645  1.1266
  239MOL    H9948175   4.454   2.234   2.240 -0.2089 -0.3355 -2.5719
  239MOL   H10048176   4.256   1.953   2.335  0.5879 -0.1790 -0.0592
  239MOL   H10148177   4.159   2.039   2.445  0.6443 -1.8242  0.9877
  239MOL   C10248178   4.361   2.081   2.123 -0.2737 -0.2427  0.0189
  239MOL   C10348179   4.429   2.112   1.992 -0.3838 -0.9209 -0.3890
  239MOL   C10448180   4.427   2.262   1.954 -0.1282  0.1570  0.1497
  239MOL   O10548181   4.321   2.319   1.930  0.0534 -0.4931  0.7010
  239MOL   N10648182   4.543   2.321   1.968  0.3107  0.7516  0.9293
  239MOL   H10748183   4.262   2.127   2.120  0.2356  0.8085 -0.9804
  239MOL   H10848184   4.350   1.973   2.131  0.5568 -0.2491  1.1154
  239MOL   H10948185   4.535   2.090   2.006  0.4914  3.4766  0.8201
  239MOL   H11048186   4.622   2.261   1.949  0.0098  0.2981  1.1018
  239MOL   H11148187   4.543   2.421   1.984 -1.5424  1.0201 -0.5197
  239MOL   C11248188   4.373   2.025   1.874 -0.2945 -0.3692 -0.6016
  239MOL   C11348189   4.461   1.911   1.821  0.0505 -0.1755  0.0366
  239MOL   C11448190   4.421   1.866   1.682  0.8776  0.3622  0.0388
  239MOL   O11548191   4.306   1.865   1.655 -0.0893  0.1135  0.2630
  239MOL   N11648192   4.515   1.826   1.597 -0.0883  0.1780 -1.0121
  239MOL   H11748193   4.345   2.087   1.789 -1.5081  0.7755  0.5917
  239MOL   H11848194   4.276   1.979   1.892  0.2356 -1.8249 -1.3740
  239MOL   H11948195   4.560   1.955   1.809 -0.5578  0.7116 -2.0597
  239MOL   H12048196   4.610   1.839   1.627 -0.0163 -1.2495 -0.6132
  239MOL   H12148197   4.477   1.785   1.512 -1.0416 -1.5567  0.2293
  239MOL   C12248198   4.474   1.797   1.920 -0.3347 -0.3690 -0.2076
  239MOL   C12348199   4.601   1.697   1.908 -0.3750  0.0585 -0.4751
  239MOL   C12448200   4.565   1.573   1.820 -0.0007 -0.3772 -0.1722
  239MOL   O12548201   4.456   1.517   1.837  0.8019  0.2439  0.0205
  239MOL   N12648202   4.651   1.537   1.722 -0.4762 -0.1804 -0.2162
  239MOL   H12748203   4.379   1.745   1.933 -1.1704  1.0184 -0.6236
  239MOL   H12848204   4.485   1.837   2.021 -1.0291  0.2294 -0.3618
  239MOL   H12948205   4.683   1.753   1.863  0.9513 -1.7559 -0.3548
  239MOL   H13048206   4.650   1.446   1.679 -1.7052 -0.2929  0.0377
  239MOL   H13148207   4.726   1.597   1.692 -1.5281  1.7916  0.9942
  239MOL   C13248208   4.660   1.653   2.041  0.2095  0.1678 -0.1074
  239MOL   C13348209   4.741   1.770   2.103  0.2660 -0.0383 -0.4789
  239MOL   C13448210   4.888   1.779   2.049  0.3815  0.0176  0.4860
  239MOL   O13548211   4.948   1.670   2.022 -0.0747 -0.2352 -0.5693
  239MOL   N13648212   4.950   1.894   2.036  0.1422  0.0010 -0.7401
  239MOL   H13748213   4.719   1.562   2.034  1.8252  1.2028 -0.2376
  239MOL   H13848214   4.578   1.636   2.111 -0.2633  0.3265 -0.6264
  239MOL   H13948215   4.690   1.863   2.075 -2.1080 -1.1838 -0.1163
  239MOL   H14048216   5.045   1.892   2.003  0.2068 -0.1209 -0.5479
  239MOL   H14148217   4.909   1.974   2.083  1.3530  0.0025  0.3354
  239MOL   C14248218   4.754   1.767   2.258  0.1402  0.2728  0.1302
  239MOL   C14348219   4.817   1.648   2.331 -0.0815  0.2451 -0.7710
  239MOL   C14448220   4.710   1.587   2.426 -0.3931  0.5452 -0.5980
  239MOL   O14548221   4.679   1.645   2.532  0.1525  0.2590 -0.0271
  239MOL   N14648222   4.659   1.465   2.407  0.3804 -0.1260 -0.1959
  239MOL   H14748223   4.651   1.766   2.291 -0.0210 -0.6315 -0.3618
  239MOL   H14848224   4.787   1.864   2.294 -1.6173  2.1632 -3.1158
  239MOL   H14948225   4.842   1.572   2.257 -0.7510 -0.1564 -0.5922
  239MOL   H15048226   4.673   1.411   2.323  1.5338  1.3588 -0.9760
  239MOL   H15148227   4.599   1.424   2.477  1.3294  1.8609  1.8459
  239MOL   C15248228   4.945   1.686   2.413  0.2227 -0.3577  0.7399
  239MOL   C15348229   5.018   1.575   2.489  0.1455  0.4842  0.3234
  239MOL   C15448230   4.994   1.572   2.640 -0.1254  0.1291  0.2919
  239MOL   O15548231   5.027   1.675   2.702 -0.2131 -0.0974 -0.1190
  239MOL   N15648232   4.957   1.467   2.704 -0.8065  0.1791  0.3673
  239MOL   H15748233   4.901   1.763   2.476 -0.1288 -0.5150  0.6904
  239MOL   H15848234   5.016   1.744   2.355  1.7954 -5.1391 -2.3963
  239MOL   H15948235   4.982   1.479   2.452 -2.6044  2.1892 -1.6253
  239MOL   H16048236   4.941   1.378   2.659 -3.2479  1.3610 -1.2302
  239MOL   H16148237   4.970   1.466   2.804  0.8823 -0.3054  0.1549
  239MOL   C16248238   5.167   1.584   2.454  0.4555  0.1751 -0.7115
  239MOL   C16348239   5.197   1.566   2.308 -0.7457  0.4397 -0.6703
  239MOL   C16448240   5.224   1.420   2.272  0.0346  0.5072  0.1160
  239MOL   O16548241   5.331   1.365   2.289 -0.7259 -0.2108 -0.8999
  239MOL   N16648242   5.122   1.360   2.221 -0.7772  0.5511 -0.5918
  239MOL   H16748243   5.220   1.516   2.521  1.8154  1.7402 -0.1526
  239MOL   H16848244   5.193   1.684   2.491  0.9485  0.1219 -0.9131
  239MOL   H16948245   5.124   1.613   2.242 -1.5065 -0.4922 -0.5002
  239MOL   H17048246   5.041   1.417   2.202 -1.4199  1.2087  3.5809
  239MOL   H17148247   5.142   1.265   2.191  0.0254 -0.8130  3.9182
  239MOL   C17248248   5.323   1.660   2.289  0.2589  0.5201 -0.4607
  239MOL   C17348249   5.392   1.676   2.153  0.9892 -0.0216  0.2240
  239MOL   C17448250   5.521   1.761   2.179  0.6307 -0.1536  0.2178
  239MOL   O17548251   5.517   1.870   2.246 -0.2246 -0.2569  0.2119
  239MOL   N17648252   5.632   1.716   2.123 -0.0442  0.6691  0.1918
  239MOL   H17748253   5.406   1.621   2.349  0.4657 -3.1980 -2.9865
  239MOL   H17848254   5.301   1.754   2.338 -1.4717 -0.1663  0.0967
  239MOL   H17948255   5.436   1.582   2.120  0.5481 -0.1294 -0.0572
  239MOL   H18048256   5.722   1.760   2.136 -0.1597  0.3552  2.3247
  239MOL   H18148257   5.627   1.633   2.066  1.3727  0.3162  0.5496
  239MOL   C18248258   5.308   1.740   2.042  1.1919 -0.2225 -0.4248
  239MOL   C18348259   5.315   1.682   1.900  0.2355  0.5069 -0.6143
  239MOL   C18448260   5.280   1.535   1.901  0.4889 -0.2737 -0.1169
  239MOL   O18548261   5.365   1.448   1.894  0.5953  0.0030 -0.0522
  239MOL   N18648262   5.153   1.503   1.921  0.0270  0.2912  0.0007
  239MOL   H18748263   5.330   1.846   2.030 -1.0453  0.7158  2.9846
  239MOL   H18848264   5.201   1.737   2.064  1.1357 -1.0766 -0.8125
  239MOL   H18948265   5.233   1.726   1.843 -0.8198 -0.8269 -0.1575
  239MOL   H19048266   5.095   1.582   1.945  0.5917  1.0274 -1.0459
  239MOL   H19148267   5.146   1.405   1.945 -2.2786  0.4070 -0.1204
  239MOL   C19248268   5.448   1.717   1.821  0.7702  0.0619 -0.1620
  239MOL   C19348269   5.427   1.808   1.694  0.6352  0.5010  0.1759
  239MOL   C19448270   5.410   1.959   1.731 -0.3134  0.5831  0.1547
  239MOL   O19548271   5.413   2.003   1.846 -0.1253 -0.3396  0.0049
  239MOL   N19648272   5.385   2.045   1.632  0.1957 -0.4535  0.1613
  239MOL   H19748273   5.488   1.619   1.796  0.7278 -0.5546  2.0765
  239MOL   H19848274   5.520   1.757   1.893  2.4547 -1.6956 -0.8555
  239MOL   H19948275   5.517   1.792   1.634 -0.3188 -1.5988 -0.7598
  239MOL   H20048276   5.401   2.013   1.537  1.7767  0.1224  0.2180
  239MOL   H20148277   5.341   2.129   1.666  0.8293  0.5870 -1.5239
  239MOL   H20248278   5.346   1.772   1.631  0.8767  0.0419  0.1221
  240MOL     C148279   5.170   6.477   6.461  0.5342  0.4308 -0.0432
  240MOL     C248280   5.211   6.607   6.384  0.6228 -0.4908  0.2466
  240MOL     C348281   5.352   6.649   6.435  0.4724 -0.1216  0.3373
  240MOL     O448282   5.377   6.689   6.551 -0.7636  0.2705 -0.2913
  240MOL     N548283   5.446   6.647   6.344  0.0508  0.7719  0.2393
  240MOL     H648284   5.140   6.495   6.564 -0.0386  2.9127 -0.6100
  240MOL     H748285   5.098   6.415   6.407 -0.2916  0.4251  1.0288
  240MOL     H848286   5.220   6.587   6.278  1.4517  0.2573  0.1697
  240MOL     H948287   5.542   6.676   6.357 -0.3466  1.3356  2.0516
  240MOL    H1048288   5.431   6.608   6.252  0.9237 -2.1139  1.2650
  240MOL    H1148289   5.248   6.407   6.490 -1.9076 -2.0079  0.9300
  240MOL    C1248290   5.098   6.717   6.409 -0.6981 -0.7463 -0.0502
  240MOL    C1348291   5.134   6.857   6.356  0.1125 -0.9327  0.8552
  240MOL    C1448292   5.029   6.960   6.405 -0.6786  1.0555  0.0723
  240MOL    O1548293   4.925   6.976   6.337  0.1730 -0.0393  0.4684
  240MOL    N1648294   5.033   7.003   6.534 -0.6305 -0.0282 -0.3951
  240MOL    H1748295   5.072   6.715   6.515  2.0416 -1.0628  0.6599
  240MOL    H1848296   5.015   6.681   6.348 -1.6892  2.6499 -0.7746
  240MOL    H1948297   5.227   6.883   6.405  0.7996 -0.4133 -0.6846
  240MOL    H2048298   4.950   7.034   6.582 -1.3001 -0.2002 -1.4174
  240MOL    H2148299   5.116   6.982   6.587 -0.6181  0.3081 -0.2787
  240MOL    C2248300   5.177   6.860   6.205 -0.3185 -0.0174 -0.4050
  240MOL    C2348301   5.230   6.993   6.142 -0.2429 -0.3237  0.0145
  240MOL    C2448302   5.248   6.988   5.993 -0.0329  0.5559  0.4561
  240MOL    O2548303   5.249   7.088   5.919 -0.0834 -0.4920 -0.4429
  240MOL    N2648304   5.275   6.870   5.939  0.3086 -0.1680 -0.2651
  240MOL    H2748305   5.085   6.821   6.160  0.9715 -2.2090 -1.2495
  240MOL    H2848306   5.249   6.781   6.185  2.3349  2.3579 -0.5271
  240MOL    H2948307   5.152   7.066   6.165  0.9353  0.3880  1.8364
  240MOL    H3048308   5.309   6.863   5.844 -0.3750 -3.4592 -0.3302
  240MOL    H3148309   5.266   6.781   5.986  0.0636 -0.0116 -0.0202
  240MOL    C3248310   5.362   7.049   6.215  0.2683  0.7909 -0.2288
  240MOL    C3348311   5.411   7.198   6.184  0.9075 -0.0699 -0.3070
  240MOL    C3448312   5.549   7.229   6.243  2.1299  0.1672  0.1892
  240MOL    O3548313   5.605   7.140   6.302  0.4098 -0.5108 -0.4513
  240MOL    N3648314   5.593   7.349   6.241  0.6996 -0.5617  0.4631
  240MOL    H3748315   5.440   6.973   6.203 -0.3758  0.2633 -1.1418
  240MOL    H3848316   5.338   7.043   6.321  1.3349  1.2587  0.0443
  240MOL    H3948317   5.417   7.212   6.076 -1.3274  2.5239 -0.1552
  240MOL    H4048318   5.690   7.358   6.267  0.9932  0.2686 -0.8938
  240MOL    H4148319   5.550   7.429   6.196  1.2210 -0.2428  0.5306
  240MOL    C4248320   5.308   7.307   6.243 -0.3053  0.2001 -0.0238
  240MOL    C4348321   5.215   7.362   6.134  0.2890  0.1765 -0.4324
  240MOL    C4448322   5.285   7.476   6.060 -0.5225  0.3304 -0.0485
  240MOL    O4548323   5.314   7.582   6.114 -0.0597  0.2602  0.1189
  240MOL    N4648324   5.301   7.461   5.930 -0.1755  0.0459 -0.3391
  240MOL    H4748325   5.364   7.375   6.308  1.3495 -0.4102 -0.7871
  240MOL    H4848326   5.239   7.255   6.310 -0.2438 -0.6613 -0.6189
  240MOL    H4948327   5.192   7.292   6.054  1.9874 -1.3418  0.3789
  240MOL    H5048328   5.307   7.540   5.866 -0.0854  0.2097 -0.1285
  240MOL    H5148329   5.271   7.373   5.890  1.1279 -0.4373 -0.2741
  240MOL    C5248330   5.075   7.406   6.182  0.6637  0.4941 -0.0181
  240MOL    C5348331   5.051   7.516   6.291 -0.0715 -0.0531 -0.3709
  240MOL    C5448332   5.100   7.467   6.432 -0.4208 -0.1807 -0.1577
  240MOL    O5548333   5.048   7.380   6.501  0.2369  0.3645  0.5848
  240MOL    N5648334   5.208   7.524   6.474  0.1622 -0.5987  0.1688
  240MOL    H5748335   5.020   7.318   6.215  0.7169  0.7811  0.8466
  240MOL    H5848336   5.028   7.448   6.093  3.1446 -0.3532 -1.7829
  240MOL    H5948337   5.109   7.605   6.270  0.9724  0.2783  3.5169
  240MOL    H6048338   5.259   7.478   6.548 -0.0925 -1.0206  0.0829
  240MOL    H6148339   5.261   7.582   6.411  0.4554 -0.8485  0.1859
  240MOL    C6248340   4.905   7.565   6.287  0.1625 -0.0087 -0.3133
  240MOL    C6348341   4.791   7.462   6.294  0.7753  0.9651  0.2108
  240MOL    C6448342   4.772   7.379   6.166  0.3444  0.4185  0.1832
  240MOL    O6548343   4.722   7.428   6.065 -0.5454  0.4175 -0.7718
  240MOL    N6648344   4.785   7.243   6.173 -0.6512  0.2822 -0.2937
  240MOL    H6748345   4.890   7.618   6.194  2.5473  1.3083  0.0276
  240MOL    H6848346   4.894   7.634   6.371 -1.0047 -0.7875  0.1952
  240MOL    H6948347   4.817   7.388   6.370 -1.1313  0.0773  0.0361
  240MOL    H7048348   4.810   7.202   6.262  1.1209  0.9640 -0.4530
  240MOL    H7148349   4.786   7.183   6.092 -0.2863 -2.1399  1.4633
  240MOL    C7248350   4.654   7.535   6.332 -0.0517 -0.2845 -0.4435
  240MOL    C7348351   4.530   7.451   6.375  0.1544  0.4752 -0.3617
  240MOL    C7448352   4.574   7.363   6.492  0.0991 -0.0853  0.5115
  240MOL    O7548353   4.625   7.250   6.476  0.2417 -0.1969  0.0006
  240MOL    N7648354   4.558   7.411   6.613  0.1048 -0.2246  0.7675
  240MOL    H7748355   4.626   7.612   6.260  0.7075  0.3049 -0.1196
  240MOL    H7848356   4.679   7.602   6.415 -1.8567  0.8070 -0.7516
  240MOL    H7948357   4.448   7.510   6.417 -0.9939 -1.7427  0.5867
  240MOL    H8048358   4.607   7.363   6.688  3.2280 -0.7319 -1.4760
  240MOL    H8148359   4.524   7.505   6.627 -2.3032 -1.0002  0.2683
  240MOL    C8248360   4.465   7.375   6.257  0.0561 -0.0598 -0.4039
  240MOL    C8348361   4.318   7.333   6.277  0.2851 -0.2058  0.2005
  240MOL    C8448362   4.287   7.198   6.211 -0.6268 -0.3734  0.5430
  240MOL    O8548363   4.311   7.181   6.094  0.1531  0.4858 -0.1141
  240MOL    N8648364   4.234   7.110   6.290  0.7272 -0.1096 -0.6722
  240MOL    H8748365   4.527   7.290   6.229 -0.7231  0.0598 -2.6078
  240MOL    H8848366   4.469   7.439   6.168 -3.6430  2.7161  1.2865
  240MOL    H8948367   4.304   7.331   6.385 -1.2688 -0.0810  0.0080
  240MOL    H9048368   4.221   7.126   6.389 -1.5232  0.1220 -0.9764
  240MOL    H9148369   4.234   7.014   6.257  1.1779  0.8249 -3.5141
  240MOL    C9248370   4.214   7.442   6.242  0.1313 -0.1545 -0.2495
  240MOL    C9348371   4.064   7.406   6.251 -0.3310 -0.0782  0.8030
  240MOL    C9448372   4.010   7.319   6.140  0.2267 -0.7002  0.1629
  240MOL    O9548373   4.013   7.364   6.024  0.6408 -0.2435 -0.2335
  240MOL    N9648374   3.934   7.217   6.175 -0.6428  1.0020  0.6568
  240MOL    H9748375   4.232   7.487   6.144 -0.0517  0.1032 -0.1641
  240MOL    H9848376   4.241   7.522   6.310 -0.0937  1.5002 -2.0661
  240MOL    H9948377   4.070   7.336   6.335 -0.1057 -1.7581 -0.5939
  240MOL   H10048378   3.927   7.199   6.274 -1.2949  0.5366  0.5256
  240MOL   H10148379   3.894   7.166   6.098  0.7002  2.4590 -1.0643
  240MOL   C10248380   3.974   7.540   6.264 -0.3091 -0.3927 -0.0416
  240MOL   C10348381   3.955   7.582   6.406  0.1483 -0.2467  0.4313
  240MOL   C10448382   3.908   7.463   6.494  0.7991  0.5461 -0.3954
  240MOL   O10548383   3.793   7.411   6.483 -0.3029  0.3151  0.1521
  240MOL   N10648384   3.987   7.425   6.590 -0.3160  0.4170  0.9192
  240MOL   H10748385   3.876   7.520   6.220 -1.4435  2.3206  1.1592
  240MOL   H10848386   4.015   7.629   6.215 -1.0409  0.5621  1.0646
  240MOL   H10948387   4.053   7.613   6.442 -0.6063 -1.6470  3.9032
  240MOL   H11048388   3.971   7.346   6.652  0.8701  0.3671  1.1835
  240MOL   H11148389   4.075   7.475   6.590 -0.8854  1.4112  1.3729
  240MOL   C11248390   3.852   0.040   6.430  0.3360 -0.4002 -0.1187
  240MOL   C11348391   3.843   0.113   6.565 -0.6014  0.7822 -0.6516
  240MOL   C11448392   3.779   0.031   6.673  0.3339  0.2285 -0.3954
  240MOL   O11548393   3.669   7.636   6.651  0.3690  0.0488 -0.6406
  240MOL   N11648394   3.846   0.018   6.784  0.3386 -0.0013  0.3860
  240MOL   H11748395   3.757   7.657   6.396 -0.8142  3.2188 -1.4190
  240MOL   H11848396   3.895   0.117   6.366  0.5981  0.9686  1.6631
  240MOL   H11948397   3.946   0.121   6.601 -1.0659  0.2011  0.8855
  240MOL   H12048398   3.945   0.029   6.803  0.3847 -0.0954  0.2024
  240MOL   H12148399   3.812   7.609   6.852  0.7189  1.1651  1.7391
  240MOL   C12248400   3.786   0.255   6.559 -0.2932  0.2319 -0.3905
  240MOL   C12348401   3.885   0.375   6.586 -0.2359  0.3003  0.2678
  240MOL   C12448402   3.995   0.394   6.484 -0.3834  0.1800  0.7773
  240MOL   O12548403   4.101   0.336   6.503 -0.2207 -0.8613  0.0248
  240MOL   N12648404   3.969   0.466   6.376  0.6591 -0.9982  0.5837
  240MOL   H12748405   3.694   0.258   6.617  1.0250  1.6807  1.6600
  240MOL   H12848406   3.754   0.275   6.456  0.2508 -0.8248 -0.7815
  240MOL   H12948407   3.811   0.451   6.562 -3.3339 -3.2763 -1.8722
  240MOL   H13048408   3.874   0.499   6.365  0.8068 -0.7419  0.0357
  240MOL   H13148409   4.036   0.492   6.305 -0.6239 -2.6163 -1.2941
  240MOL   C13248410   3.931   0.393   6.729  0.1600  0.5199  0.4997
  240MOL   C13348411   3.974   0.531   6.780  0.5741  0.7009  0.0938
  240MOL   C13448412   3.860   0.630   6.758 -0.2036 -0.6300  0.0913
  240MOL   O13548413   3.865   0.707   6.662 -0.2571  0.1343  0.9729
  240MOL   N13648414   3.765   0.638   6.844  0.5056  0.2229 -0.1999
  240MOL   H13748415   4.006   0.316   6.748 -0.0168  0.3700  0.5948
  240MOL   H13848416   3.845   0.370   6.793 -1.9882  2.4362 -1.6150
  240MOL   H13948417   4.000   0.529   6.886 -0.1880 -3.0738  0.2709
  240MOL   H14048418   3.688   0.701   6.826 -0.5911 -1.5868 -1.9409
  240MOL   H14148419   3.755   0.585   6.929  0.8340  0.7040  0.1475
  240MOL   C14248420   4.110   0.582   6.715  0.1742 -0.3245 -0.1604
  240MOL   C14348421   4.247   0.511   6.741  0.1949  0.1738  0.5648
  240MOL   C14448422   4.288   0.526   6.885 -0.3063  0.0956 -0.0189
  240MOL   O14548423   4.289   0.429   6.957  0.2418  0.5827  0.7126
  240MOL   N14648424   4.326   0.650   6.924 -0.0715 -0.1531  0.2033
  240MOL   H14748425   4.128   0.679   6.760  0.1126  0.5635 -2.0196
  240MOL   H14848426   4.099   0.600   6.608 -1.4670  1.4003  0.2587
  240MOL   H14948427   4.229   0.405   6.719  2.0995 -0.6429  2.6739
  240MOL   H15048428   4.345   0.726   6.860 -1.2827 -0.3856 -0.4551
  240MOL   H15148429   4.350   0.666   7.020  1.8666 -1.2304 -0.0816
  240MOL   C15248430   4.359   0.560   6.638 -0.3179 -0.9528  0.9162
  240MOL   C15348431   4.481   0.464   6.639 -0.3825  0.0259  0.2067
  240MOL   C15448432   4.604   0.525   6.713 -0.0814 -0.1680  0.0112
  240MOL   O15548433   4.626   0.644   6.710 -0.8420  0.4935 -0.1087
  240MOL   N15648434   4.689   0.440   6.773 -0.3423 -0.8915 -0.3672
  240MOL   H15748435   4.377   0.667   6.645 -0.6031 -0.7965 -0.6615
  240MOL   H15848436   4.306   0.552   6.543 -1.3859  0.2380  1.3980
  240MOL   H15948437   4.445   0.377   6.693 -2.3918 -0.2259 -1.4620
  240MOL   H16048438   4.661   0.343   6.779  0.7908 -1.1526  0.9157
  240MOL   H16148439   4.769   0.485   6.814 -2.2170  1.4287  0.8671
  240MOL   C16248440   4.541   0.434   6.498  0.2445 -0.3947  1.1482
  240MOL   C16348441   4.456   0.337   6.405 -0.1374  0.3787  0.2057
  240MOL   C16448442   4.432   0.192   6.470  0.0266  0.0565 -0.4796
  240MOL   O16548443   4.524   0.113   6.494  0.1836  0.3651  0.2117
  240MOL   N16648444   4.308   0.150   6.493 -0.4270  0.2377 -0.5021
  240MOL   H16748445   4.638   0.388   6.520 -0.8198 -4.3701 -1.8836
  240MOL   H16848446   4.571   0.527   6.451 -0.3373 -0.1930  1.1716
  240MOL   H16948447   4.365   0.394   6.387 -1.1459 -0.7840  1.5244
  240MOL   H17048448   4.286   0.069   6.549  3.5593 -0.2618  0.4710
  240MOL   H17148449   4.238   0.223   6.486 -1.7812 -1.0779 -1.0932
  240MOL   C17248450   4.533   0.317   6.264 -0.3456  0.5625  0.1898
  240MOL   C17348451   4.451   0.338   6.142 -0.3975 -0.0389  0.1940
  240MOL   C17448452   4.347   0.221   6.128 -0.2390 -0.7455  0.3859
  240MOL   O17548453   4.380   0.102   6.114  0.2643 -0.0864 -1.0927
  240MOL   N17648454   4.215   0.253   6.139 -0.7264  0.4499  0.4142
  240MOL   H17748455   4.587   0.223   6.255 -0.2235  0.6608 -0.1313
  240MOL   H17848456   4.619   0.383   6.268  0.3173 -0.3855  1.7633
  240MOL   H17948457   4.401   0.435   6.146 -0.7947 -0.2533  0.4089
  240MOL   H18048458   4.180   0.348   6.141  0.6011  1.0924 -2.8392
  240MOL   H18148459   4.145   0.181   6.130  0.4652 -0.4123 -2.6790
  240MOL   C18248460   4.548   0.359   6.025 -0.0419 -0.4588  0.4211
  240MOL   C18348461   4.490   0.378   5.883  0.2507  0.1007  0.8473
  240MOL   C18448462   4.609   0.361   5.786 -0.0575  0.3734  0.4501
  240MOL   O18548463   4.693   0.450   5.766  0.0671 -0.6042  0.2930
  240MOL   N18648464   4.617   0.243   5.724 -0.3687 -0.3025  0.4253
  240MOL   H18748465   4.624   0.281   6.030 -1.1343 -1.5588  0.0016
  240MOL   H18848466   4.606   0.449   6.046 -1.2315  0.7641 -1.3175
  240MOL   H18948467   4.434   0.287   5.863  0.8835  0.2554 -1.7631
  240MOL   H19048468   4.693   0.220   5.662 -0.1505 -2.5153  1.4584
  240MOL   H19148469   4.553   0.168   5.745  0.8899 -1.7117 -0.6829
  240MOL   C19248470   4.408   0.512   5.866  0.3877  0.2172 -0.6972
  240MOL   C19348471   4.482   0.646   5.857 -0.0531 -0.1144  0.3291
  240MOL   C19448472   4.391   0.762   5.879  0.4350  0.4444  0.4033
  240MOL   O19548473   4.298   0.775   5.800  0.1457  0.6185  0.3964
  240MOL   N19648474   4.418   0.847   5.972 -0.1451 -0.0842 -0.1181
  240MOL   H19748475   4.328   0.519   5.940 -0.3073  1.9801 -1.5879
  240MOL   H19848476   4.345   0.503   5.778 -0.1445  0.0332 -0.3064
  240MOL   H19948477   4.555   0.658   5.937 -1.5202 -0.3814  1.7392
  240MOL   H20048478   4.510   0.834   6.011 -1.0033 -2.3291  1.2849
  240MOL   H20148479   4.357   0.920   6.004 -2.8397 -2.0678 -0.5103
  240MOL   H20248480   4.531   0.643   5.760  2.5496  0.4635  1.5747
  241MOL     C148481   5.564   0.178   2.677  0.1626  0.2550 -0.3877
  241MOL     C248482   5.703   0.237   2.679 -0.0230  0.3033  0.3888
  241MOL     C348483   5.809   0.129   2.641  0.3324 -0.7635 -1.0989
  241MOL     O448484   5.784   0.009   2.623  0.3280 -0.2302 -0.0359
  241MOL     N548485   5.936   0.165   2.639  0.9626  0.1541 -0.1087
  241MOL     H648486   5.536   0.145   2.577  0.6389  0.9640 -0.7616
  241MOL     H748487   5.549   0.108   2.759 -0.3773 -0.1261 -0.8158
  241MOL     H848488   5.698   0.316   2.605 -1.2060  0.2984  0.4481
  241MOL     H948489   5.962   0.258   2.668  0.0328  0.8257 -1.3935
  241MOL    H1048490   6.003   0.092   2.618 -0.8948 -0.8860 -2.6657
  241MOL    H1148491   5.478   0.242   2.694 -1.6556 -2.2227  0.0146
  241MOL    C1248492   5.735   0.315   2.813 -0.6856 -0.3626 -0.5515
  241MOL    C1348493   5.722   0.243   2.946  0.0207 -0.5839 -0.4081
  241MOL    C1448494   5.601   0.303   3.016 -0.5993  0.4836 -0.2497
  241MOL    O1548495   5.608   0.416   3.065 -0.4172  0.8176 -0.1867
  241MOL    N1648496   5.492   0.231   3.032  0.0950  0.4755  0.5202
  241MOL    H1748497   5.673   0.404   2.803  0.1590  0.3096  0.1228
  241MOL    H1848498   5.837   0.351   2.816 -0.7237 -0.2363 -0.7684
  241MOL    H1948499   5.698   0.139   2.926 -0.2725 -0.2129 -2.0044
  241MOL    H2048500   5.481   0.134   3.003 -4.5832  1.5785 -1.9862
  241MOL    H2148501   5.417   0.276   3.083  0.1483 -0.0562  1.0717
  241MOL    C2248502   5.851   0.257   3.038  0.3122 -0.0106  0.1695
  241MOL    C2348503   5.843   0.173   3.173 -0.5664 -0.2173  0.0186
  241MOL    C2448504   5.971   0.198   3.257  0.1669 -0.3885 -0.1182
  241MOL    O2548505   6.080   0.227   3.206  0.2358 -0.9773 -0.3176
  241MOL    N2648506   5.967   0.195   3.393  0.4348 -0.0560  0.8590
  241MOL    H2748507   5.854   0.364   3.057 -0.3776 -0.0009  0.2543
  241MOL    H2848508   5.939   0.234   2.978 -0.5386 -1.5057 -0.5658
  241MOL    H2948509   5.764   0.224   3.228 -0.2049 -1.0891  1.3501
  241MOL    H3048510   6.051   0.212   3.446  1.4424 -0.1508 -0.6773
  241MOL    H3148511   5.880   0.164   3.435 -0.8745  0.4390 -1.4285
  241MOL    C3248512   5.805   0.022   3.167 -0.1986  0.5096 -0.9443
  241MOL    C3348513   5.909   7.585   3.098  0.2802 -0.5528 -0.6508
  241MOL    C3448514   5.855   7.542   2.954 -0.7622 -0.2427  0.1759
  241MOL    O3548515   5.741   7.493   2.942  0.1149 -0.4497 -0.7367
  241MOL    N3648516   5.931   7.582   2.853  0.8744 -0.2020 -0.2201
  241MOL    H3748517   5.708   0.011   3.118 -1.8924 -0.1729  2.3799
  241MOL    H3848518   5.776   7.641   3.265  2.0205  0.0235 -0.4575
  241MOL    H3948519   5.996   7.644   3.067  0.3862 -0.4317 -0.1314
  241MOL    H4048520   5.887   7.581   2.762 -1.5656 -0.1189  0.9092
  241MOL    H4148521   6.017   7.631   2.872  0.5069  0.7148 -0.9234
  241MOL    C4248522   5.965   7.463   3.177  0.6401 -0.4084 -0.2152
  241MOL    C4348523   5.876   7.344   3.213  0.3916 -0.2038  0.4139
  241MOL    C4448524   5.800   7.360   3.345 -0.4306  0.5393  0.0644
  241MOL    O4548525   5.855   7.370   3.456  0.1814  0.7443 -0.4026
  241MOL    N4648526   5.673   7.393   3.332  0.1875  0.0878 -0.0900
  241MOL    H4748527   5.997   7.516   3.267 -3.6739  3.8582 -1.0166
  241MOL    H4848528   6.056   7.430   3.127  1.2522 -0.0215  0.6245
  241MOL    H4948529   5.804   7.335   3.132 -1.5977 -0.4483  2.1782
  241MOL    H5048530   5.624   7.412   3.246  1.5311 -0.9245 -1.0954
  241MOL    H5148531   5.622   7.411   3.418 -0.3339  0.9532 -0.5730
  241MOL    C5248532   5.954   7.219   3.218 -0.0591 -0.1608  0.3464
  241MOL    C5348533   5.915   7.118   3.107  0.0053  0.3433  0.7004
  241MOL    C5448534   5.960   6.975   3.134 -0.9063  0.6500 -0.2678
  241MOL    O5548535   6.062   6.950   3.204  0.5793 -0.7868  0.6816
  241MOL    N5648536   5.882   6.873   3.096 -0.1386  0.1740 -0.0780
  241MOL    H5748537   5.928   7.163   3.307 -0.1416 -1.1954 -0.3254
  241MOL    H5848538   6.062   7.232   3.231 -0.1122  0.0976  0.5231
  241MOL    H5948539   5.806   7.119   3.102  0.0761  0.3782 -1.4118
  241MOL    H6048540   5.803   6.902   3.039  0.6746  0.5250 -1.0271
  241MOL    H6148541   5.916   6.779   3.088 -0.4160 -0.0156  0.8547
  241MOL    C6248542   5.964   7.168   2.967 -0.1098 -0.5825  0.5085
  241MOL    C6348543   6.103   7.121   2.910 -0.3969 -0.1701 -0.6425
  241MOL    C6448544   6.153   7.229   2.820  0.1311  0.1785 -0.2617
  241MOL    O6548545   6.162   7.217   2.698  0.2528  0.3098  0.2431
  241MOL    N6648546   6.198   7.339   2.874 -0.1151  0.0752 -0.6887
  241MOL    H6748547   5.932   7.272   2.962 -0.6711 -0.7817 -0.0613
  241MOL    H6848548   5.904   7.120   2.889  0.7152 -1.1641  0.2271
  241MOL    H6948549   6.172   7.118   2.994 -1.7546 -1.9869  0.4469
  241MOL    H7048550   6.252   7.398   2.812  1.9942  0.4795  1.4486
  241MOL    H7148551   6.216   7.349   2.973 -0.3144 -0.8508 -0.5633
  241MOL    C7248552   6.101   6.985   2.841  0.4574 -0.7336 -0.2444
  241MOL    C7348553   6.220   6.891   2.805  0.6068 -0.6417  0.8890
  241MOL    C7448554   6.315   6.870   2.921 -0.2071 -0.5530 -0.0841
  241MOL    O7548555   6.438   6.878   2.912  0.4602  0.4461  0.5287
  241MOL    N7648556   6.259   6.822   3.030 -0.0315 -0.0372  0.1286
  241MOL    H7748557   6.050   7.003   2.746 -0.1705  2.3941  0.6361
  241MOL    H7848558   6.021   6.927   2.888 -0.3549 -1.2141 -2.1731
  241MOL    H7948559   6.182   6.790   2.787  0.8607 -0.6109  0.1759
  241MOL    H8048560   6.158   6.811   3.028  0.0153 -0.5164  0.1787
  241MOL    H8148561   6.315   6.802   3.111  1.1488  1.1277 -0.3850
  241MOL    C8248562   6.297   6.931   2.678  0.0529 -0.6380  0.1618
  241MOL    C8348563   6.367   6.821   2.597 -0.1737 -0.0732  0.0342
  241MOL    C8448564   6.457   6.880   2.490  0.1382 -0.0202  0.4818
  241MOL    O8548565   6.425   6.980   2.426  0.6261 -0.1311 -0.3850
  241MOL    N8648566   6.583   6.836   2.477 -0.6304 -0.0810  0.0241
  241MOL    H8748567   6.355   7.018   2.708 -1.7724  1.0524 -1.1383
  241MOL    H8848568   6.236   6.982   2.604  0.3737 -1.5545 -0.7546
  241MOL    H8948569   6.436   6.769   2.665  1.4825  1.8428 -0.1299
  241MOL    H9048570   6.637   6.875   2.401  0.8063 -0.4109  0.8790
  241MOL    H9148571   6.612   6.763   2.539  1.3366 -0.7411 -1.6129
  241MOL    C9248572   6.266   6.707   2.551  0.0256  0.1704 -0.6951
  241MOL    C9348573   6.289   6.640   2.414 -0.2701  1.0347 -0.0726
  241MOL    C9448574   6.227   6.715   2.295  0.3216 -0.1187 -0.4343
  241MOL    O9548575   6.108   6.732   2.290 -0.4807  0.1493  0.2704
  241MOL    N9648576   6.308   6.762   2.199 -0.1022 -0.5973 -0.8381
  241MOL    H9748577   6.160   6.732   2.557  0.0020 -0.4816  2.5145
  241MOL    H9848578   6.277   6.635   2.632  0.1179  1.2529  0.2759
  241MOL    H9948579   6.396   6.622   2.399 -0.4212 -0.6730  0.8001
  241MOL   H10048580   6.408   6.748   2.193  0.0551 -1.1509  2.4623
  241MOL   H10148581   6.265   6.812   2.123 -1.2689  0.9356  0.8134
  241MOL   C10248582   6.231   6.499   2.429 -0.0833 -0.0824 -0.0777
  241MOL   C10348583   6.306   6.391   2.349 -0.8295  0.3376 -0.4559
  241MOL   C10448584   6.227   6.262   2.323  0.0662  0.4380 -0.1031
  241MOL   O10548585   6.119   6.238   2.371 -0.1666  0.3163  0.0538
  241MOL   N10648586   6.266   6.174   2.233  0.1692  0.0750 -0.2475
  241MOL   H10748587   6.136   6.499   2.376 -0.5844  0.1351  0.8112
  241MOL   H10848588   6.229   6.460   2.531 -2.0347  0.4891  0.1237
  241MOL   H10948589   6.317   6.433   2.249  0.9681 -0.2489 -0.5307
  241MOL   H11048590   6.194   6.109   2.209  2.0790 -2.3344  0.3573
  241MOL   H11148591   6.353   6.195   2.185  0.4152  0.8935  0.5370
  241MOL   C11248592   6.448   6.356   2.407 -0.2320  0.2285 -0.0261
  241MOL   C11348593   6.568   6.415   2.327 -1.1589 -0.4598  0.5905
  241MOL   C11448594   6.564   6.371   2.177 -0.6434  0.5949 -0.0280
  241MOL   O11548595   6.527   6.256   2.148 -0.2033 -0.2437 -0.3707
  241MOL   N11648596   6.605   6.449   2.081  0.2542  0.1191 -0.0492
  241MOL   H11748597   6.472   6.250   2.418  2.2700  0.7686  0.0644
  241MOL   H11848598   6.445   6.388   2.512  3.3744 -1.1712  0.5888
  241MOL   H11948599   6.567   6.524   2.332  0.3996 -0.5046  2.0697
  241MOL   H12048600   6.627   6.547   2.092  0.2969  0.1820 -0.6665
  241MOL   H12148601   6.613   6.415   1.986 -0.4053  0.4743 -0.2396
  241MOL   C12248602   6.704   6.364   2.380  0.2199  0.8856  0.2751
  241MOL   C12348603   6.812   6.464   2.421 -0.2511 -0.2950 -0.4872
  241MOL   C12448604   6.788   6.521   2.562  0.2754 -0.1954  0.0888
  241MOL   O12548605   6.679   6.567   2.599 -0.4064  0.4257  0.6273
  241MOL   N12648606   6.883   6.523   2.653 -0.4595  0.1969 -0.2213
  241MOL   H12748607   6.757   6.288   2.322 -0.6846  0.7870 -0.4258
  241MOL   H12848608   6.687   6.305   2.471  1.6526  1.4441  0.9230
  241MOL   H12948609   6.898   6.400   2.439 -0.1217 -0.1762 -0.6875
  241MOL   H13048610   6.866   6.558   2.746  2.3593  1.9856 -0.2915
  241MOL   H13148611   6.974   6.502   2.613 -1.0640 -0.6151 -1.1681
  241MOL   C13248612   6.839   6.567   2.311 -0.5691  0.2377  0.3796
  241MOL   C13348613   6.975   6.638   2.295 -0.3284 -0.2858 -0.8685
  241MOL   C13448614   7.093   6.544   2.325  0.2312  0.0079  0.3978
  241MOL   O13548615   7.127   6.517   2.441  0.5764 -0.0250  0.3588
  241MOL   N13648616   7.146   6.477   2.223 -0.6696  0.2126 -0.7988
  241MOL   H13748617   6.762   6.644   2.318 -0.8438  0.2039 -1.9856
  241MOL   H13848618   6.833   6.512   2.218 -1.4343  0.9221  0.0221
  241MOL   H13948619   6.985   6.675   2.193  1.7649 -0.5893 -0.7937
  241MOL   H14048620   7.219   6.411   2.246 -0.8234  0.4463  0.3856
  241MOL   H14148621   7.131   6.505   2.128  2.0607  0.5730 -1.1628
  241MOL   C14248622   6.979   6.762   2.387  0.1847  0.5480 -0.4856
  241MOL   C14348623   7.073   6.874   2.336  0.3969 -0.9641 -0.9466
  241MOL   C14448624   7.227   6.856   2.350 -0.4372  0.6393  0.4546
  241MOL   O14548625   7.298   6.920   2.268 -0.6522 -0.5573 -0.8034
  241MOL   N14648626   7.282   6.786   2.453 -0.3169  0.6138  0.2775
  241MOL   H14748627   6.993   6.724   2.488  0.6424  0.4193 -0.5924
  241MOL   H14848628   6.881   6.808   2.398 -0.2125 -0.1439 -1.0522
  241MOL   H14948629   7.043   6.887   2.232  0.0463  1.6977 -0.5312
  241MOL   H15048630   7.381   6.774   2.464  0.0799  1.0212 -2.5348
  241MOL   H15148631   7.220   6.741   2.519  3.0159  0.4560  3.4586
  241MOL   C15248632   7.029   7.015   2.381  0.3085 -0.3211 -0.1277
  241MOL   C15348633   7.041   7.037   2.541 -0.2357 -0.5418 -0.0788
  241MOL   C15448634   6.906   7.025   2.611  0.2928 -0.2515  0.0603
  241MOL   O15548635   6.802   7.084   2.567 -0.2772  0.3496  0.0538
  241MOL   N15648636   6.900   6.943   2.714 -0.2288  0.3462  0.1381
  241MOL   H15748637   6.925   7.033   2.352 -0.6602 -3.8143  0.9526
  241MOL   H15848638   7.097   7.073   2.318  0.2308 -1.0727 -0.9071
  241MOL   H15948639   7.121   6.976   2.584  0.6698  0.6001 -0.1232
  241MOL   H16048640   6.808   6.921   2.749 -1.3209 -1.1563 -3.4255
  241MOL   H16148641   6.982   6.894   2.748 -0.9220  0.3537  1.8514
  241MOL   C16248642   7.085   7.185   2.560 -0.8130  0.0842 -0.0986
  241MOL   C16348643   7.239   7.200   2.551 -0.2646 -0.2604  0.0459
  241MOL   C16448644   7.302   7.142   2.675  0.8262 -0.7018 -0.1347
  241MOL   O16548645   7.255   7.160   2.787  0.3888  0.1097  0.1696
  241MOL   N16648646   7.415   7.079   2.679 -0.1113  0.3743  0.3015
  241MOL   H16748647   7.052   7.240   2.648  1.1327  1.7816 -0.3766
  241MOL   H16848648   7.031   7.246   2.487  0.2988  3.3042  1.6897
  241MOL   H16948649   7.266   7.142   2.464 -0.1558  0.6896 -0.5652
  241MOL   H17048650   7.458   7.044   2.764  0.9972 -3.0355 -1.5720
  241MOL   H17148651   7.469   7.069   2.594 -1.2571  0.0397 -0.3983
  241MOL   C17248652   7.277   7.352   2.516 -0.4000  0.8282  0.4058
  241MOL   C17348653   7.396   7.375   2.422  0.3458 -0.3303 -0.0743
  241MOL   C17448654   7.490   7.464   2.492 -0.8440  0.3953 -0.2775
  241MOL   O17548655   7.585   7.422   2.549 -0.2503 -0.2058 -0.1194
  241MOL   N17648656   7.464   7.595   2.500  0.7293  0.9045  0.4177
  241MOL   H17748657   7.293   7.398   2.614 -0.8737  1.1839  0.3182
  241MOL   H17848658   7.190   7.409   2.486 -0.9744  0.2606  0.9695
  241MOL   H17948659   7.436   7.276   2.398  0.1842 -0.1104 -1.2873
  241MOL   H18048660   7.524   7.653   2.557 -1.8828  2.4695  1.6817
  241MOL   H18148661   7.376   7.640   2.478  1.0338  0.8618 -0.9098
  241MOL   C18248662   7.348   7.428   2.289  0.4859 -0.1032  0.2042
  241MOL   C18348663   7.321   7.316   2.185 -0.4208  1.1679  0.5773
  241MOL   C18448664   7.454   7.263   2.135  0.2996  0.7044  0.1714
  241MOL   O18548665   7.555   7.328   2.103 -0.3372 -0.1239 -0.5170
  241MOL   N18648666   7.467   7.132   2.130 -0.3937  0.4620 -0.7112
  241MOL   H18748667   7.413   7.503   2.243 -0.3883  0.6194  0.1309
  241MOL   H18848668   7.257   7.484   2.310 -0.7021 -1.9071 -0.0250
  241MOL   H18948669   7.266   7.246   2.248  0.4002  0.9277  1.0316
  241MOL   H19048670   7.557   7.092   2.104 -0.2994  1.8053 -2.5389
  241MOL   H19148671   7.404   7.072   2.181 -0.0240 -0.0549 -0.8586
  241MOL   C19248672   7.245   7.365   2.064  0.1593 -0.2259  0.0511
  241MOL   C19348673   7.183   7.257   1.976 -0.0519 -0.1576 -0.2696
  241MOL   C19448674   7.126   7.310   1.848 -0.5664 -0.2131 -0.4826
  241MOL   O19548675   7.063   7.416   1.851  0.0733  0.2009  0.2032
  241MOL   N19648676   7.155   7.247   1.736  0.4088  0.0592 -0.9190
  241MOL   H19748677   7.308   7.433   2.007  1.4295 -0.6340  0.9580
  241MOL   H19848678   7.168   7.425   2.113  0.7627 -0.9582  1.9414
  241MOL   H19948679   7.265   7.187   1.958  0.3330 -0.1807  1.4324
  241MOL   H20048680   7.089   7.272   1.664 -0.9867 -1.2831 -0.1246
  241MOL   H20148681   7.177   7.148   1.738 -2.2289 -0.6352 -3.0979
  241MOL   H20248682   7.098   7.217   2.032  1.2439 -3.6435 -0.6829
  242MOL     C148683   6.470   6.733   7.530 -0.2438 -0.1805 -0.0949
  242MOL     C248684   6.328   6.789   7.538  0.1138 -0.3056  0.6303
  242MOL     C348685   6.226   6.704   7.458 -0.1423 -0.5001 -0.1893
  242MOL     O448686   6.235   6.696   7.339 -0.3440 -0.0418  0.8703
  242MOL     N548687   6.132   6.634   7.523  0.3612  0.4080 -0.1638
  242MOL     H648688   6.532   6.781   7.606  1.2744 -1.3452 -0.5646
  242MOL     H748689   6.476   6.627   7.555 -0.4424 -0.1011  0.2836
  242MOL     H848690   6.293   6.791   7.641 -0.6287  2.6034  0.3650
  242MOL     H948691   6.157   6.608   7.617 -0.1082  1.8418  0.3550
  242MOL    H1048692   6.072   6.567   7.477  1.3859 -0.3873 -0.3811
  242MOL    H1148693   6.516   6.759   7.434 -0.5877 -0.5929 -0.3737
  242MOL    C1248694   6.329   6.934   7.490  0.1989  0.4260  0.1640
  242MOL    C1348695   6.216   7.025   7.533  1.0081  1.0821 -0.2807
  242MOL    C1448696   6.201   7.150   7.447  0.6266 -0.3141  0.4117
  242MOL    O1548697   6.290   7.229   7.455  0.2578  0.1463  0.1951
  242MOL    N1648698   6.097   7.163   7.369  0.4941 -0.5783 -0.2025
  242MOL    H1748699   6.343   6.939   7.382  0.4865  0.2997  0.1953
  242MOL    H1848700   6.419   6.990   7.518  1.2124 -1.4171  0.6624
  242MOL    H1948701   6.126   6.966   7.515  0.9886  0.6638  1.1357
  242MOL    H2048702   6.034   7.086   7.357  0.9846 -1.2895  1.6609
  242MOL    H2148703   6.076   7.249   7.319 -1.2284 -1.1161 -0.4312
  242MOL    C2248704   6.213   7.065   0.029 -0.3694  0.0293 -0.0656
  242MOL    C2348705   6.076   7.111   0.090  0.2300  0.1738 -0.0016
  242MOL    C2448706   6.109   7.172   0.230  0.3707  0.3567 -0.8258
  242MOL    O2548707   6.106   7.103   0.330  0.4504  0.1373 -0.0924
  242MOL    N2648708   6.146   7.303   0.234 -0.2862 -0.1834  0.3961
  242MOL    H2748709   6.283   7.146   0.049 -0.9321  0.4765  0.1211
  242MOL    H2848710   6.247   6.981   0.090  2.4617  0.8276 -0.4549
  242MOL    H2948711   6.060   7.201   0.030 -1.4774 -0.2816 -0.2453
  242MOL    H3048712   6.154   7.352   0.322 -1.1274  0.2279  0.2485
  242MOL    H3148713   6.148   7.351   0.145  2.0320 -1.1340 -0.1026
  242MOL    C3248714   5.965   7.007   0.088 -0.4252  0.3625  1.1935
  242MOL    C3348715   5.878   7.003   7.616  0.5376  0.0928 -0.2349
  242MOL    C3448716   5.748   7.093   7.641 -0.2142  0.0525  0.9026
  242MOL    O3548717   5.687   7.096   0.089  0.6203  0.4361  0.1456
  242MOL    N3648718   5.726   7.181   7.545  0.1020  0.2828 -0.9735
  242MOL    H3748719   5.905   7.023   0.177 -3.0456  0.3270 -0.4931
  242MOL    H3848720   6.009   6.911   0.113  0.3761 -0.0806 -1.6590
  242MOL    H3948721   5.938   7.047   7.536 -1.1522 -0.7658 -2.0241
  242MOL    H4048722   5.650   7.244   7.567  1.3324  0.3015  4.0034
  242MOL    H4148723   5.759   7.164   7.452  2.0437 -1.0554 -0.0747
  242MOL    C4248724   5.846   6.858   7.576  0.5516 -0.0865 -0.3237
  242MOL    C4348725   5.792   6.819   7.427 -0.0109  0.8018 -0.3636
  242MOL    C4448726   5.853   6.915   7.326 -0.0549  0.5608 -0.1975
  242MOL    O4548727   5.838   7.037   7.320  0.1268  0.1030 -0.2084
  242MOL    N4648728   5.946   6.853   7.246 -0.0469 -0.2963  0.4762
  242MOL    H4748729   5.783   6.806   7.649  0.4600 -0.4348 -0.6480
  242MOL    H4848730   5.939   6.804   7.596 -0.6107 -1.7628  0.7599
  242MOL    H4948731   5.820   6.718   7.396 -1.1716 -0.1573  1.5685
  242MOL    H5048732   5.986   6.895   7.164 -4.0184  0.1015 -1.3690
  242MOL    H5148733   5.960   6.753   7.254 -0.5947 -0.4070  0.0589
  242MOL    C5248734   5.640   6.821   7.425  0.5297 -0.0137 -0.1751
  242MOL    C5348735   5.568   6.698   7.494 -0.6843 -0.0130 -0.0586
  242MOL    C5448736   5.614   6.563   7.432  0.9417  0.5818  0.0442
  242MOL    O5548737   5.670   6.478   7.505 -0.5115 -0.0128  0.2425
  242MOL    N5648738   5.591   6.551   7.306 -0.2006  0.4239  0.0053
  242MOL    H5748739   5.591   6.833   7.328  0.7595 -1.0275 -0.4167
  242MOL    H5848740   5.608   6.914   7.474  1.3246  0.0950  0.1346
  242MOL    H5948741   5.604   6.701   7.597  1.1482 -1.1802 -0.6460
  242MOL    H6048742   5.537   6.625   7.262 -0.9397  0.0108  0.2194
  242MOL    H6148743   5.614   6.477   7.241 -2.9056 -0.2973 -0.1827
  242MOL    C6248744   5.414   6.709   7.507  0.4329  0.1400  0.8697
  242MOL    C6348745   5.350   6.602   7.595  0.9351  0.0154 -0.4377
  242MOL    C6448746   5.211   6.582   7.544  0.3736  0.2530  0.3208
  242MOL    O6548747   5.125   6.661   7.565 -0.1047 -0.8656 -0.6509
  242MOL    N6648748   5.190   6.473   7.472  0.3593 -0.2044  0.6858
  242MOL    H6748749   5.378   6.707   7.404  1.1027 -0.9775  0.6540
  242MOL    H6848750   5.389   6.807   7.548 -0.0942 -0.5620  2.2314
  242MOL    H6948751   5.406   6.509   7.581 -2.9981 -2.8134  1.4403
  242MOL    H7048752   5.105   6.459   7.420 -0.1035 -0.7544  1.5777
  242MOL    H7148753   5.266   6.407   7.461 -1.4438 -2.4377  1.2520
  242MOL    C7248754   5.363   6.629   0.096  0.2596  0.5424 -0.5594
  242MOL    C7348755   5.362   6.496   0.171 -0.2278  0.4299  0.1411
  242MOL    C7448756   5.303   6.509   0.310  0.3236 -0.3251  0.0675
  242MOL    O7548757   5.374   6.554   0.401  0.3167 -0.3093 -0.0707
  242MOL    N7648758   5.184   6.474   0.329 -0.2494  0.3523  0.1969
  242MOL    H7748759   5.277   6.690   0.124 -1.0802  0.5637 -4.3126
  242MOL    H7848760   5.455   6.684   0.116  1.3245 -1.4019  0.0216
  242MOL    H7948761   5.298   6.430   0.112  0.5549  1.1370 -1.5382
  242MOL    H8048762   5.129   6.450   0.247  1.1653  1.0754 -0.9789
  242MOL    H8148763   5.138   6.490   0.418 -0.2818 -0.9253  0.4290
  242MOL    C8248764   5.493   6.413   0.180 -0.0988 -0.3925  0.5180
  242MOL    C8348765   5.492   6.273   0.249  0.3853  0.3956 -0.5896
  242MOL    C8448766   5.613   6.260   0.342  0.0041  0.5379  0.8030
  242MOL    O8548767   5.720   6.205   0.307  0.4753 -0.0580 -1.0500
  242MOL    N8648768   5.599   6.297   0.475 -0.0470  0.4987 -0.2341
  242MOL    H8748769   5.566   6.482   0.223 -1.5115  0.6868  1.2533
  242MOL    H8848770   5.538   6.399   0.082 -0.6964 -0.8962  0.3114
  242MOL    H8948771   5.399   6.256   0.305 -0.7087 -3.1641 -3.2916
  242MOL    H9048772   5.510   6.337   0.497 -0.4476 -0.9744  0.9199
  242MOL    H9148773   5.669   6.282   0.546 -0.6965 -1.3858  0.0332
  242MOL    C9248774   5.490   6.160   0.153 -0.1526  0.4486  1.0132
  242MOL    C9348775   5.353   6.134   0.085 -0.0653  0.0170 -1.2473
  242MOL    C9448776   5.252   6.097   0.193  0.6082 -0.3084 -0.2704
  242MOL    O9548777   5.272   6.008   0.276 -0.3268 -0.6063 -0.2510
  242MOL    N9648778   5.129   6.154   0.198 -0.5541  0.2953  0.0629
  242MOL    H9748779   5.515   6.070   0.209 -2.6777 -0.4521  0.7724
  242MOL    H9848780   5.565   6.182   0.076  0.7660 -0.3286  1.6798
  242MOL    H9948781   5.308   6.223   0.042 -0.6556  0.3513  0.0449
  242MOL   H10048782   5.059   6.132   0.268 -0.0373  0.6722  0.7053
  242MOL   H10148783   5.099   6.217   0.125 -0.2087  2.6330  1.8888
  242MOL   C10248784   5.366   6.021   7.633 -0.0419 -0.6152  0.0827
  242MOL   C10348785   5.287   6.048   7.502  0.1869  0.0288  0.7456
  242MOL   C10448786   5.360   6.153   7.420  0.5822 -0.1750 -0.1478
  242MOL   O10548787   5.361   6.273   7.450  0.1430  0.8863 -0.4316
  242MOL   N10648788   5.419   6.111   7.306 -0.1178  0.3879  0.2326
  242MOL   H10748789   5.335   5.926   0.020 -0.9098  0.8464  2.7809
  242MOL   H10848790   5.463   6.000   7.588 -1.2328 -1.6834 -2.0723
  242MOL   H10948791   5.296   5.955   7.446 -0.9105 -0.0470  0.6759
  242MOL   H11048792   5.426   6.014   7.279 -1.5547 -0.0497  1.3542
  242MOL   H11148793   5.478   6.175   7.256  0.4081  0.5368  1.0325
  242MOL   C11248794   5.136   6.087   7.520 -0.0174  0.5762  0.2345
  242MOL   C11348795   5.064   6.092   7.381 -0.0752 -0.3287 -0.3627
  242MOL   C11448796   5.034   6.230   7.330  0.1052  0.6731 -0.0044
  242MOL   O11548797   4.967   6.315   7.380 -0.2565 -0.0229  0.5565
  242MOL   N11648798   5.084   6.266   7.218 -0.2147 -0.4315 -0.1727
  242MOL   H11748799   5.124   6.178   7.578 -2.0154  0.7691 -0.4489
  242MOL   H11848800   5.092   6.017   7.591 -2.3532  1.3382 -0.4151
  242MOL   H11948801   5.127   6.043   7.307  1.0494  1.7590 -0.8185
  242MOL   H12048802   5.035   6.342   7.175  0.0908 -0.0651  0.1151
  242MOL   H12148803   5.149   6.216   7.159  2.3735  3.6571 -0.9809
  242MOL   C12248804   4.935   6.000   7.380  0.4976  0.3203  0.7027
  242MOL   C12348805   4.866   5.982   7.246 -0.3634  0.0014  0.4379
  242MOL   C12448806   4.744   6.078   7.223  0.1683  0.1565  0.5180
  242MOL   O12548807   4.747   6.169   7.142 -0.3474 -0.7901 -0.2200
  242MOL   N12648808   4.631   6.057   7.296  0.1070 -0.9739 -0.0712
  242MOL   H12748809   4.864   6.031   7.456  0.1114  2.0504 -0.3406
  242MOL   H12848810   4.978   5.904   7.410 -1.3577 -0.7877 -0.1585
  242MOL   H12948811   4.929   6.023   7.168 -0.3949 -0.7774 -0.0029
  242MOL   H13048812   4.629   5.989   7.371  0.9311 -0.9600 -0.0320
  242MOL   H13148813   4.562   6.130   7.297  0.8905 -0.2356  0.5755
  242MOL   C13248814   4.832   5.832   7.219  0.2560 -0.2022  0.2446
  242MOL   C13348815   4.944   5.753   7.142 -0.2282 -0.1747  0.5440
  242MOL   C13448816   4.896   5.606   7.139 -0.4887  0.1897  0.3758
  242MOL   O13548817   4.891   5.535   7.237  0.0115 -0.5479  0.1148
  242MOL   N13648818   4.853   5.562   7.025  0.1725  0.0241  0.2457
  242MOL   H13748819   4.740   5.833   7.160  0.6216  0.2611 -0.3131
  242MOL   H13848820   4.790   5.786   7.309  0.2506  0.4429  0.5760
  242MOL   H13948821   4.946   5.794   7.042 -2.3379 -0.5320  0.3466
  242MOL   H14048822   4.846   5.618   6.942  0.9843 -0.9232 -0.4711
  242MOL   H14148823   4.834   5.463   7.018  2.5350 -0.7553  3.3498
  242MOL   C14248824   5.089   5.763   7.197  0.7833 -0.2907 -0.2347
  242MOL   C14348825   5.214   5.687   7.138 -0.4087 -0.2426  0.2014
  242MOL   C14448826   5.330   5.712   7.237 -0.2359  0.3652 -0.0803
  242MOL   O14548827   5.381   5.821   7.258  0.1486 -0.5902 -0.8438
  242MOL   N14648828   5.393   5.605   7.281  0.0832 -0.5051  0.3491
  242MOL   H14748829   5.079   5.742   7.304 -2.9040 -1.6743 -0.7824
  242MOL   H14848830   5.116   5.868   7.189  0.0017 -0.1279 -0.8294
  242MOL   H14948831   5.186   5.582   7.145  1.0831 -0.6651 -0.0236
  242MOL   H15048832   5.478   5.599   7.336  0.0015 -1.0502  0.4103
  242MOL   H15148833   5.346   5.518   7.261 -0.5980  0.1772 -1.0960
  242MOL   C15248834   5.236   5.728   6.993 -0.1492 -0.0357 -0.3966
  242MOL   C15348835   5.335   5.640   6.908  0.4728 -0.6915 -0.2701
  242MOL   C15448836   5.480   5.644   6.954 -0.4359 -0.2864 -0.5240
  242MOL   O15548837   5.539   5.753   6.971  0.1585 -0.0832 -0.0627
  242MOL   N15648838   5.539   5.526   6.973  0.3297  0.0602 -0.0117
  242MOL   H15748839   5.261   5.834   7.000 -0.8679  0.1906 -1.1796
  242MOL   H15848840   5.137   5.720   6.948 -0.1951  0.5975 -0.4067
  242MOL   H15948841   5.305   5.536   6.906  1.4643 -1.0307  1.5910
  242MOL   H16048842   5.490   5.440   6.954 -1.3198  0.9856  0.0316
  242MOL   H16148843   5.637   5.535   6.995  0.6286 -1.0897 -0.8217
  242MOL   C16248844   5.332   5.679   6.761 -0.2098 -0.2924 -0.2015
  242MOL   C16348845   5.191   5.674   6.682 -0.0597 -0.1008 -0.2815
  242MOL   C16448846   5.152   5.523   6.692  0.6625  0.3435  1.2399
  242MOL   O16548847   5.237   5.438   6.685 -0.9177  0.2772  0.0525
  242MOL   N16648848   5.029   5.486   6.721  0.0921 -0.5193  0.1852
  242MOL   H16748849   5.400   5.615   6.705  2.3653  0.1960  2.2788
  242MOL   H16848850   5.385   5.773   6.747  1.2334 -1.1358 -0.4971
  242MOL   H16948851   5.112   5.738   6.721 -0.8367 -0.5215 -1.1752
  242MOL   H17048852   4.966   5.558   6.754  1.0663  0.3007  0.2725
  242MOL   H17148853   5.018   5.387   6.734 -0.0467 -0.6062 -0.5506
  242MOL   C17248854   5.217   5.708   6.529  0.1120 -0.3791  0.1730
  242MOL   C17348855   5.104   5.759   6.444  0.0832 -0.5227 -0.5364
  242MOL   C17448856   5.129   5.733   6.294 -0.1917 -0.7986 -0.2115
  242MOL   O17548857   5.240   5.693   6.260  0.1684 -0.8347  0.5575
  242MOL   N17648858   5.036   5.769   6.208  0.9293  0.1708  0.5556
  242MOL   H17748859   5.251   5.613   6.486  0.7555  0.8005 -2.0193
  242MOL   H17848860   5.308   5.764   6.506 -1.1260  1.5962 -0.0382
  242MOL   H17948861   5.013   5.700   6.457  1.1039 -2.4023 -1.7119
  242MOL   H18048862   4.947   5.806   6.237  0.1728  0.1215 -1.6054
  242MOL   H18148863   5.054   5.778   6.109 -2.8942  1.2766 -0.1090
  242MOL   C18248864   5.067   5.907   6.472 -0.6589 -0.3075 -0.0108
  242MOL   C18348865   4.935   5.935   6.542  0.1825 -1.0811  0.5099
  242MOL   C18448866   4.814   5.906   6.455  0.4046 -0.1433 -0.1316
  242MOL   O18548867   4.818   5.892   6.333  0.4481 -0.4262 -0.4189
  242MOL   N18648868   4.692   5.911   6.512  0.1311 -0.0618 -0.1530
  242MOL   H18748869   5.071   5.962   6.377  0.0205 -1.0329 -0.4069
  242MOL   H18848870   5.161   5.947   6.511 -0.5040 -0.2408 -0.4459
  242MOL   H18948871   4.937   5.875   6.633  0.5762  2.4854  2.9657
  242MOL   H19048872   4.678   5.956   6.602 -0.7046  0.7554 -0.6692
  242MOL   H19148873   4.611   5.899   6.453 -1.2437  2.2055  1.1615
  242MOL   C19248874   4.937   6.085   6.593  0.3135  0.2748 -0.2773
  242MOL   C19348875   5.017   6.093   6.719 -0.2648  0.1757 -0.6628
  242MOL   C19448876   4.928   6.085   6.842 -0.3825 -0.3853 -0.2206
  242MOL   O19548877   4.873   5.985   6.865 -0.1416  0.0223 -0.6573
  242MOL   N19648878   4.903   6.191   6.920  0.6088 -0.0484 -0.3801
  242MOL   H19748879   4.840   6.128   6.617 -0.0751  0.4070 -2.0298
  242MOL   H19848880   4.976   6.136   6.505  0.4421  2.8313  1.2427
  242MOL   H19948881   5.092   6.015   6.724 -2.1589 -1.7387 -1.1085
  242MOL   H20048882   4.836   6.167   6.991  2.4114 -1.1736  1.0013
  242MOL   H20148883   4.963   6.272   6.929  1.2131 -0.4519 -0.7443
  242MOL   H20248884   5.059   6.194   6.725 -1.1524  0.5517 -0.6509
  243MOL     C148885   1.846   1.719   4.841 -0.1396  0.1613 -0.2990
  243MOL     C248886   1.842   1.871   4.829 -0.3478 -0.0856 -1.3201
  243MOL     C348887   1.814   1.919   4.972 -0.0495  0.7548  0.2852
  243MOL     O448888   1.719   1.866   5.041  0.5236 -0.3465  0.5839
  243MOL     N548889   1.892   2.019   5.014 -0.0163  0.1126  0.0827
  243MOL     H648890   1.910   1.688   4.924 -0.2730  0.3827 -0.1116
  243MOL     H748891   1.752   1.673   4.871 -0.3985  1.9241  1.7172
  243MOL     H848892   1.941   1.906   4.800  0.8636 -0.0772  2.5752
  243MOL     H948893   1.879   2.056   5.107 -3.5421 -0.7110  0.0130
  243MOL    H1048894   1.963   2.058   4.954 -1.1666 -0.8610 -1.9942
  243MOL    H1148895   1.886   1.671   4.752 -0.1568 -1.4316  0.5398
  243MOL    C1248896   1.738   1.927   4.725 -0.5917  0.6880 -0.2959
  243MOL    C1348897   1.754   2.070   4.666 -0.2454  0.0256 -0.0184
  243MOL    C1448898   1.704   2.191   4.757 -0.0974 -0.5126 -0.1943
  243MOL    O1548899   1.591   2.177   4.799 -0.3736  0.5230  0.1508
  243MOL    N1648900   1.775   2.292   4.784  0.0519  0.2667 -0.2034
  243MOL    H1748901   1.638   1.913   4.765 -0.1728 -0.4713  0.3626
  243MOL    H1848902   1.762   1.857   4.645  0.3238  0.1747  0.4196
  243MOL    H1948903   1.860   2.095   4.660 -0.4111  0.6817 -0.1931
  243MOL    H2048904   1.720   2.367   4.823  1.6081  1.2375  0.1657
  243MOL    H2148905   1.874   2.299   4.767 -0.0764  0.2284 -0.9763
  243MOL    C2248906   1.678   2.081   4.530  0.4481 -0.8687 -0.0854
  243MOL    C2348907   1.708   2.200   4.434 -0.3061 -0.0140 -0.2588
  243MOL    C2448908   1.855   2.246   4.433  0.2112 -1.0809  0.9459
  243MOL    O2548909   1.902   2.338   4.505  0.0855  0.0774 -0.0419
  243MOL    N2648910   1.937   2.186   4.348 -0.3694 -0.0301 -0.0591
  243MOL    H2748911   1.571   2.074   4.551  1.1571 -0.8095  3.9882
  243MOL    H2848912   1.702   1.986   4.482 -0.1594 -0.6250 -0.8833
  243MOL    H2948913   1.693   2.167   4.331  0.3082  0.1655 -0.4089
  243MOL    H3048914   1.907   2.108   4.292  1.1837 -0.8026  0.1458
  243MOL    H3148915   2.036   2.207   4.341 -0.5675  0.8371 -0.2839
  243MOL    C3248916   1.619   2.324   4.461  0.2942  0.6692  0.2762
  243MOL    C3348917   1.463   2.312   4.426 -0.3482 -0.8527 -0.3977
  243MOL    C3448918   1.436   2.421   4.323 -0.4165 -0.3081 -0.1210
  243MOL    O3548919   1.416   2.536   4.357  0.3455 -0.1166 -0.0771
  243MOL    N3648920   1.439   2.385   4.202 -0.3168 -0.1103  0.1906
  243MOL    H3748921   1.663   2.407   4.406 -0.0340 -0.0659 -1.1372
  243MOL    H3848922   1.631   2.332   4.569 -2.6886 -0.3606  0.7392
  243MOL    H3948923   1.451   2.218   4.373 -2.2103 -0.6364 -0.3769
  243MOL    H4048924   1.463   2.290   4.175 -1.0887 -0.0733 -0.6502
  243MOL    H4148925   1.437   2.458   4.133 -1.1179 -0.6642 -0.3846
  243MOL    C4248926   1.383   2.327   4.552  0.2701  0.6359 -0.4590
  243MOL    C4348927   1.268   2.233   4.551  0.2730 -0.1520  0.1921
  243MOL    C4448928   1.178   2.260   4.433 -0.1588  0.4302  0.3746
  243MOL    O4548929   1.103   2.354   4.417  0.4227 -0.4691 -0.8890
  243MOL    N4648930   1.181   2.163   4.339 -0.4534 -0.1993  0.1465
  243MOL    H4748931   1.339   2.426   4.552  1.3191  1.0997 -1.1816
  243MOL    H4848932   1.433   2.309   4.648 -0.7672 -0.7048 -0.1443
  243MOL    H4948933   1.316   2.135   4.547 -1.9036 -1.1506 -4.5954
  243MOL    H5048934   1.230   2.075   4.341  1.5850  0.9255  1.3008
  243MOL    H5148935   1.131   2.178   4.253 -0.3721  0.6041  0.2353
  243MOL    C5248936   1.177   2.234   4.680 -0.2693  0.2691  0.6596
  243MOL    C5348937   1.228   2.140   4.797 -0.2427  0.2063  0.6604
  243MOL    C5448938   1.180   2.005   4.761 -0.2986 -0.4499 -0.0397
  243MOL    O5548939   1.062   1.972   4.758  0.1014 -0.2046 -0.3729
  243MOL    N5648940   1.274   1.921   4.732 -0.4103 -0.5402  0.1230
  243MOL    H5748941   1.077   2.199   4.654  1.6476 -4.0502 -1.3630
  243MOL    H5848942   1.166   2.338   4.713 -0.6568  1.0624 -1.8120
  243MOL    H5948943   1.337   2.145   4.790 -0.2022  1.8661  2.2345
  243MOL    H6048944   1.260   1.828   4.696  1.6227 -0.1664 -1.6878
  243MOL    H6148945   1.366   1.961   4.732 -0.5894 -0.1132  0.7711
  243MOL    C6248946   1.175   2.185   4.938 -0.3840 -0.1115 -0.1671
  243MOL    C6348947   1.279   2.189   5.050 -0.6135 -0.3291  0.5743
  243MOL    C6448948   1.359   2.054   5.061  0.0609 -0.6386  0.0016
  243MOL    O6548949   1.323   1.968   5.137  0.3357  0.6038  0.2167
  243MOL    N6648950   1.470   2.041   4.994 -0.2847 -0.2104  0.4596
  243MOL    H6748951   1.105   2.107   4.972 -0.6418 -0.9476 -2.5126
  243MOL    H6848952   1.118   2.278   4.931 -0.0737  0.1058  0.1754
  243MOL    H6948953   1.350   2.270   5.036 -0.6641 -0.9050 -3.9017
  243MOL    H7048954   1.517   1.952   4.992 -0.7934 -0.4774  0.2992
  243MOL    H7148955   1.505   2.116   4.936 -2.1016  0.3875  0.1105
  243MOL    C7248956   1.216   2.217   5.182  0.6100 -0.4837  0.1489
  243MOL    C7348957   1.313   2.233   5.306 -0.6144  0.3920 -0.0737
  243MOL    C7448958   1.251   2.158   5.422  0.1875  0.2190 -0.2705
  243MOL    O7548959   1.222   2.212   5.530  0.5111  0.1632  0.2446
  243MOL    N7648960   1.239   2.028   5.405  0.5392  0.7660  0.2233
  243MOL    H7748961   1.127   2.155   5.197  1.8151 -2.5977 -1.1418
  243MOL    H7848962   1.165   2.310   5.155 -0.8074 -1.9163 -2.3124
  243MOL    H7948963   1.408   2.186   5.281 -0.3560  0.8691  0.0017
  243MOL    H8048964   1.259   1.990   5.314  2.0457 -0.7078  1.1231
  243MOL    H8148965   1.204   1.966   5.477  0.1465 -1.2659 -1.6565
  243MOL    C8248966   1.345   2.379   5.340 -0.5142  0.2925 -0.0164
  243MOL    C8348967   1.456   2.450   5.251 -1.1929 -0.1607 -0.0727
  243MOL    C8448968   1.585   2.371   5.243 -0.6427 -0.1165  0.4744
  243MOL    O8548969   1.623   2.308   5.340  0.4839  0.4932  0.4434
  243MOL    N8648970   1.650   2.366   5.127  0.1159  0.5862  0.8533
  243MOL    H8748971   1.390   2.369   5.439  2.0139 -0.4678 -1.1835
  243MOL    H8848972   1.252   2.435   5.348 -1.0537 -0.7711  1.3706
  243MOL    H8948973   1.416   2.455   5.149 -0.5942  2.6622 -0.2020
  243MOL    H9048974   1.617   2.408   5.041  1.1855 -1.4396 -0.5932
  243MOL    H9148975   1.741   2.324   5.133 -0.3996 -0.4571  1.5727
  243MOL    C9248976   1.483   2.593   5.308 -0.7002 -0.0925 -0.2758
  243MOL    C9348977   1.477   2.617   5.468  0.3664 -0.2637 -0.3103
  243MOL    C9448978   1.481   2.767   5.495 -0.3227 -0.0669  0.1327
  243MOL    O9548979   1.588   2.820   5.520  0.3579 -0.5346 -0.5219
  243MOL    N9648980   1.368   2.837   5.505  0.5296 -0.0930 -0.1480
  243MOL    H9748981   1.405   2.653   5.263  0.1946  1.3991  0.1419
  243MOL    H9848982   1.578   2.619   5.261 -0.0709 -0.8748  0.5297
  243MOL    H9948983   1.378   2.579   5.491  1.5788 -2.8576  0.8347
  243MOL   H10048984   1.380   2.937   5.503 -1.3211  0.1654  0.7214
  243MOL   H10148985   1.289   2.784   5.470  0.6217  0.8258 -1.8418
  243MOL   C10248986   1.584   2.550   5.561  0.7655 -0.0124  0.1604
  243MOL   C10348987   1.532   2.487   5.694  0.8454 -0.2593  0.2710
  243MOL   C10448988   1.501   2.592   5.799  0.4263 -0.3364  0.2726
  243MOL   O10548989   1.586   2.672   5.830  0.3222 -0.4851  0.4339
  243MOL   N10648990   1.378   2.591   5.847 -0.3683 -0.0256 -0.0932
  243MOL   H10748991   1.680   2.598   5.576  0.3198  0.1730  2.5661
  243MOL   H10848992   1.625   2.475   5.494 -1.4297  0.4897 -1.8106
  243MOL   H10948993   1.450   2.418   5.675 -1.6699  3.6463 -3.9753
  243MOL   H11048994   1.311   2.516   5.839  1.3030 -1.3277 -2.4982
  243MOL   H11148995   1.338   2.671   5.892  0.7489  0.6361 -0.2426
  243MOL   C11248996   1.648   2.403   5.758  0.1909 -0.4944 -0.3067
  243MOL   C11348997   1.693   2.285   5.670 -0.2473 -0.2258  0.5514
  243MOL   C11448998   1.587   2.176   5.673 -0.2582 -0.3605  0.0636
  243MOL   O11548999   1.527   2.132   5.777 -0.8608  0.1271  0.8119
  243MOL   N11649000   1.549   2.124   5.559 -0.0422  0.7143 -0.0649
  243MOL   H11749001   1.614   2.366   5.855 -3.0584 -0.5889 -1.3957
  243MOL   H11849002   1.732   2.471   5.770  0.2282 -0.6149  0.1199
  243MOL   H11949003   1.708   2.320   5.567 -0.4540 -0.6498  0.3785
  243MOL   H12049004   1.605   2.150   5.479  1.2377  2.2691  1.2845
  243MOL   H12149005   1.462   2.074   5.556 -0.1000  0.8424 -0.5040
  243MOL   C12249006   1.830   2.220   5.718  0.0720 -0.2684  0.2774
  243MOL   C12349007   1.878   2.103   5.627 -0.0222  0.9495 -0.3458
  243MOL   C12449008   1.897   1.980   5.715 -0.2641  0.9848 -0.4231
  243MOL   O12549009   2.007   1.940   5.750 -0.9254 -0.1971 -0.3269
  243MOL   N12649010   1.787   1.908   5.740  0.1998  0.0965  0.0346
  243MOL   H12749011   1.820   2.178   5.818 -2.5449 -0.4617 -0.0532
  243MOL   H12849012   1.911   2.291   5.736 -1.5493  1.4798  0.8570
  243MOL   H12949013   1.801   2.079   5.554  1.1319  0.4425 -1.4104
  243MOL   H13049014   1.693   1.928   5.710  0.1096  1.0738  0.9334
  243MOL   H13149015   1.801   1.823   5.793 -1.6474 -1.1323 -1.3901
  243MOL   C13249016   2.007   2.147   5.557  0.7564  0.5185  0.2204
  243MOL   C13349017   2.031   2.077   5.415  0.4476 -0.3626  0.5828
  243MOL   C13449018   2.069   1.926   5.421  0.6287  0.4304  1.4273
  243MOL   O13549019   2.185   1.885   5.435  0.5162 -0.3939 -0.2114
  243MOL   N13649020   1.972   1.841   5.420  0.0105  0.4636  0.5931
  243MOL   H13749021   2.086   2.098   5.615  0.4309 -0.4790 -0.1578
  243MOL   H13849022   2.012   2.256   5.562  0.6659  0.5685 -0.7289
  243MOL   H13949023   1.936   2.064   5.363 -1.6276 -0.1041  4.1256
  243MOL   H14049024   1.876   1.872   5.425 -0.6023 -1.1437 -0.7439
  243MOL   H14149025   1.987   1.742   5.438 -0.1750  0.7080  2.1022
  243MOL   C14249026   2.139   2.152   5.318  0.4273 -0.2765  0.2399
  243MOL   C14349027   2.119   2.308   5.303 -0.3200 -0.1718  0.2214
  243MOL   C14449028   1.973   2.341   5.266 -0.5719 -0.3249 -0.3301
  243MOL   O14549029   1.906   2.279   5.182 -0.0632 -0.4251  0.3259
  243MOL   N14649030   1.909   2.416   5.350 -0.3977 -0.8978 -0.3770
  243MOL   H14749031   2.142   2.091   5.228  0.1488 -0.8213  0.6027
  243MOL   H14849032   2.241   2.147   5.356  1.6227  0.9521 -2.6045
  243MOL   H14949033   2.132   2.351   5.402 -0.3629 -1.0581  0.6123
  243MOL   H15049034   1.959   2.462   5.424 -0.3103  0.2524 -1.1282
  243MOL   H15149035   1.809   2.408   5.362 -0.3953 -1.2035 -0.5576
  243MOL   C15249036   2.221   2.374   5.205 -0.1902 -0.1880 -0.2460
  243MOL   C15349037   2.208   2.348   5.052  0.1419  0.5934 -0.4184
  243MOL   C15449038   2.278   2.226   5.008 -0.8601  0.6191 -0.2349
  243MOL   O15549039   2.385   2.188   5.058  0.4459  0.5881  0.2616
  243MOL   N15649040   2.226   2.152   4.910  0.1595 -0.5235 -0.3268
  243MOL   H15749041   2.324   2.366   5.237 -0.3057  0.0731  0.1970
  243MOL   H15849042   2.199   2.480   5.221 -1.9611 -1.1900  4.7692
  243MOL   H15949043   2.102   2.341   5.026 -0.2055 -0.2428  1.1723
  243MOL   H16049044   2.135   2.179   4.875 -0.9157 -0.5168  2.3440
  243MOL   H16149045   2.274   2.070   4.874  0.4308  0.3236 -1.9612
  243MOL   C16249046   2.257   2.470   4.968  0.6775 -0.2688  0.3772
  243MOL   C16349047   2.263   2.463   4.814 -0.3687  0.7749 -0.3153
  243MOL   C16449048   2.141   2.397   4.736  0.2099  0.1935  0.2916
  243MOL   O16549049   2.056   2.327   4.793 -0.0232  0.1321 -0.9740
  243MOL   N16649050   2.132   2.422   4.611  0.0774 -0.0534 -0.1757
  243MOL   H16749051   2.351   2.507   5.008 -0.6838  3.8218  0.0436
  243MOL   H16849052   2.192   2.552   4.998  0.1750 -0.0245 -1.3242
  243MOL   H16949053   2.255   2.568   4.785 -0.6742  0.2125 -2.3557
  243MOL   H17049054   2.196   2.485   4.564 -0.3782  0.7901  0.3167
  243MOL   H17149055   2.045   2.404   4.562 -0.6522 -1.1574  1.4889
  243MOL   C17249056   2.396   2.401   4.757  0.5393  0.1220 -0.2903
  243MOL   C17349057   2.521   2.475   4.805  0.3109  0.0131  0.5650
  243MOL   C17449058   2.610   2.513   4.681  0.7066 -0.4109 -0.9173
  243MOL   O17549059   2.720   2.462   4.655 -0.1980 -0.4364  0.3193
  243MOL   N17649060   2.561   2.604   4.596  0.0693  0.1025  0.6020
  243MOL   H17749061   2.395   2.413   4.649  1.4131 -1.7060 -0.5121
  243MOL   H17849062   2.401   2.294   4.776  1.2897 -0.1172 -1.7415
  243MOL   H17949063   2.482   2.565   4.852 -0.9408  0.1578 -0.7195
  243MOL   H18049064   2.460   2.613   4.602 -0.0577 -0.9756  0.1650
  243MOL   H18149065   2.610   2.649   4.521  0.6803  0.2725  1.0963
  243MOL   C18249066   2.590   2.388   4.906 -0.9087 -0.1615 -0.6850
  243MOL   C18349067   2.717   2.466   4.976 -0.2570  0.4891  0.1728
  243MOL   C18449068   2.814   2.365   5.040 -0.4690  0.5518  0.6188
  243MOL   O18549069   2.830   2.256   4.991  0.5363  0.3825 -0.0705
  243MOL   N18649070   2.876   2.387   5.153  0.1539 -0.4353 -0.1098
  243MOL   H18749071   2.610   2.288   4.868  1.0731 -0.1481  0.2740
  243MOL   H18849072   2.516   2.380   4.986  0.1639  0.5373  0.4067
  243MOL   H18949073   2.768   2.530   4.903 -2.5310  2.5710  0.3185
  243MOL   H19049074   2.848   2.470   5.202  0.9149 -0.6020  0.6057
  243MOL   H19149075   2.936   2.314   5.190  1.3187  0.8790  0.6106
  243MOL   C19249076   2.662   2.568   5.078 -0.0350 -0.0471 -0.1856
  243MOL   C19349077   2.603   2.519   5.213  0.7808 -0.7047 -0.5565
  243MOL   C19449078   2.527   2.619   5.301  0.0634  0.0665  0.0751
  243MOL   O19549079   2.434   2.682   5.254 -0.8675  0.8620 -0.2744
  243MOL   N19649080   2.579   2.635   5.425  0.8708  0.1764 -0.7376
  243MOL   H19749081   2.593   2.636   5.027 -0.6315  0.3118  1.0784
  243MOL   H19849082   2.749   2.625   5.111  0.0373  0.9485 -2.0212
  243MOL   H19949083   2.540   2.432   5.197 -0.1320  0.0594 -1.2215
  243MOL   H20049084   2.642   2.571   5.470 -1.0773  0.9890  3.4107
  243MOL   H20149085   2.558   2.709   5.490  0.0819 -0.9906  0.3624
  243MOL   H20249086   2.684   2.486   5.277  0.3465 -0.0954  0.3334
  244MOL     C149087   2.507   7.386   5.667 -0.1165 -0.0285 -1.0872
  244MOL     C249088   2.553   7.337   5.798  0.2305  0.0110  0.1409
  244MOL     C349089   2.637   7.210   5.780  0.3827 -0.7970 -0.0047
  244MOL     O449090   2.594   7.103   5.831  0.4604  0.0223  0.3433
  244MOL     N549091   2.745   7.213   5.710  0.0408  0.0784  0.2366
  244MOL     H649092   2.588   7.439   5.618  0.4323 -2.2513 -2.6651
  244MOL     H749093   2.495   7.304   5.597  0.4970 -0.9124 -0.1631
  244MOL     H849094   2.628   7.405   5.838  0.7928  0.2712 -1.3388
  244MOL     H949095   2.779   7.301   5.673  0.6448 -0.3641 -0.2613
  244MOL    H1049096   2.809   7.135   5.716 -0.7386 -0.5493  0.3631
  244MOL    H1149097   2.418   7.449   5.677 -0.2489 -0.3874  0.1068
  244MOL    C1249098   2.446   7.324   5.914  0.3819  0.2906  0.6725
  244MOL    C1349099   2.404   7.451   6.001  0.0975  0.8913  0.0478
  244MOL    C1449100   2.472   7.586   5.969 -0.2366 -0.1339  0.0437
  244MOL    O1549101   2.591   7.608   6.004  0.0913  0.1664  0.4290
  244MOL    N1649102   2.412   0.020   5.899  0.3911 -0.2571  0.2707
  244MOL    H1749103   2.481   7.247   5.983  1.2328 -0.8032 -0.9509
  244MOL    H1849104   2.361   7.275   5.868  0.2999  1.6005 -0.5961
  244MOL    H1949105   2.300   7.463   5.970  0.0765 -2.2206 -1.2488
  244MOL    H2049106   2.445   0.114   5.882  1.4548 -0.4214  1.3416
  244MOL    H2149107   2.325   7.648   5.858 -0.7078 -0.3458  2.6043
  244MOL    C2249108   2.400   7.415   6.155 -0.3702  0.0389  0.1027
  244MOL    C2349109   2.320   7.492   6.261  0.2271 -0.6149  0.1907
  244MOL    C2449110   2.354   7.432   6.408  0.4561 -0.3693  0.4414
  244MOL    O2549111   2.292   7.333   6.455 -0.1659 -0.1829 -0.3142
  244MOL    N2649112   2.439   7.502   6.480  0.5497  0.0742  0.1076
  244MOL    H2749113   2.505   7.412   6.183  0.0070  1.1902 -1.1461
  244MOL    H2849114   2.378   7.308   6.162 -0.4191  0.0185 -0.3119
  244MOL    H2949115   2.362   7.592   6.254 -1.8797  0.3539  1.1167
  244MOL    H3049116   2.477   7.487   6.572  1.3139  0.9682 -0.0583
  244MOL    H3149117   2.462   7.589   6.434 -2.2991  0.7191 -0.1913
  244MOL    C3249118   2.168   7.501   6.232 -0.2048 -0.6195  1.0473
  244MOL    C3349119   2.070   7.566   6.343  0.7604  0.0513  0.1885
  244MOL    C3449120   1.922   7.542   6.314 -0.6781  0.5175  0.4091
  244MOL    O3549121   1.874   7.567   6.201  0.0479  0.4010 -0.6124
  244MOL    N3649122   1.849   7.496   6.419  0.5017  0.3584  0.1754
  244MOL    H3749123   2.134   7.398   6.215 -0.5091 -0.6136  1.6133
  244MOL    H3849124   2.149   7.554   6.138  0.8666  2.1986  2.3749
  244MOL    H3949125   2.095   7.525   6.441  0.7037  0.5176  0.4018
  244MOL    H4049126   1.757   7.455   6.407  0.1955  1.1890 -0.4281
  244MOL    H4149127   1.880   7.497   6.514 -0.2855 -4.0972  0.5909
  244MOL    C4249128   2.094   0.065   6.349  0.3884  0.2264  0.5986
  244MOL    C4349129   2.055   0.116   6.486 -0.5250  0.2348  0.4741
  244MOL    C4449130   2.004   0.257   6.493  0.3282 -0.3652 -0.4384
  244MOL    O4549131   1.947   0.314   6.588 -0.1541  0.2137 -0.6579
  244MOL    N4649132   2.024   0.335   6.387 -0.0493 -0.1642  0.2720
  244MOL    H4749133   2.039   0.120   6.273 -0.0711  1.0930  1.5463
  244MOL    H4849134   2.201   0.069   6.328  1.1696 -0.9394  4.0085
  244MOL    H4949135   1.968   0.062   6.524 -1.4174  0.0667 -1.7072
  244MOL    H5049136   2.003   0.434   6.387 -0.7996 -0.3056 -1.2951
  244MOL    H5149137   2.088   0.295   6.320  0.5942 -0.7138  1.1897
  244MOL    C5249138   2.167   0.085   6.596 -0.2429  0.6547  0.5729
  244MOL    C5349139   2.281   0.188   6.607 -0.1831 -0.4250 -1.1352
  244MOL    C5449140   2.368   0.196   6.484 -0.4518 -0.4187 -0.5590
  244MOL    O5549141   2.448   0.111   6.462 -0.2430 -0.0853  0.0046
  244MOL    N5649142   2.365   0.300   6.402  0.1786 -0.2555 -0.6076
  244MOL    H5749143   2.209   7.642   6.590  2.5771  1.8695 -0.9317
  244MOL    H5849144   2.104   0.081   6.685 -0.5874  1.1983  0.3564
  244MOL    H5949145   2.239   0.288   6.616 -1.7712 -1.1548 -0.2473
  244MOL    H6049146   2.291   0.368   6.410 -0.2980 -0.5955 -1.9102
  244MOL    H6149147   2.426   0.302   6.321  1.0569 -0.8270  0.0305
  244MOL    C6249148   2.362   0.178   6.738  0.1157 -0.2087  0.0122
  244MOL    C6349149   2.284   0.209   6.869 -0.1664 -0.2471  0.8972
  244MOL    C6449150   2.212   0.342   6.871  0.3854  1.0955  0.6693
  244MOL    O6549151   2.271   0.451   6.884 -0.0108 -0.5642  0.7385
  244MOL    N6649152   2.080   0.337   6.857  0.5589 -0.5948 -0.4095
  244MOL    H6749153   2.453   0.237   6.726 -1.2217  1.6856 -1.0308
  244MOL    H6849154   2.403   0.077   6.749 -2.4297 -0.9924  2.8883
  244MOL    H6949155   2.204   0.136   6.876  0.6004 -1.2649 -0.7140
  244MOL    H7049156   2.031   0.426   6.861  0.5400 -0.6155 -0.1957
  244MOL    H7149157   2.021   0.260   6.831 -0.2651 -0.6048  1.4739
  244MOL    C7249158   2.375   0.204   6.996 -0.3175  0.7604  0.0695
  244MOL    C7349159   2.458   0.078   7.009 -0.2917 -0.8524  0.3876
  244MOL    C7449160   2.371   7.607   6.996  0.1315  0.0228  0.2232
  244MOL    O7549161   2.394   7.526   6.904  0.0227  0.0766  0.1396
  244MOL    N7649162   2.262   7.607   7.068  0.2087  0.0093  0.9759
  244MOL    H7749163   2.313   0.208   7.086  0.6661  1.0781  0.7435
  244MOL    H7849164   2.440   0.291   6.988  1.3530 -0.6299 -2.0383
  244MOL    H7949165   2.532   0.069   6.929 -1.1574 -1.9045 -0.2982
  244MOL    H8049166   2.198   7.530   7.059  1.6196 -1.0397 -0.6219
  244MOL    H8149167   2.245   0.004   7.151 -2.0830  0.0676  0.4889
  244MOL    C8249168   2.542   0.067   7.143  0.1440 -0.0249  0.2931
  244MOL    C8349169   2.621   0.198   7.183  0.6122 -0.5446 -0.5615
  244MOL    C8449170   2.721   0.247   7.082  0.0105  0.4207 -0.1225
  244MOL    O8549171   2.776   0.162   7.018 -0.0740  0.0328  0.5788
  244MOL    N8649172   2.743   0.369   7.066  0.0388  0.2481  0.1886
  244MOL    H8749173   2.616   7.644   7.147 -1.0520 -1.1571  0.1975
  244MOL    H8849174   2.475   0.033   7.222  0.7138 -1.8600  0.0037
  244MOL    H8949175   2.553   0.283   7.195  1.6519  0.0772  1.1428
  244MOL    H9049176   2.796   0.399   6.984 -0.6065  0.4814 -0.1465
  244MOL    H9149177   2.709   0.437   7.132 -1.8212  1.1651 -1.6648
  244MOL    C9249178   2.679   0.185   7.328  1.0449 -0.0416  0.0349
  244MOL    C9349179   2.665   0.308   7.414 -0.0055  0.2881 -0.0770
  244MOL    C9449180   2.802   0.364   7.471  0.7915  0.3758 -0.1468
  244MOL    O9549181   2.865   0.304   7.563  0.1575 -0.4828  1.1716
  244MOL    N9649182   2.836   0.479   7.418  0.2269  0.4783 -0.0032
  244MOL    H9749183   2.784   0.160   7.313  1.0964 -0.6853  1.3543
  244MOL    H9849184   2.623   0.100   7.368 -2.2663  2.3772  0.7534
  244MOL    H9949185   2.625   0.395   7.362 -1.1234 -0.0596  0.2027
  244MOL   H10049186   2.783   0.535   7.352  1.5519  1.8232  0.0440
  244MOL   H10149187   2.917   0.528   7.453  0.5424 -0.4695  0.6001
  244MOL   C10249188   2.565   0.292   7.527 -0.2766  0.1131 -0.1304
  244MOL   C10349189   2.421   0.277   7.482  0.4849  0.1513 -0.3407
  244MOL   C10449190   2.368   0.415   7.429 -0.5852  0.1799 -0.0849
  244MOL   O10549191   2.384   0.516   7.494 -0.2675 -0.5268 -0.3841
  244MOL   N10649192   2.297   0.420   7.320  0.4529 -0.2824  0.2560
  244MOL   H10749193   2.567   0.374   7.599 -1.1994 -0.0369  0.0731
  244MOL   H10849194   2.582   0.198   7.581 -2.5771  0.0510  0.5167
  244MOL   H10949195   2.427   0.212   7.394 -0.3966  0.9763 -1.0275
  244MOL   H11049196   2.249   0.507   7.306  1.1428  0.3325  1.7065
  244MOL   H11149197   2.278   0.329   7.278 -0.0687 -0.4405  0.8336
  244MOL   C11249198   2.326   0.219   7.588 -0.2666 -0.1368 -0.4509
  244MOL   C11349199   2.202   0.138   7.545 -0.1618  0.1973 -0.0143
  244MOL   C11449200   2.233   0.037   7.435  0.4917 -0.8174 -0.1295
  244MOL   O11549201   2.220   0.066   7.319  0.3129  0.5464  0.4449
  244MOL   N11649202   2.297   7.584   7.469  0.1807 -0.2969  0.0206
  244MOL   H11749203   2.302   0.282   0.017  1.4707 -0.6221  0.3971
  244MOL   H11849204   2.385   0.144   7.641 -0.6310 -0.2842 -0.2541
  244MOL   H11949205   2.183   0.079   7.635  1.0035 -2.6783 -1.5725
  244MOL   H12049206   2.344   7.529   7.398  1.8102  1.2334 -0.1227
  244MOL   H12149207   2.334   7.579   7.563  1.0759 -0.0494 -0.3143
  244MOL   C12249208   2.083   0.225   7.499 -0.7053  0.1535  0.1733
  244MOL   C12349209   2.035   0.347   7.586  0.1914 -0.7994 -0.6076
  244MOL   C12449210   2.015   0.326   0.080 -0.1480 -0.2075 -0.2930
  244MOL   O12549211   2.021   0.210   0.130  0.1117 -0.2094  0.2049
  244MOL   N12649212   2.006   0.427   0.169 -0.1896 -0.1446 -0.1580
  244MOL   H12749213   1.998   0.159   7.481 -0.0169 -1.2704  1.9564
  244MOL   H12849214   2.103   0.269   7.402 -0.6720  0.1406  0.1739
  244MOL   H12949215   2.117   0.419   7.583 -1.3067  1.0103  0.9416
  244MOL   H13049216   2.008   0.417   0.269  0.1547  0.7029 -0.0706
  244MOL   H13149217   2.019   0.517   0.125 -1.3287 -0.8776 -2.0473
  244MOL   C13249218   1.902   0.403   7.525 -0.5253 -0.0217  0.0887
  244MOL   C13349219   1.911   0.555   7.479  0.3858 -0.1452  0.2468
  244MOL   C13449220   1.778   0.608   7.437 -0.8104  0.8174  0.5881
  244MOL   O13549221   1.724   0.571   7.334 -0.0058  0.1156  0.0431
  244MOL   N13649222   1.719   0.686   7.523  0.7654 -0.3073  0.3705
  244MOL   H13749223   1.822   0.384   7.596 -0.0942 -0.4627  0.4634
  244MOL   H13849224   1.884   0.343   7.436 -1.4047 -0.4541  0.5508
  244MOL   H13949225   1.948   0.613   7.564  1.4383  1.9242 -1.5947
  244MOL   H14049226   1.779   0.715   7.599 -0.0248  1.9963  0.1572
  244MOL   H14149227   1.634   0.739   7.513 -0.1005 -1.5935  0.8379
  244MOL   C14249228   2.012   0.567   7.365  0.3819 -0.2605 -0.0110
  244MOL   C14349229   2.008   0.677   7.257  0.3682  0.0896  0.7635
  244MOL   C14449230   2.123   0.662   7.163 -0.2352  0.7212  0.0087
  244MOL   O14549231   2.239   0.694   7.202  0.0504  0.4003 -0.3456
  244MOL   N14649232   2.102   0.611   7.045  0.2408 -0.8323 -0.2445
  244MOL   H14749233   2.003   0.473   7.310 -0.2958 -1.8275  2.7201
  244MOL   H14849234   2.110   0.572   7.413 -0.3255 -0.3042  1.4374
  244MOL   H14949235   1.910   0.667   7.211  0.6443  0.2184  0.1414
  244MOL   H15049236   2.182   0.594   6.986  1.3643 -1.1036  1.3485
  244MOL   H15149237   2.010   0.568   7.040  0.0786 -0.2542 -3.0018
  244MOL   C15249238   2.014   0.823   7.321 -0.0820  0.1710 -0.0416
  244MOL   C15349239   1.977   0.932   7.214  0.0653 -0.0524  0.0249
  244MOL   C15449240   2.041   1.078   7.244  0.6132  0.3031 -0.2395
  244MOL   O15549241   1.994   1.158   7.325 -0.0448 -0.3204  0.3528
  244MOL   N15649242   2.148   1.111   7.180  0.3183  0.1831  0.3918
  244MOL   H15749243   2.112   0.845   7.365 -0.0691  0.8385 -0.4102
  244MOL   H15849244   1.945   0.837   7.404  1.7201  3.3605  1.0178
  244MOL   H15949245   2.020   0.898   7.121 -0.1851  2.3920 -1.0327
  244MOL   H16049246   2.180   1.054   7.102  1.3669  0.3939  0.6613
  244MOL   H16149247   2.201   1.195   7.197  1.5800 -0.3293 -0.8364
  244MOL   C16249248   1.825   0.941   7.185  0.4471 -0.3956 -0.3341
  244MOL   C16349249   1.772   1.031   7.066 -0.5009  0.1722  0.3092
  244MOL   C16449250   1.658   1.117   7.109 -0.0261  0.1241 -0.5946
  244MOL   O16549251   1.548   1.077   7.139 -0.2263  0.2866  0.1230
  244MOL   N16649252   1.688   1.240   7.115  0.4788 -0.0696 -0.4811
  244MOL   H16749253   1.785   0.963   7.284 -1.3807 -1.6753 -0.7504
  244MOL   H16849254   1.791   0.839   7.168 -1.5955  0.1778  0.1069
  244MOL   H16949255   1.854   1.099   7.041 -0.6073  1.2044  2.5688
  244MOL   H17049256   1.781   1.277   7.100  0.1466  1.2162  0.5191
  244MOL   H17149257   1.622   1.302   7.161  2.3004  0.8738  0.9502
  244MOL   C17249258   1.735   0.949   6.937 -0.6930 -0.6056 -0.7770
  244MOL   C17349259   1.857   0.907   6.848  0.6115  0.2565 -0.2282
  244MOL   C17449260   1.946   1.021   6.796  0.3964 -0.5460 -0.6308
  244MOL   O17549261   1.892   1.103   6.719  0.4751  0.1934  0.4019
  244MOL   N17649262   2.080   1.026   6.822  0.3950 -0.3851  0.6476
  244MOL   H17749263   1.663   1.002   6.875  0.2965 -0.1413 -1.5453
  244MOL   H17849264   1.679   0.863   6.973 -2.1388  0.7648  0.3087
  244MOL   H17949265   1.915   0.850   6.921 -3.1916 -1.4500  1.6049
  244MOL   H18049266   2.130   1.089   6.762  0.5590 -0.0071  1.1761
  244MOL   H18149267   2.121   0.951   6.875 -0.3397 -1.0997  0.2157
  244MOL   C18249268   1.818   0.818   6.723  0.1367 -0.0265  0.0101
  244MOL   C18349269   1.722   0.690   6.743 -0.4008 -0.4836  0.3677
  244MOL   C18449270   1.777   0.597   6.852 -0.2637 -0.0026 -0.0570
  244MOL   O18549271   1.895   0.560   6.851 -0.4910 -0.1244 -1.1809
  244MOL   N18649272   1.702   0.578   6.962 -0.2627  0.7686 -0.0226
  244MOL   H18749273   1.905   0.807   6.659 -0.8738 -0.3379 -1.3348
  244MOL   H18849274   1.747   0.880   6.668  0.9244  0.1728 -0.7877
  244MOL   H18949275   1.635   0.740   6.785 -0.3139  1.2974 -1.4619
  244MOL   H19049276   1.736   0.529   7.043 -0.3674  1.0257  0.1761
  244MOL   H19149277   1.608   0.614   6.956  0.0899  1.4339 -2.1845
  244MOL   C19249278   1.683   0.603   6.623  0.1370 -0.8022 -0.6323
  244MOL   C19349279   1.537   0.559   6.623 -0.2637  0.3050  0.5731
  244MOL   C19449280   1.434   0.668   6.600 -0.4299 -0.1909 -0.4082
  244MOL   O19549281   1.423   0.716   6.489  0.5711 -0.4138 -0.1271
  244MOL   N19649282   1.359   0.717   6.699 -0.4766  0.3751  0.3522
  244MOL   H19749283   1.753   0.520   6.627 -1.9007 -2.6450 -1.9368
  244MOL   H19849284   1.709   0.659   6.533 -1.1504 -0.2291 -0.6637
  244MOL   H19949285   1.524   0.489   6.541  0.0929 -1.2762  1.8349
  244MOL   H20049286   1.372   0.688   6.795  1.0052 -0.5927 -0.1223
  244MOL   H20149287   1.284   0.781   6.676 -0.0094  0.7536 -0.1292
  244MOL   H20249288   1.505   0.504   6.711  1.5383 -0.0568  1.0340
  245MOL     C149289   5.062   4.292   1.006 -0.4418  0.1555 -1.0183
  245MOL     C249290   5.098   4.200   0.885 -0.2864  0.2278  0.3956
  245MOL     C349291   5.084   4.057   0.925  0.5298  0.2028 -0.5817
  245MOL     O449292   5.154   4.025   1.024 -0.4142  0.2720 -0.1741
  245MOL     N549293   5.017   3.975   0.848  0.0527  0.1503 -0.1299
  245MOL     H649294   5.146   4.281   1.075 -2.0202  0.7329  1.0222
  245MOL     H749295   5.064   4.396   0.972 -0.5425  0.2974 -0.5989
  245MOL     H849296   5.042   4.210   0.792 -0.7100 -0.3549  0.5901
  245MOL     H949297   5.014   3.877   0.870 -0.0120  0.0287 -0.6709
  245MOL    H1049298   4.973   4.007   0.763 -2.8033 -0.7500  0.9815
  245MOL    H1149299   4.973   4.261   1.059 -0.2882 -0.1817 -0.9594
  245MOL    C1249300   5.244   4.219   0.843 -0.4378 -0.1792 -0.5205
  245MOL    C1349301   5.273   4.321   0.728 -0.3300  0.7336 -0.0063
  245MOL    C1449302   5.241   4.264   0.590  0.2087 -0.2708 -0.5961
  245MOL    O1549303   5.293   4.159   0.559  0.5414 -0.0244  0.5106
  245MOL    N1649304   5.158   4.326   0.508  0.6955 -0.1270 -1.0445
  245MOL    H1749305   5.297   4.127   0.818 -1.3852 -1.4254  1.9660
  245MOL    H1849306   5.294   4.259   0.931 -0.1130  0.6786 -1.0842
  245MOL    H1949307   5.212   4.410   0.745 -0.5181  0.2568  1.8939
  245MOL    H2049308   5.137   4.422   0.530  1.3960  0.3155 -2.3252
  245MOL    H2149309   5.143   4.283   0.418 -1.2455  0.4180 -1.0124
  245MOL    C2249310   5.425   4.361   0.719 -0.3420  0.1292  0.3918
  245MOL    C2349311   5.443   4.512   0.695 -0.0826 -0.1409  0.0942
  245MOL    C2449312   5.403   4.541   0.546 -0.2801 -0.0685  0.4267
  245MOL    O2549313   5.470   4.502   0.456 -0.0458 -0.4893  0.1346
  245MOL    N2649314   5.292   4.604   0.520 -0.9221 -0.0624  0.4486
  245MOL    H2749315   5.482   4.302   0.647 -0.9918 -0.1817  0.1196
  245MOL    H2849316   5.475   4.329   0.810  0.5046 -1.3925 -0.5912
  245MOL    H2949317   5.367   4.553   0.761  1.0250  3.0027 -0.5220
  245MOL    H3049318   5.243   4.631   0.604  1.3961 -0.2103  1.8836
  245MOL    H3149319   5.248   4.623   0.431 -1.5953  0.7074  0.9321
  245MOL    C3249320   5.588   4.563   0.730  0.9170  0.4547 -0.7505
  245MOL    C3349321   5.609   4.718   0.723 -0.1979  0.6569 -0.1118
  245MOL    C3449322   5.756   4.764   0.724  0.5780  0.8503 -0.1604
  245MOL    O3549323   5.839   4.717   0.809  0.4659 -0.9678  0.6526
  245MOL    N3649324   5.793   4.859   0.644 -0.2419 -0.7732  0.7429
  245MOL    H3749325   5.653   4.507   0.663  0.0530 -1.1881 -0.2616
  245MOL    H3849326   5.622   4.522   0.825 -1.1671 -0.0343 -0.1955
  245MOL    H3949327   5.566   4.750   0.628  0.2502 -0.3533 -0.6664
  245MOL    H4049328   5.892   4.879   0.647 -0.1030 -1.3303 -0.0005
  245MOL    H4149329   5.735   4.908   0.578  0.6798 -1.1122 -0.3220
  245MOL    C4249330   5.533   4.770   0.854 -0.3580  0.2666 -0.5785
  245MOL    C4349331   5.503   4.917   0.865 -1.1281 -1.7122 -0.1427
  245MOL    C4449332   5.454   4.943   1.009 -0.0112 -0.1564  0.8601
  245MOL    O4549333   5.340   4.921   1.041  0.0076  0.0120 -0.4590
  245MOL    N4649334   5.540   4.981   1.098  0.2800 -0.2522  0.0383
  245MOL    H4749335   5.606   4.752   0.933  0.2976 -2.2183 -1.6936
  245MOL    H4849336   5.441   4.715   0.878 -0.3068  0.2052 -0.5222
  245MOL    H4949337   5.593   4.979   0.860 -1.5952 -1.0953 -1.0029
  245MOL    H5049338   5.636   5.007   1.079 -0.0804  2.2745  1.4512
  245MOL    H5149339   5.509   5.020   1.186  0.5422  2.8017 -1.1476
  245MOL    C5249340   5.406   4.970   0.762 -0.1746  0.7761  0.4437
  245MOL    C5349341   5.397   5.125   0.746 -0.0801  0.0468 -0.4169
  245MOL    C5449342   5.255   5.174   0.712  0.3320 -0.7874  0.0406
  245MOL    O5549343   5.169   5.168   0.803  0.1279 -0.3245  0.1573
  245MOL    N5649344   5.223   5.217   0.586  0.2723  1.1457 -0.1309
  245MOL    H5749345   5.310   4.917   0.762 -0.4313  1.2360  0.3538
  245MOL    H5849346   5.449   4.943   0.665  0.0808  0.2939  0.6902
  245MOL    H5949347   5.427   5.165   0.843  1.2353 -3.2323  0.6091
  245MOL    H6049348   5.292   5.233   0.515  0.7470 -0.2558  0.0023
  245MOL    H6149349   5.126   5.234   0.563  0.3770  0.0041 -1.4730
  245MOL    C6249350   5.505   5.167   0.647  0.4686 -0.1370 -0.9371
  245MOL    C6349351   5.547   5.312   0.670 -0.7509 -1.0362  0.7284
  245MOL    C6449352   5.619   5.358   0.538 -0.0554  0.2790 -0.1329
  245MOL    O6549353   5.709   5.290   0.481 -0.2383 -1.0905  0.1651
  245MOL    N6649354   5.571   5.475   0.494  0.9121  0.2029  0.5771
  245MOL    H6749355   5.470   5.145   0.546  0.8047 -0.7455 -0.9260
  245MOL    H6849356   5.591   5.101   0.663  1.1835  0.9138 -0.3612
  245MOL    H6949357   5.454   5.366   0.687 -0.1378 -0.0168  0.8843
  245MOL    H7049358   5.505   5.522   0.554  1.1893  0.8167  0.4008
  245MOL    H7149359   5.604   5.523   0.411 -0.5282  0.6605  0.2540
  245MOL    C7249360   5.641   5.329   0.790 -0.0780  0.1400  0.7299
  245MOL    C7349361   5.635   5.466   0.867  0.1628 -0.3279 -0.1931
  245MOL    C7449362   5.503   5.486   0.938 -0.3425 -0.3195  0.3329
  245MOL    O7549363   5.426   5.389   0.961  0.2149 -0.1160  0.3427
  245MOL    N7649364   5.461   5.604   0.971 -0.2185  0.3307  0.3160
  245MOL    H7749365   5.745   5.310   0.763 -0.3035  0.3099 -0.2877
  245MOL    H7849366   5.617   5.255   0.866 -2.9857 -0.4580 -0.6988
  245MOL    H7949367   5.699   5.457   0.954 -0.1594 -1.4728 -0.0666
  245MOL    H8049368   5.360   5.614   0.975 -0.2360  0.1357  0.3780
  245MOL    H8149369   5.522   5.683   0.983 -1.4861  0.9411  3.4080
  245MOL    C8249370   5.690   5.580   0.784  0.1069  0.1696 -0.3917
  245MOL    C8349371   5.767   5.697   0.849 -0.9004 -0.1095 -0.6263
  245MOL    C8449372   5.791   5.700   1.004 -0.1366  0.7169 -0.1552
  245MOL    O8549373   5.708   5.709   1.091  0.2942  0.1875 -0.3087
  245MOL    N8649374   5.913   5.711   1.050 -0.1427  0.3238 -0.4632
  245MOL    H8749375   5.614   5.615   0.715  0.7561 -0.3024 -1.3635
  245MOL    H8849376   5.755   5.538   0.707 -0.5104  1.1439 -1.4614
  245MOL    H8949377   5.865   5.688   0.803 -0.9245 -2.6025 -0.2803
  245MOL    H9049378   5.930   5.730   1.148  1.4151 -1.0449 -0.4397
  245MOL    H9149379   5.989   5.707   0.984  1.7473  2.5919  1.4641
  245MOL    C9249380   5.706   5.829   0.793  0.4688  0.1528  0.3112
  245MOL    C9349381   5.757   5.957   0.855 -0.3017  0.3315  0.6227
  245MOL    C9449382   5.672   6.068   0.788  0.6598 -0.7927 -0.1371
  245MOL    O9549383   5.691   6.097   0.669  0.4529  0.4699  0.0422
  245MOL    N9649384   5.585   6.146   0.853  0.0850  0.3050 -0.4909
  245MOL    H9749385   5.597   5.834   0.804  0.6315  0.8103  1.7306
  245MOL    H9849386   5.720   5.824   0.685  0.2255 -0.7051  0.3143
  245MOL    H9949387   5.730   5.963   0.961 -3.0204  1.3693 -0.1020
  245MOL   H10049388   5.540   6.219   0.799 -0.9179 -1.6338 -2.3613
  245MOL   H10149389   5.553   6.126   0.947 -1.9058 -1.1630 -1.4365
  245MOL   C10249390   5.911   5.969   0.825 -1.3254 -0.3276 -0.5150
  245MOL   C10349391   5.991   6.082   0.903 -0.0267 -0.0925 -0.6393
  245MOL   C10449392   5.964   6.216   0.836  0.0050  0.2822 -0.3066
  245MOL   O10549393   6.003   6.248   0.726 -0.1743  0.6648 -0.2771
  245MOL   N10649394   5.886   6.302   0.896  0.4921 -0.7836  0.6136
  245MOL   H10749395   5.928   5.986   0.719 -2.9756 -2.8626 -1.2245
  245MOL   H10849396   5.964   5.875   0.841  1.1823  1.0943 -0.1066
  245MOL   H10949397   5.967   6.084   1.009 -3.2517  2.4563 -1.3133
  245MOL   H11049398   5.843   6.378   0.844  1.3280 -0.8382 -0.1824
  245MOL   H11149399   5.864   6.280   0.992 -4.6638 -0.8375 -0.4190
  245MOL   C11249400   6.146   6.063   0.901 -0.6287  0.5403 -0.2572
  245MOL   C11349401   6.210   6.034   0.765 -0.5036 -0.2008 -0.1125
  245MOL   C11449402   6.251   5.885   0.750  0.4785 -0.9029  0.5712
  245MOL   O11549403   6.218   5.797   0.828 -0.2504 -0.0362  0.5206
  245MOL   N11649404   6.314   5.854   0.635  0.2864  0.2462 -0.6644
  245MOL   H11749405   6.166   5.976   0.964  0.0671  0.2272 -0.9025
  245MOL   H11849406   6.205   6.145   0.942  0.5465 -0.5777  0.3119
  245MOL   H11949407   6.133   6.032   0.688  0.9068 -0.7476 -1.5308
  245MOL   H12049408   6.336   5.919   0.561 -0.0763  0.6412 -0.4276
  245MOL   H12149409   6.339   5.759   0.609  1.7845  0.6157 -0.6342
  245MOL   C12249410   6.320   6.133   0.716 -0.6116  0.1631  0.0396
  245MOL   C12349411   6.468   6.123   0.752 -0.2317  0.1776  0.1200
  245MOL   C12449412   6.502   6.145   0.901  0.0976 -0.0618  0.1907
  245MOL   O12549413   6.418   6.134   0.992  0.3502 -0.3013 -0.2250
  245MOL   N12649414   6.620   6.193   0.935 -0.2557  0.5397 -0.4951
  245MOL   H12749415   6.283   6.234   0.731 -3.8705 -0.6901 -1.7044
  245MOL   H12849416   6.318   6.132   0.607 -1.3797  0.0838  0.0554
  245MOL   H12949417   6.501   6.020   0.737 -0.4230  0.2526 -0.9122
  245MOL   H13049418   6.686   6.220   0.863  0.6468 -0.0664  0.0907
  245MOL   H13149419   6.644   6.215   1.030 -2.7769 -0.4084  0.3755
  245MOL   C13249420   6.562   6.197   0.657  0.9916 -0.1976  0.7595
  245MOL   C13349421   6.579   6.352   0.663 -0.5246  0.7673  0.9657
  245MOL   C13449422   6.451   6.434   0.644  0.1795 -0.6427 -0.4371
  245MOL   O13549423   6.401   6.487   0.741  0.0960 -0.0424  0.3593
  245MOL   N13649424   6.399   6.447   0.520 -0.1704  0.3183 -0.7512
  245MOL   H13749425   6.518   6.183   0.558 -0.5915  0.3284  1.3719
  245MOL   H13849426   6.655   6.141   0.657  0.9617 -0.2473  0.8587
  245MOL   H13949427   6.614   6.383   0.761  2.0734  1.5335 -0.1657
  245MOL   H14049428   6.322   6.512   0.509  0.4473  1.1208 -0.3720
  245MOL   H14149429   6.451   6.411   0.442  1.0635 -0.6597  0.5082
  245MOL   C14249430   6.695   6.401   0.571 -0.3384  0.6137  0.5541
  245MOL   C14349431   6.814   6.469   0.645 -0.5198  0.2792  0.3606
  245MOL   C14449432   6.891   6.356   0.712 -0.4073  0.2271 -0.4867
  245MOL   O14549433   6.840   6.266   0.781 -0.0839  0.7254  0.3062
  245MOL   N14649434   7.022   6.364   0.696  0.4034 -0.0702  0.9218
  245MOL   H14749435   6.661   6.465   0.489 -0.8967  0.5936  0.7718
  245MOL   H14849436   6.734   6.324   0.504  0.2726  2.7049 -1.6005
  245MOL   H14949437   6.885   6.506   0.572 -0.3574 -1.2775 -0.2913
  245MOL   H15049438   7.086   6.293   0.728  1.5478  0.0475 -1.0584
  245MOL   H15149439   7.052   6.451   0.656 -1.1674 -0.4702 -1.2351
  245MOL   C15249440   6.779   6.583   0.742 -0.9467  0.7590 -0.4935
  245MOL   C15349441   6.712   6.708   0.676  0.2607  0.1730  0.0194
  245MOL   C15449442   6.791   6.776   0.563  0.0613 -0.1521 -0.0504
  245MOL   O15549443   6.886   6.849   0.593  0.4092  0.3061  0.5862
  245MOL   N15649444   6.749   6.767   0.436  0.3910  0.2306 -0.1292
  245MOL   H15749445   6.875   6.616   0.781 -1.3401 -0.2725  1.3807
  245MOL   H15849446   6.736   6.550   0.837 -1.6533  1.9163 -0.3904
  245MOL   H15949447   6.618   6.681   0.626  0.6628 -1.3463  0.0420
  245MOL   H16049448   6.797   6.821   0.366 -0.0239 -1.5543 -1.8472
  245MOL   H16149449   6.660   6.726   0.413  1.1152 -1.6597  0.3122
  245MOL   C16249450   6.679   6.815   0.785 -0.6189 -0.5197  0.1877
  245MOL   C16349451   6.559   6.781   0.886  0.3851  0.0921  0.5031
  245MOL   C16449452   6.425   6.834   0.843 -0.2177 -0.3293  0.1036
  245MOL   O16549453   6.383   6.949   0.870  0.0104  0.2657  0.9682
  245MOL   N16649454   6.346   6.757   0.767  0.0064  0.2207 -0.4306
  245MOL   H16749455   6.651   6.909   0.737  1.0350 -0.3552 -0.4826
  245MOL   H16849456   6.772   6.838   0.836 -0.4034  0.9349 -0.8275
  245MOL   H16949457   6.546   6.673   0.884 -3.9979  0.5255  0.8583
  245MOL   H17049458   6.384   6.667   0.740 -1.1805 -1.0253  1.9000
  245MOL   H17149459   6.263   6.794   0.722 -1.9268 -1.2151  1.8299
  245MOL   C17249460   6.606   6.817   1.030 -0.0528  0.2652 -0.8155
  245MOL   C17349461   6.511   6.767   1.146 -0.6344 -0.2256 -0.3700
  245MOL   C17449462   6.533   6.829   1.288 -0.3172 -0.3768 -0.7817
  245MOL   O17549463   6.630   6.810   1.355 -0.4311  0.3833  0.9945
  245MOL   N17649464   6.437   6.902   1.336  0.5982  0.2510 -0.3432
  245MOL   H17749465   6.620   6.924   1.036 -0.5484  0.2504  1.0705
  245MOL   H17849466   6.706   6.776   1.044 -1.1402 -1.8240  1.3239
  245MOL   H17949467   6.411   6.797   1.113 -1.7543 -2.2869  0.9855
  245MOL   H18049468   6.434   6.939   1.430 -1.4585  1.6537 -0.9106
  245MOL   H18149469   6.351   6.897   1.283  0.0662 -0.2835  0.5726
  245MOL   C18249470   6.506   6.614   1.149  0.4302  0.1069 -0.1015
  245MOL   C18349471   6.380   6.563   1.229 -0.0464 -0.4224 -0.5968
  245MOL   C18449472   6.390   6.556   1.382 -0.8404 -0.0609 -0.3809
  245MOL   O18549473   6.487   6.509   1.438  0.0821  0.0650 -0.1079
  245MOL   N18649474   6.288   6.605   1.452 -0.2142  0.4863 -0.2359
  245MOL   H18749475   6.589   6.568   1.202 -0.3521 -1.5421 -0.2701
  245MOL   H18849476   6.510   6.569   1.050 -1.6799  1.9119 -1.0470
  245MOL   H18949477   6.305   6.638   1.206  0.1072  0.1758  0.8235
  245MOL   H19049478   6.211   6.636   1.395  0.4343  0.5356 -1.1053
  245MOL   H19149479   6.299   6.632   1.548 -2.8191 -0.8791  0.4797
  245MOL   C19249480   6.356   6.422   1.164  0.4716 -0.2766 -0.0895
  245MOL   C19349481   6.220   6.430   1.087  0.2305  0.0836  0.2626
  245MOL   C19449482   6.097   6.410   1.178  0.5016  0.4043 -0.2848
  245MOL   O19549483   6.119   6.377   1.295 -0.1311  0.1283  0.5148
  245MOL   N19649484   5.979   6.438   1.137 -0.0871 -0.6232 -0.8996
  245MOL   H19749485   6.357   6.343   1.240  0.9281  0.6913  0.9240
  245MOL   H19849486   6.431   6.397   1.089 -0.4611  1.3260 -1.5788
  245MOL   H19949487   6.204   6.514   1.020  1.6413  0.4755  0.4059
  245MOL   H20049488   5.973   6.422   1.037  1.6740 -1.3620 -0.8972
  245MOL   H20149489   5.897   6.421   1.193  0.0626  0.4958 -0.3292
  245MOL   H20249490   6.216   6.339   1.027 -0.0880  0.0612  0.3163
  246MOL     C149491   1.991   2.601   0.761 -0.4211 -0.1524 -0.0866
  246MOL     C249492   1.919   2.486   0.824  0.0578  0.2685  0.7208
  246MOL     C349493   1.981   2.359   0.756 -0.2656  0.1379  0.2354
  246MOL     O449494   1.913   2.295   0.672 -0.1700  0.1296  0.3355
  246MOL     N549495   2.104   2.326   0.797 -0.0110 -0.0047  0.1747
  246MOL     H649496   1.991   2.688   0.827  0.6900  0.5521 -0.9875
  246MOL     H749497   2.095   2.576   0.744 -0.7936 -2.1831  0.4401
  246MOL     H849498   1.956   2.480   0.926  3.2053 -0.3819 -0.4159
  246MOL     H949499   2.141   2.245   0.750 -0.7380 -0.2591  0.0375
  246MOL    H1049500   2.144   2.373   0.877  0.2879  2.1701 -1.1850
  246MOL    H1149501   1.946   2.625   0.664 -0.8689  0.7973  0.3495
  246MOL    C1249502   1.768   2.498   0.828 -0.2355  0.5143  0.0790
  246MOL    C1349503   1.702   2.616   0.905 -0.2673 -0.3394  0.4549
  246MOL    C1449504   1.780   2.664   1.026  0.8238  0.4813  0.0809
  246MOL    O1549505   1.782   2.597   1.124 -0.3080  0.3236  0.5586
  246MOL    N1649506   1.848   2.776   1.021 -0.3283 -0.1069  0.4773
  246MOL    H1749507   1.731   2.403   0.867  1.3710 -1.2422 -2.5783
  246MOL    H1849508   1.732   2.499   0.725  0.6753 -0.3698 -0.2421
  246MOL    H1949509   1.711   2.695   0.830  1.2698  2.5350  3.5196
  246MOL    H2049510   1.899   2.807   1.104  1.2020  1.2446 -0.9245
  246MOL    H2149511   1.883   2.815   0.935  0.6587 -0.4325  0.7252
  246MOL    C2249512   1.554   2.593   0.938  0.0377 -0.4361 -0.5546
  246MOL    C2349513   1.471   2.525   0.819  0.4819  0.1558  0.4086
  246MOL    C2449514   1.436   2.641   0.722 -0.3896  0.0228 -0.7350
  246MOL    O2549515   1.489   2.653   0.613  0.0676  0.5419 -0.2989
  246MOL    N2649516   1.358   2.734   0.768 -0.1095  0.7110 -0.1265
  246MOL    H2749517   1.505   2.683   0.976  0.7857 -0.4817  0.5461
  246MOL    H2849518   1.550   2.521   1.020 -0.5175  0.0053 -0.1907
  246MOL    H2949519   1.525   2.457   0.754 -0.7141 -0.3367 -0.0811
  246MOL    H3049520   1.349   2.818   0.713 -1.7293  0.1947 -0.6885
  246MOL    H3149521   1.318   2.728   0.861  0.6644  1.4057  0.2541
  246MOL    C3249522   1.340   2.463   0.865 -0.0835  0.5445 -0.3443
  246MOL    C3349523   1.316   2.314   0.818  0.2834  0.5906  0.1176
  246MOL    C3449524   1.175   2.293   0.764  0.3457  0.4288 -0.1677
  246MOL    O3549525   1.084   2.363   0.804  0.2045 -0.1596 -0.2233
  246MOL    N3649526   1.158   2.200   0.674 -0.7621  0.2637 -0.0646
  246MOL    H3749527   1.259   2.519   0.817 -1.9925 -1.4297  0.4754
  246MOL    H3849528   1.327   2.478   0.972 -2.3154  0.9308 -0.6429
  246MOL    H3949529   1.371   2.310   0.724 -1.8005  0.8152 -1.1615
  246MOL    H4049530   1.065   2.195   0.634 -1.4043  2.1760  1.1149
  246MOL    H4149531   1.230   2.153   0.621 -2.7284 -2.9984 -0.0093
  246MOL    C4249532   1.345   2.203   0.926  0.8774  0.0035  0.0379
  246MOL    C4349533   1.493   2.189   0.980 -0.1368  0.3469  0.2292
  246MOL    C4449534   1.569   2.101   0.875 -0.2120  0.2041  0.2169
  246MOL    O4549535   1.532   2.110   0.755 -0.5648 -0.1332  0.9345
  246MOL    N4649536   1.654   2.002   0.904 -0.8288  0.0673  0.4516
  246MOL    H4749537   1.309   2.106   0.893 -1.9483  1.0998 -0.2015
  246MOL    H4849538   1.284   2.220   1.015  0.4408  1.6603 -0.5637
  246MOL    H4949539   1.543   2.284   0.959  1.8842 -1.0311 -1.4501
  246MOL    H5049540   1.688   1.948   0.826  1.5314  1.5703  0.3949
  246MOL    H5149541   1.673   1.995   1.003 -0.9928 -0.1840  0.4663
  246MOL    C5249542   1.513   2.145   1.127 -0.8688  0.3073 -0.0475
  246MOL    C5349543   1.599   2.249   1.200 -0.3426 -0.2497 -0.6567
  246MOL    C5449544   1.749   2.238   1.170  0.9605  0.1876  0.5842
  246MOL    O5549545   1.796   2.127   1.182  0.1719 -0.1385 -0.2055
  246MOL    N5649546   1.814   2.338   1.119 -0.0155  0.5445  0.3642
  246MOL    H5749547   1.555   2.045   1.139 -0.5187  0.3782 -0.6382
  246MOL    H5849548   1.429   2.136   1.196  0.3240 -0.4577  1.3471
  246MOL    H5949549   1.567   2.349   1.170 -1.5549  0.2648  2.1132
  246MOL    H6049550   1.771   2.430   1.125 -1.0599 -0.0042  1.4947
  246MOL    H6149551   1.910   2.327   1.090  0.2363  0.1893  1.3001
  246MOL    C6249552   1.586   2.250   1.353 -0.5346  0.2541 -0.7533
  246MOL    C6349553   1.666   2.358   1.432 -0.2777  0.6226  0.7854
  246MOL    C6449554   1.649   2.309   1.575 -0.4776 -0.1768 -0.0204
  246MOL    O6549555   1.541   2.268   1.618  0.2160  0.5198  0.0992
  246MOL    N6649556   1.750   2.309   1.653  0.2240  0.3589  0.0827
  246MOL    H6749557   1.608   2.148   1.384 -0.4536 -0.7148 -3.8660
  246MOL    H6849558   1.482   2.274   1.373 -0.5574  0.9737 -1.7354
  246MOL    H6949559   1.774   2.356   1.422 -0.0035  3.1571  2.6793
  246MOL    H7049560   1.843   2.339   1.632 -0.0404  1.8408  0.9602
  246MOL    H7149561   1.740   2.294   1.753  0.7067  1.5625  0.3128
  246MOL    C7249562   1.614   2.498   1.419  0.1859  0.0290  0.3444
  246MOL    C7349563   1.684   2.611   1.506  0.0549  0.0102  0.7269
  246MOL    C7449564   1.628   2.745   1.457  0.5223  0.3156  0.0589
  246MOL    O7549565   1.621   2.787   1.341  0.5776  0.0791  0.0970
  246MOL    N7649566   1.584   2.827   1.549  0.1407 -0.0570  0.4906
  246MOL    H7749567   1.508   2.509   1.438  0.0300 -2.1178  0.8221
  246MOL    H7849568   1.621   2.520   1.312  2.6769 -1.0365  0.2347
  246MOL    H7949569   1.662   2.586   1.610 -2.0420  0.6817  0.4653
  246MOL    H8049570   1.579   2.798   1.646  1.9792  1.7644  1.1807
  246MOL    H8149571   1.564   2.924   1.529  1.6377  0.7660  2.7434
  246MOL    C8249572   1.843   2.618   1.496  0.2534  0.0327  0.3787
  246MOL    C8349573   1.921   2.688   1.610  0.6035 -0.1975 -0.1717
  246MOL    C8449574   2.069   2.684   1.571 -0.0541 -0.4972 -0.0016
  246MOL    O8549575   2.119   2.576   1.528  0.4826 -0.3970  0.4696
  246MOL    N8649576   2.146   2.793   1.587  0.5244 -0.1391 -0.4092
  246MOL    H8749577   1.875   2.671   1.407  1.5759  1.2300  1.5476
  246MOL    H8849578   1.886   2.519   1.481  0.2300 -0.0975  1.1596
  246MOL    H8949579   1.880   2.788   1.620  1.4479 -0.0871  2.6568
  246MOL    H9049580   2.244   2.779   1.603  0.6521  0.0873 -0.9905
  246MOL    H9149581   2.106   2.873   1.635  1.3071 -0.9780  1.7053
  246MOL    C9249582   1.906   2.627   1.756 -0.3277 -0.4726 -0.2830
  246MOL    C9349583   1.980   2.700   1.880  0.4438 -0.5993  0.0250
  246MOL    C9449584   2.001   2.601   1.998  0.0669 -0.9389 -0.0574
  246MOL    O9549585   2.010   2.634   2.118 -0.1307 -0.3742  0.0719
  246MOL    N9649586   2.006   2.469   1.971 -0.6891 -0.5412 -0.0890
  246MOL    H9749587   1.957   2.531   1.747  2.3267  0.7075  1.6205
  246MOL    H9849588   1.802   2.618   1.785  0.2536  2.9352  3.2210
  246MOL    H9949589   2.083   2.718   1.851 -0.7420  1.3545 -3.3641
  246MOL   H10049590   2.015   2.441   1.874  1.2080 -0.6693  0.0966
  246MOL   H10149591   2.032   2.408   2.047  0.2198  0.7012  0.6256
  246MOL   C10249592   1.894   2.824   1.934  0.4385  0.5661  0.8061
  246MOL   C10349593   1.966   2.958   1.962  0.1894 -0.6486  0.0467
  246MOL   C10449594   1.975   3.028   1.825 -0.7938  0.3665  1.4696
  246MOL   O10549595   2.069   3.014   1.748  0.1535  0.6501 -0.1810
  246MOL   N10649596   1.866   3.087   1.784 -0.2479 -0.0280  0.2507
  246MOL   H10749597   1.847   2.787   2.025 -0.1443  0.1750  0.3476
  246MOL   H10849598   1.809   2.836   1.867  0.8068 -3.5824 -0.5782
  246MOL   H10949599   1.896   3.018   2.020  0.2697  1.2288 -1.7361
  246MOL   H11049600   1.859   3.114   1.687 -0.5484  0.3019  0.3621
  246MOL   H11149601   1.785   3.089   1.844 -0.7710  3.2163 -0.4603
  246MOL   C11249602   2.098   2.949   2.038 -0.0790  1.0227  0.0609
  246MOL   C11349603   2.147   3.075   2.119 -0.4105  0.0135 -0.6784
  246MOL   C11449604   2.244   3.158   2.030  0.2591 -0.1460  0.2979
  246MOL   O11549605   2.365   3.130   2.027 -0.2965 -0.2832 -0.0601
  246MOL   N11649606   2.191   3.262   1.959  0.1385 -0.0312 -0.5658
  246MOL   H11749607   2.179   2.926   1.970 -0.0597  2.1644 -0.3082
  246MOL   H11849608   2.092   2.868   2.111 -2.0446  2.1370  1.2012
  246MOL   H11949609   2.064   3.139   2.152  0.8963  1.2754  0.1962
  246MOL   H12049610   2.097   3.291   1.940 -0.1631 -0.7412 -0.1843
  246MOL   H12149611   2.254   3.325   1.911  0.1823  1.9398  1.9469
  246MOL   C12249612   2.213   3.038   2.247 -1.0045  0.4422 -0.3825
  246MOL   C12349613   2.140   3.064   2.378 -1.0336  0.3862 -0.5520
  246MOL   C12449614   2.189   3.195   2.441  0.0477 -0.6641 -0.0726
  246MOL   O12549615   2.307   3.208   2.477  0.2252  0.0570 -0.2527
  246MOL   N12649616   2.093   3.292   2.452  0.2834  0.1019 -0.0870
  246MOL   H12749617   2.315   3.075   2.253  0.5166 -3.7012  1.5432
  246MOL   H12849618   2.225   2.929   2.241 -2.4010  0.3797 -2.4382
  246MOL   H12949619   2.034   3.070   2.352 -1.1425 -0.6684 -0.3695
  246MOL   H13049620   2.007   3.298   2.401  1.1122 -0.9640 -1.6557
  246MOL   H13149621   2.125   3.379   2.494  1.0486 -0.7355  1.1178
  246MOL   C13249622   2.168   2.944   2.472  0.1397  0.3022  0.2207
  246MOL   C13349623   2.098   2.815   2.449 -0.6522 -0.2758  0.1944
  246MOL   C13449624   1.948   2.835   2.438 -0.2082  0.1307 -0.8948
  246MOL   O13549625   1.883   2.854   2.537  0.1443  0.0543 -0.4089
  246MOL   N13649626   1.899   2.830   2.317  0.2354 -0.0842  0.4598
  246MOL   H13749627   2.135   2.975   2.571  1.0490  1.6668  0.1061
  246MOL   H13849628   2.276   2.942   2.484  0.4220  1.9408 -1.7607
  246MOL   H13949629   2.127   2.787   2.348  2.4705  1.6338  0.4970
  246MOL   H14049630   1.956   2.805   2.237 -1.9447 -1.1390 -0.8450
  246MOL   H14149631   1.799   2.845   2.307  0.4107  0.6085 -0.3212
  246MOL   C14249632   2.139   2.710   2.549 -0.1900  0.4711 -0.9835
  246MOL   C14349633   2.120   2.558   2.513 -0.6682 -0.0195  0.3750
  246MOL   C14449634   2.054   2.486   2.628 -0.0746  0.0748 -0.2087
  246MOL   O14549635   2.109   2.469   2.738 -0.1435  0.2454  0.0451
  246MOL   N14649636   1.924   2.451   2.603  0.2163  0.5145 -0.1669
  246MOL   H14749637   2.098   2.733   2.647  3.0336 -4.1573  1.6114
  246MOL   H14849638   2.239   2.716   2.593 -1.3475  0.4847  1.7496
  246MOL   H14949639   2.059   2.543   2.424  2.5853  1.5036 -2.2629
  246MOL   H15049640   1.895   2.453   2.506 -2.0762  1.5220  0.5030
  246MOL   H15149641   1.867   2.413   2.677 -0.5565  0.8636 -0.5777
  246MOL   C15249642   2.250   2.487   2.470  0.6411 -0.2177  0.1085
  246MOL   C15349643   2.252   2.334   2.436  0.2538  0.5498 -0.0761
  246MOL   C15449644   2.396   2.284   2.409  0.2389 -0.6706 -0.2738
  246MOL   O15549645   2.441   2.330   2.307  0.6682  0.5640  0.0128
  246MOL   N15649646   2.456   2.187   2.478  0.0688  0.0078  0.8951
  246MOL   H15749647   2.310   2.506   2.559  0.9463 -2.4458  0.4034
  246MOL   H15849648   2.309   2.545   2.399  0.5554  1.3938  1.3320
  246MOL   H15949649   2.215   2.271   2.517 -0.4073  0.1165 -0.7064
  246MOL   H16049650   2.547   2.157   2.447 -1.3153 -1.7803 -1.5563
  246MOL   H16149651   2.386   2.126   2.519 -0.8480  0.1933 -0.3536
  246MOL   C16249652   2.153   2.294   2.318  0.2675  0.1190  0.3567
  246MOL   C16349653   2.139   2.143   2.309 -0.1296 -0.1855 -0.1410
  246MOL   C16449654   2.126   2.112   2.161 -0.3691 -0.3902 -0.6541
  246MOL   O16549655   2.062   2.186   2.089 -0.3959 -0.0053  0.5326
  246MOL   N16649656   2.175   1.995   2.113  0.1018 -0.1431 -0.4940
  246MOL   H16749657   2.194   2.352   2.236  0.9746 -3.2157 -1.7373
  246MOL   H16849658   2.057   2.339   2.339  0.2940 -0.2202  1.2351
  246MOL   H16949659   2.233   2.092   2.329 -0.6913 -0.5740  1.5621
  246MOL   H17049660   2.180   1.964   2.017  2.4764  0.7797 -0.7138
  246MOL   H17149661   2.231   1.941   2.178 -0.5518  2.3467  2.2334
  246MOL   C17249662   2.028   2.070   2.379  0.8508  0.3363 -0.3490
  246MOL   C17349663   2.040   2.047   2.535 -0.8046 -0.3974  0.4926
  246MOL   C17449664   2.163   1.974   2.574  0.0745  0.0232 -0.3687
  246MOL   O17549665   2.265   2.037   2.586 -0.1143  0.3876 -0.4445
  246MOL   N17649666   2.159   1.848   2.613 -0.4216  0.0261  0.8050
  246MOL   H17749667   2.015   1.968   2.342 -0.6966  0.1904  0.5368
  246MOL   H17849668   1.938   2.129   2.362 -0.3562 -0.6063  2.3790
  246MOL   H17949669   2.047   2.146   2.581 -1.9481  0.2323 -0.6677
  246MOL   H18049670   2.069   1.804   2.608 -0.7216  0.5806  1.2553
  246MOL   H18149671   2.247   1.803   2.634 -0.4050  0.3418  1.4074
  246MOL   C18249672   1.914   1.972   2.581  0.2903  0.7292  0.2575
  246MOL   C18349673   1.877   1.982   2.730 -0.1715  0.0827 -0.5435
  246MOL   C18449674   1.783   1.861   2.769  0.2251 -0.2431 -0.0738
  246MOL   O18549675   1.803   1.748   2.726  0.0966  0.2876 -0.5701
  246MOL   N18649676   1.672   1.885   2.835  0.0828  0.0672 -0.6156
  246MOL   H18749677   1.924   1.872   2.539 -1.3510  0.9044 -0.6126
  246MOL   H18849678   1.832   2.019   2.528  1.1437  0.3258 -1.4691
  246MOL   H18949679   1.971   1.975   2.785 -1.2854 -0.1011  1.3686
  246MOL   H19049680   1.614   1.806   2.858  1.6607 -0.6004  1.1644
  246MOL   H19149681   1.643   1.977   2.865 -0.9527 -0.4492 -0.0155
  246MOL   C19249682   1.814   2.119   2.754 -0.1721  0.0023 -0.1677
  246MOL   C19349683   1.833   2.166   2.899  0.6380  0.0232 -0.2011
  246MOL   C19449684   1.766   2.296   2.921 -0.3814 -0.3015 -0.0319
  246MOL   O19549685   1.772   2.377   2.833 -0.0302 -0.6078 -0.2607
  246MOL   N19649686   1.688   2.312   3.026 -0.3420 -0.2846  0.1040
  246MOL   H19749687   1.709   2.122   2.725 -0.3633  2.4344  0.6447
  246MOL   H19849688   1.870   2.185   2.688  0.2960 -0.7405 -0.5255
  246MOL   H19949689   1.777   2.095   2.961 -0.6473  0.9590 -0.2661
  246MOL   H20049690   1.680   2.247   3.103 -0.4435 -1.7032 -1.0857
  246MOL   H20149691   1.641   2.401   3.027 -0.2769 -0.2414 -0.7045
  246MOL   H20249692   1.935   2.181   2.934  0.4024 -1.8197  1.3619
  247MOL     C149693   0.872   1.869   6.807  0.4890  0.0448  0.0226
  247MOL     C249694   0.727   1.897   6.816 -0.0750 -0.3402  0.2218
  247MOL     C349695   0.677   1.955   6.682 -0.0355  0.0332 -0.3690
  247MOL     O449696   0.714   2.065   6.637 -0.9126 -0.3791  0.0231
  247MOL     N549697   0.600   1.874   6.614  0.2466  0.4028  0.0937
  247MOL     H649698   0.906   1.803   6.887 -1.2162 -1.2154 -0.2832
  247MOL     H749699   0.890   1.808   6.719  1.8000  1.0774 -0.4470
  247MOL     H849700   0.673   1.804   6.835  0.6176 -0.7731  0.0884
  247MOL     H949701   0.559   1.902   6.525 -1.5299 -2.0987  0.0885
  247MOL    H1049702   0.585   1.790   6.668  0.6717  0.2506 -0.0244
  247MOL    H1149703   0.942   1.953   6.803  2.7527 -1.8447 -1.4375
  247MOL    C1249704   0.704   1.981   6.950  0.3712 -0.1377 -1.0451
  247MOL    C1349705   0.562   2.057   6.967  0.7215 -0.3887 -0.7665
  247MOL    C1449706   0.565   2.213   6.951 -0.4453 -0.0886  0.1083
  247MOL    O1549707   0.570   2.283   7.051  0.0936  0.1292  0.4323
  247MOL    N1649708   0.559   2.259   6.831 -0.5996  0.3515  0.1973
  247MOL    H1749709   0.783   2.055   6.937  2.0912 -2.1224 -2.1938
  247MOL    H1849710   0.724   1.921   7.039  0.1101 -1.5660 -1.9310
  247MOL    H1949711   0.501   2.008   6.891  2.9948 -1.0205 -2.2450
  247MOL    H2049712   0.576   2.198   6.753 -0.4535 -0.8311  1.1371
  247MOL    H2149713   0.570   2.359   6.826 -0.1048  0.3139  0.4868
  247MOL    C2249714   0.487   2.018   7.096 -0.1665  0.0607 -0.2636
  247MOL    C2349715   0.376   1.912   7.085 -0.2080  0.1121 -0.2895
  247MOL    C2449716   0.282   1.916   7.202  0.5027  0.5459  0.7346
  247MOL    O2549717   0.329   1.944   7.310  0.2773  0.9199 -0.6268
  247MOL    N2649718   0.150   1.905   7.185  0.0354  0.1533 -0.3483
  247MOL    H2749719   0.443   2.110   7.136  0.2861  0.1894 -0.0520
  247MOL    H2849720   0.562   1.990   7.170 -1.2572 -1.9956  0.0896
  247MOL    H2949721   0.317   1.957   7.006 -0.0344  2.6286  0.9908
  247MOL    H3049722   0.111   1.854   7.107 -0.9567 -0.8686  0.7958
  247MOL    H3149723   0.093   1.930   7.264  1.9797  1.4170  0.6975
  247MOL    C3249724   0.408   1.770   7.034 -0.0211 -0.1371  0.4828
  247MOL    C3349725   0.456   1.667   7.145 -0.5048 -0.0407  0.6612
  247MOL    C3449726   0.608   1.685   7.176  0.0503 -0.3437  0.4115
  247MOL    O3549727   0.695   1.664   7.091  0.3565  0.3749 -0.2094
  247MOL    N3649728   0.633   1.741   7.291  0.2752 -0.6061  0.0308
  247MOL    H3749729   0.486   1.776   6.958  0.4915 -0.9606  0.9393
  247MOL    H3849730   0.314   1.731   6.995 -0.5376 -1.6431  3.0901
  247MOL    H3949731   0.390   1.681   7.230 -2.6739 -1.9151 -0.6491
  247MOL    H4049732   0.727   1.761   7.323  0.0685 -1.1866  1.0214
  247MOL    H4149733   0.560   1.768   7.355  2.1954 -0.0781  2.0480
  247MOL    C4249734   0.429   1.518   7.092  0.2329  0.1604  0.5933
  247MOL    C4349735   0.340   1.435   7.187  0.5509 -0.2048 -1.6256
  247MOL    C4449736   0.421   1.405   7.316  0.0435  0.0683  0.0098
  247MOL    O4549737   0.514   1.328   7.321  0.0177  0.5951 -0.4609
  247MOL    N4649738   0.399   1.484   7.424  0.4808  0.6861 -0.1701
  247MOL    H4749739   0.518   1.459   7.075  0.0531 -0.6783  2.4667
  247MOL    H4849740   0.370   1.511   7.000 -1.1955  0.3141  1.4927
  247MOL    H4949741   0.258   1.497   7.224 -0.3584 -0.3616 -3.3345
  247MOL    H5049742   0.472   1.504   7.491  2.2475 -1.9100 -1.2547
  247MOL    H5149743   0.326   1.553   7.420 -0.0326  0.0403 -2.3171
  247MOL    C5249744   0.268   1.316   7.124 -0.1442  0.2624  0.4049
  247MOL    C5349745   0.171   1.226   7.192  0.2286 -0.6438  0.0639
  247MOL    C5449746   0.042   1.308   7.224  0.4689 -0.3328 -1.0754
  247MOL    O5549747   0.031   1.371   7.326  0.0878  0.1387 -0.1529
  247MOL    N5649748   7.597   1.301   7.139  0.3459 -0.1171 -0.0200
  247MOL    H5749749   0.348   1.261   7.073 -0.1283 -0.1362  0.8545
  247MOL    H5849750   0.213   1.371   7.048  0.1091 -0.1851 -0.1100
  247MOL    H5949751   0.151   1.140   7.128  0.5819  0.5807 -1.7365
  247MOL    H6049752   7.515   1.353   7.163  0.1053  0.0508 -1.1556
  247MOL    H6149753   7.615   1.248   7.054 -1.7537  1.4602 -1.4957
  247MOL    C6249754   0.228   1.161   7.324  0.2902  0.2053  0.3156
  247MOL    C6349755   0.145   1.051   7.392  0.3438 -0.4793 -0.2729
  247MOL    C6449756   0.218   1.022   7.525  0.9575  0.7655 -0.4520
  247MOL    O6549757   0.338   1.008   7.521 -0.1820 -0.4440  0.1177
  247MOL    N6649758   0.152   1.004   7.637  0.4494  0.0891  0.4028
  247MOL    H6749759   0.242   1.243   7.394 -1.2281 -1.5834  2.8194
  247MOL    H6849760   0.331   1.131   7.304 -0.7778 -1.5370 -2.9059
  247MOL    H6949761   0.049   1.101   7.406  1.7130  1.9745  0.7958
  247MOL    H7049762   0.055   1.029   7.625 -0.0532 -1.5869  0.7755
  247MOL    H7149763   0.196   0.990   0.070 -1.0909 -0.9874  1.0115
  247MOL    C7249764   0.118   0.930   7.311  0.1278 -0.1029 -0.5606
  247MOL    C7349765   0.226   0.849   7.227 -0.9075 -0.5582 -0.3149
  247MOL    C7449766   0.169   0.824   7.087  0.4456  0.5218  0.4219
  247MOL    O7549767   0.065   0.759   7.080 -0.0279 -0.5979  0.2492
  247MOL    N7649768   0.235   0.877   6.986 -0.0498 -0.2639 -0.2026
  247MOL    H7749769   0.038   0.961   7.244  0.8170  2.5213 -0.2273
  247MOL    H7849770   0.069   0.855   7.373  0.7301  1.8952  2.4274
  247MOL    H7949771   0.318   0.906   7.216 -0.8163  0.0873  3.2566
  247MOL    H8049772   0.202   0.862   6.891 -1.1681 -0.1410  0.1624
  247MOL    H8149773   0.315   0.937   7.002  1.4435 -1.4659 -2.7756
  247MOL    C8249774   0.279   0.721   7.307  0.5290  0.1083 -0.6904
  247MOL    C8349775   0.419   0.672   7.255 -0.5063 -0.0223 -0.5075
  247MOL    C8449776   0.413   0.558   7.154  0.2605  0.0474 -0.1883
  247MOL    O8549777   0.341   0.460   7.173  0.1928  0.7460 -0.6476
  247MOL    N8649778   0.501   0.571   7.052  0.2208 -0.0263 -0.1638
  247MOL    H8749779   0.207   0.640   7.305 -1.7826  2.0182  1.5939
  247MOL    H8849780   0.284   0.739   7.415 -2.9298  0.3838 -0.5328
  247MOL    H8949781   0.456   0.754   7.194  0.1015  1.1554  1.3783
  247MOL    H9049782   0.558   0.649   7.023 -0.4314  1.1079  1.5729
  247MOL    H9149783   0.504   0.494   6.986 -0.0158 -0.4488  0.3143
  247MOL    C9249784   0.523   0.638   7.368 -0.4825  0.6751  0.8643
  247MOL    C9349785   0.586   0.764   7.441 -0.7341  0.0045  0.3906
  247MOL    C9449786   0.682   0.826   7.339  0.4684  0.2217 -0.0888
  247MOL    O9549787   0.777   0.767   7.302 -0.5386  0.2183 -0.3818
  247MOL    N9649788   0.652   0.943   7.292  0.5042 -0.5900  0.2234
  247MOL    H9749789   0.595   0.566   7.327 -0.8778 -0.0778  1.4925
  247MOL    H9849790   0.469   0.583   7.444 -0.6025 -0.5306 -0.0706
  247MOL    H9949791   0.500   0.828   7.464 -1.5117 -0.2285 -1.7606
  247MOL   H10049792   0.700   0.980   7.212  2.0574 -0.3988  1.2164
  247MOL   H10149793   0.568   0.987   7.328  1.6755 -1.3003  4.0763
  247MOL   C10249794   0.662   0.731   7.573 -0.2405  0.3837 -0.0570
  247MOL   C10349795   0.705   0.850   0.008  0.1281 -0.5334 -0.7198
  247MOL   C10449796   0.814   0.809   0.102  0.0749 -0.4184 -0.5405
  247MOL   O10549797   0.782   0.734   0.191  0.4406 -0.2161 -0.0007
  247MOL   N10649798   0.936   0.852   0.090  0.0551 -0.0243 -0.5358
  247MOL   H10749799   0.747   0.669   7.545 -0.9051  0.1548 -1.6235
  247MOL   H10849800   0.603   0.657   7.627  0.2093 -0.8045 -1.1623
  247MOL   H10949801   0.752   0.925   7.601 -1.8201 -0.7453 -2.4312
  247MOL   H11049802   0.996   0.848   0.172 -1.0945 -0.3873  0.3117
  247MOL   H11149803   0.971   0.900   0.009  1.1614 -0.3760 -0.2756
  247MOL   C11249804   0.585   0.911   0.085 -0.5210  0.2403  0.3552
  247MOL   C11349805   0.597   1.063   0.119 -0.5048 -0.0984  0.1240
  247MOL   C11449806   0.635   1.154   0.004  0.1080 -0.2546  0.3306
  247MOL   O11549807   0.753   1.190   7.639  0.2618  0.3235  0.8562
  247MOL   N11649808   0.538   1.196   7.582 -0.1111  0.5123 -0.0737
  247MOL   H11749809   0.562   0.850   0.172 -0.5104 -0.5542 -0.1920
  247MOL   H11849810   0.507   0.900   0.009 -0.3226 -0.8745  0.3143
  247MOL   H11949811   0.496   1.097   0.144 -0.4476 -0.4586  0.8280
  247MOL   H12049812   0.559   1.254   7.502 -1.4738 -0.6605 -1.3175
  247MOL   H12149813   0.442   1.166   7.584 -0.3548  0.9582 -2.6267
  247MOL   C12249814   0.687   1.092   0.242  0.2441 -0.1065  0.6644
  247MOL   C12349815   0.637   1.053   0.378 -0.0391 -0.1652 -0.3802
  247MOL   C12449816   0.514   1.128   0.429  0.2880  0.3202  0.1776
  247MOL   O12549817   0.515   1.246   0.470  0.1132  0.3540 -0.3649
  247MOL   N12649818   0.411   1.048   0.427  0.4438  1.0361 -0.1271
  247MOL   H12749819   0.684   1.201   0.249  0.4004 -0.1474  1.4353
  247MOL   H12849820   0.787   1.058   0.216  0.2035  0.4321 -0.2393
  247MOL   H12949821   0.613   0.947   0.369  1.2108 -0.2786 -2.7109
  247MOL   H13049822   0.324   1.073   0.471 -0.1786 -0.0347 -0.7147
  247MOL   H13149823   0.407   0.956   0.384  2.1964  0.2706  1.2982
  247MOL   C13249824   0.761   1.067   0.471  0.0932  0.1158 -0.3831
  247MOL   C13349825   0.874   0.959   0.453  0.2339 -0.6343  0.3379
  247MOL   C13449826   0.846   0.829   0.527 -0.3084 -0.0762  0.5595
  247MOL   O13549827   0.821   0.824   0.644 -0.4253  0.0295 -0.3140
  247MOL   N13649828   0.851   0.716   0.451 -0.3403  0.2758  0.1878
  247MOL   H13749829   0.744   1.074   0.578 -0.1892 -3.0986 -0.1754
  247MOL   H13849830   0.803   1.164   0.445 -0.5102  0.5918  0.3788
  247MOL   H13949831   0.886   0.932   0.348  0.5242  1.4503 -0.1776
  247MOL   H14049832   0.886   0.718   0.356  2.8010 -0.1822  1.2826
  247MOL   H14149833   0.829   0.630   0.499  2.6291 -0.7230 -0.1480
  247MOL   C14249834   1.007   1.022   0.503  0.6011 -0.3108 -0.7338
  247MOL   C14349835   1.146   0.945   0.491  0.1346  0.0855 -0.1640
  247MOL   C14449836   1.155   0.877   0.360 -0.4291  0.1642 -0.3705
  247MOL   O14549837   1.128   0.947   0.261 -0.4845 -0.3668  0.0962
  247MOL   N14649838   1.186   0.748   0.354  0.8590  0.0228 -0.5185
  247MOL   H14749839   0.995   1.062   0.603  1.5337 -0.7588 -0.4319
  247MOL   H14849840   1.017   1.105   0.433 -0.1713  0.4547  0.0699
  247MOL   H14949841   1.215   1.029   0.489 -1.6240  1.5593 -0.5226
  247MOL   H15049842   1.202   0.694   0.437 -1.1899  1.9750  1.1835
  247MOL   H15149843   1.189   0.701   0.264 -0.0558 -0.2409 -0.4079
  247MOL   C15249844   1.189   0.862   0.614 -0.1309 -0.2243 -0.0140
  247MOL   C15349845   1.191   0.929   0.745  1.0725 -0.2173  0.0667
  247MOL   C15449846   1.295   1.044   0.748 -0.4558 -0.4486  0.2180
  247MOL   O15549847   1.416   1.015   0.741  0.7456  0.1150 -0.2686
  247MOL   N15649848   1.258   1.169   0.764 -0.6467 -0.1547 -0.1213
  247MOL   H15749849   1.294   0.840   0.593 -0.9916 -1.5505 -3.3169
  247MOL   H15849850   1.146   0.763   0.629 -3.5213  1.0873 -0.6529
  247MOL   H15949851   1.090   0.960   0.770  0.7614 -1.3790  0.2780
  247MOL   H16049852   1.158   1.185   0.763 -0.5292  0.5414 -1.4529
  247MOL   H16149853   1.320   1.248   0.750 -0.3428 -0.3831 -0.0539
  247MOL   C16249854   1.223   0.827   0.857 -0.4627 -0.0984 -0.3736
  247MOL   C16349855   1.181   0.882   0.988 -0.4470 -0.0088  0.2149
  247MOL   C16449856   1.265   0.827   1.105 -0.3501  0.2865  0.5293
  247MOL   O16549857   1.344   0.732   1.085 -0.4579 -0.1702  0.6983
  247MOL   N16649858   1.249   0.869   1.227  0.4220  0.1772 -0.0289
  247MOL   H16749859   1.329   0.802   0.854 -0.3295  0.2419  0.9922
  247MOL   H16849860   1.175   0.730   0.847 -0.0227 -0.3113 -0.4038
  247MOL   H16949861   1.211   0.987   0.992 -1.7600  0.4271 -0.8288
  247MOL   H17049862   1.184   0.945   1.240  1.0794  0.3924  2.1258
  247MOL   H17149863   1.279   0.821   1.310  1.3235 -1.6828 -1.3910
  247MOL   C17249864   1.024   0.870   1.011 -0.6355  0.5315  0.1568
  247MOL   C17349865   0.941   0.997   1.017 -0.2750 -0.0487  0.2524
  247MOL   C17449866   1.012   1.109   1.094  0.3896 -0.3059  0.7741
  247MOL   O17549867   1.056   1.091   1.207 -0.0785  0.2527  0.3627
  247MOL   N17649868   1.025   1.223   1.027  0.0384  0.0124  0.0924
  247MOL   H17749869   1.014   0.808   1.100 -1.2654 -0.2511 -0.4460
  247MOL   H17849870   0.978   0.809   0.933  0.4738 -0.1318  0.0177
  247MOL   H17949871   0.925   1.038   0.917  3.6175 -3.4235 -1.9282
  247MOL   H18049872   1.093   1.286   1.068 -1.5261  1.1042  1.0947
  247MOL   H18149873   0.994   1.228   0.931  0.9921  0.1963 -0.2107
  247MOL   C18249874   0.811   0.974   1.100  0.1080 -0.4849 -0.7569
  247MOL   C18349875   0.681   0.939   1.018  0.1405  0.3239  0.2003
  247MOL   C18449876   0.624   1.062   0.957 -0.4274 -0.0237  0.4422
  247MOL   O18549877   0.603   1.159   1.024 -0.3739 -0.3898 -0.5454
  247MOL   N18649878   0.608   1.062   0.829  0.1228  0.0202 -0.3194
  247MOL   H18749879   0.797   1.058   1.168  0.3924  0.5764 -2.0028
  247MOL   H18849880   0.831   0.901   1.179  0.0333  2.2590  1.8498
  247MOL   H18949881   0.712   0.868   0.942  0.8829 -1.2068  1.8906
  247MOL   H19049882   0.572   1.144   0.782 -1.5996 -0.8543 -0.5669
  247MOL   H19149883   0.599   0.974   0.779 -0.4661  0.3733 -0.8525
  247MOL   C19249884   0.582   0.879   1.113  0.5325  0.4532 -0.2063
  247MOL   C19349885   0.437   0.854   1.070 -0.3721  0.1683  0.3446
  247MOL   C19449886   0.408   0.752   0.953 -0.2148  0.1499 -0.3952
  247MOL   O19549887   0.488   0.684   0.891  0.6211 -0.0821 -0.4608
  247MOL   N19649888   0.278   0.750   0.926 -0.1552 -0.2652  0.8971
  247MOL   H19749889   0.572   0.942   1.202  0.0344  1.7128 -1.1327
  247MOL   H19849890   0.626   0.790   1.158  1.0620  0.7789 -0.0705
  247MOL   H19949891   0.378   0.815   1.153 -1.4031 -0.2708 -0.5726
  247MOL   H20049892   0.214   0.811   0.975 -1.4763 -0.6433 -0.3161
  247MOL   H20149893   0.240   0.686   0.857 -1.1378  1.0003  0.2373
  247MOL   H20249894   0.390   0.948   1.040 -0.7928 -0.8761 -2.4569
   7.65683   7.65683   7.65683
