Control file title. For DL_FIELD 4.10
49660
    1MOL     C1    1   6.496   0.974   4.573  0.2541 -0.3594  0.3631
    1MOL     C2    2   6.523   0.828   4.582 -1.1256  0.2732 -0.2707
    1MOL     C3    3   6.631   0.808   4.695  0.2550 -0.0059 -0.6573
    1MOL     C4    4   6.593   0.920   4.800  0.1958 -0.2174  0.0524
    1MOL     C5    5   6.703   0.980   4.887  0.1361 -0.4405  0.1735
    1MOL     C6    6   6.662   1.086   4.992  0.0111 -0.9338  0.5793
    1MOL     C7    7   6.527   1.030   4.716 -0.6485  0.2690 -0.0820
    1MOL     H8    8   6.564   1.009   4.495 -0.5156 -1.8110 -1.0072
    1MOL     H9    9   6.550   0.785   4.485  0.2183  0.5546 -0.0266
    1MOL    H10   10   6.439   0.768   4.619  0.3442 -1.4887  0.2550
    1MOL    H11   11   6.625   0.704   4.725 -2.0820  0.5316  0.8972
    1MOL    H12   12   6.731   0.829   4.657  0.0813 -1.0129 -1.6609
    1MOL    H13   13   6.510   0.881   4.860 -1.7965 -0.8972 -3.0288
    1MOL    H14   14   6.757   0.904   4.943  2.6499  0.8551 -0.4204
    1MOL    H15   15   6.774   1.023   4.816 -0.0041 -0.5846 -0.0535
    1MOL    H16   16   6.567   1.135   4.969 -0.1603 -0.8915  1.3403
    1MOL    H17   17   6.649   1.037   5.089 -1.5439  0.6867  1.2451
    1MOL    H18   18   6.433   1.060   4.764  0.0043 -0.0650  1.4477
    1MOL    H19   19   6.592   1.117   4.706 -2.7112  1.6623 -1.9856
    1MOL    H20   20   6.395   0.983   4.533  0.7676 -0.4782 -0.9805
    1MOL    C21   21   6.766   1.203   5.015  0.9070  0.3915  0.3903
    1MOL    C22   22   6.800   1.286   4.894 -0.5996 -0.0541  0.6247
    1MOL    C23   23   6.847   1.418   4.951  0.2369 -1.1197  0.4108
    1MOL    C24   24   6.817   1.427   5.102  0.0229 -0.4627 -0.1321
    1MOL    C25   25   6.769   1.566   5.157 -0.3298  0.1452  0.8397
    1MOL    C26   26   6.865   1.688   5.150  0.4596 -0.5342 -0.2542
    1MOL    C27   27   6.724   1.307   5.124  0.8055  0.2140 -0.5817
    1MOL    H28   28   6.862   1.166   5.051  1.5907 -0.5336 -2.3294
    1MOL    H29   29   6.883   1.237   4.844 -1.2403 -0.5142  0.0166
    1MOL    H30   30   6.719   1.315   4.828 -0.7036 -0.8373  0.4120
    1MOL    H31   31   6.952   1.441   4.935 -0.8017  1.8902 -2.8337
    1MOL    H32   32   6.790   1.495   4.898 -2.8687 -0.5424  4.3608
    1MOL    H33   33   6.906   1.404   5.160  1.6595  1.8047 -1.6309
    1MOL    H34   34   6.737   1.554   5.261 -1.6230  2.6873  0.7580
    1MOL    H35   35   6.678   1.579   5.099  0.4237  1.3885 -0.0805
    1MOL    H36   36   6.887   1.696   5.044 -2.5045  3.2108 -0.7069
    1MOL    H37   37   6.951   1.662   5.211  0.4651  1.4631  0.6449
    1MOL    H38   38   6.730   1.261   5.222 -1.0381  2.5494  0.6843
    1MOL    H39   39   6.621   1.338   5.106  0.2683 -0.3991  1.3340
    1MOL    C40   40   6.798   1.816   5.223  0.8029  0.0820  0.5230
    1MOL    C41   41   6.847   1.951   5.175  0.0292  0.8813  0.0699
    1MOL    C42   42   6.727   2.053   5.189 -0.2376 -0.7957 -0.5609
    1MOL    C43   43   6.613   1.966   5.245 -0.2199 -0.3062  0.4403
    1MOL    C44   44   6.574   2.000   5.392  0.2962  0.1114 -0.1130
    1MOL    C45   45   6.675   1.967   5.511 -0.1068  0.0805 -0.2514
    1MOL    C46   46   6.645   1.821   5.215 -0.2933 -0.6190 -0.8680
    1MOL    H47   47   6.829   1.799   5.326 -1.2766 -2.0455  0.8589
    1MOL    H48   48   6.901   1.948   5.080 -1.6141  1.4794 -0.9114
    1MOL    H49   49   6.916   1.983   5.253  0.8697  0.4482 -0.4816
    1MOL    H50   50   6.755   2.126   5.265  0.7875 -3.0923  1.3145
    1MOL    H51   51   6.690   2.101   5.098 -0.2978 -2.4311 -1.4089
    1MOL    H52   52   6.524   1.995   5.189  0.0957  0.2180  0.2079
    1MOL    H53   53   6.553   2.107   5.395 -2.2795 -0.3857  1.3027
    1MOL    H54   54   6.481   1.945   5.408  1.6022 -2.3734 -0.8516
    1MOL    H55   55   6.765   2.028   5.503  0.1613 -0.5350 -2.0782
    1MOL    H56   56   6.711   1.864   5.506 -0.5011 -0.0719  0.0811
    1MOL    H57   57   6.593   1.763   5.291  1.1203 -1.5934 -0.6284
    1MOL    H58   58   6.603   1.786   5.120  0.8597 -1.7862 -0.9675
    1MOL    C59   59   6.607   2.008   5.646 -0.0096  0.0806  0.5553
    1MOL    C60   60   6.471   1.942   5.679  0.6896  0.5048  0.9450
    1MOL    C61   61   6.466   1.956   5.833  0.5614  0.3062  0.6030
    1MOL    C62   62   6.615   1.922   5.875  0.7509  0.2441 -0.2085
    1MOL    C63   63   6.648   1.967   6.015 -0.0337  0.2867 -0.4337
    1MOL    C64   64   6.787   1.926   6.049 -0.1690 -0.3542  0.2242
    1MOL    C65   65   6.701   1.981   5.763 -0.6037 -0.3726 -0.2669
    1MOL    H66   66   6.586   2.115   5.649  1.1236  0.3289 -0.2894
    1MOL    H67   67   6.386   1.988   5.627  1.5142  1.3535  0.3292
    1MOL    H68   68   6.473   1.843   5.635  0.6016  1.7379 -1.9310
    1MOL    H69   69   6.440   2.060   5.857 -1.1118  0.0535 -0.0758
    1MOL    H70   70   6.390   1.887   5.869 -0.6498  1.2192 -0.1957
    1MOL    H71   71   6.616   1.813   5.874  0.5767  0.2454 -0.8718
    1MOL    H72   72   6.577   1.927   6.088 -1.3480 -0.4335 -2.0519
    1MOL    H73   73   6.646   2.075   6.029  0.4985  0.2961 -0.4278
    1MOL    H74   74   6.802   1.830   5.998 -0.3259 -0.5724  0.5895
    1MOL    H75   75   6.875   1.974   6.007 -0.1888 -2.0813 -1.9098
    1MOL    H76   76   6.760   2.068   5.792  0.1170 -0.5692 -1.1157
    1MOL    H77   77   6.773   1.904   5.735  0.8098  1.5313 -2.0820
    1MOL    C78   78   6.813   1.894   6.200  0.0055  0.3267  0.1066
    1MOL    C79   79   6.736   1.769   6.268  0.6468 -0.6795  0.4444
    1MOL    C80   80   6.840   1.692   6.349 -0.0409  0.5483 -0.3429
    1MOL    C81   81   6.955   1.791   6.372 -0.3622 -0.3521 -0.1489
    1MOL    C82   82   7.082   1.721   6.415  0.3905  0.0583 -0.8082
    1MOL    C83   83   7.219   1.785   6.372 -0.7956 -0.5381 -0.8984
    1MOL    C84   84   6.959   1.867   6.239 -0.2017  0.2215 -0.3109
    1MOL    H85   85   6.798   1.980   6.266  0.9218 -0.8744  1.9542
    1MOL    H86   86   6.654   1.815   6.324  1.3096  0.5997  0.3799
    1MOL    H87   87   6.689   1.698   6.200 -0.9758  0.6933  0.0924
    1MOL    H88   88   6.809   1.661   6.449  0.0826  2.4634  0.3098
    1MOL    H89   89   6.876   1.602   6.300  1.5748  0.8643  0.2498
    1MOL    H90   90   6.926   1.861   6.450 -2.1806  1.1281 -2.1002
    1MOL    H91   91   7.083   1.619   6.377  0.8197 -1.7834  3.7715
    1MOL    H92   92   7.075   1.709   6.523 -1.2248  2.2266 -0.6311
    1MOL    H93   93   7.207   1.892   6.391 -2.4293 -0.7197 -0.7621
    1MOL    H94   94   7.229   1.782   6.264  0.1054 -0.2327 -0.8229
    1MOL    H95   95   6.999   1.797   6.165  1.4047 -0.5497  1.2665
    1MOL    H96   96   7.025   1.953   6.236 -0.4463  0.4722  1.3243
    1MOL    C97   97   7.352   1.729   6.435  0.1498 -0.2087  0.4693
    1MOL    C98   98   7.369   1.794   6.566 -1.1585  0.5694  0.2322
    1MOL    C99   99   7.510   1.756   6.608  0.0909 -0.9529 -0.1101
    1MOL   C100  100   7.582   1.709   6.478 -0.2338 -0.0348 -0.5118
    1MOL   C101  101   0.069   1.770   6.452  0.5242 -0.3001  0.0588
    1MOL   C102  102   0.164   1.744   6.566 -0.4640 -0.9717  0.4470
    1MOL   C103  103   7.487   1.755   6.366 -0.1678  0.3335  0.0069
    1MOL   H104  104   7.348   1.621   6.450 -2.0299 -0.1321  0.5785
    1MOL   H105  105   7.373   1.903   6.567 -0.6153  0.5573 -0.0918
    1MOL   H106  106   7.294   1.756   6.635 -1.0682 -1.9602 -1.0060
    1MOL   H107  107   7.544   1.837   6.673  0.3262  0.2264 -1.6754
    1MOL   H108  108   7.500   1.662   6.662 -1.6318 -0.5131  0.3538
    1MOL   H109  109   7.590   1.600   6.476  0.4984 -0.0993  2.8111
    1MOL   H110  110   0.093   1.726   6.355  0.1431  0.2712 -0.2923
    1MOL   H111  111   0.057   1.875   6.425 -2.3000 -0.3430  0.9385
    1MOL   H112  112   0.144   1.826   6.635 -0.1368 -0.3964 -0.1364
    1MOL   H113  113   0.142   1.649   6.617  3.9612 -2.0167  0.6094
    1MOL   H114  114   7.493   1.858   6.331  2.8665  0.3655  0.4776
    1MOL   H115  115   7.508   1.693   6.279  2.4846  1.7085 -0.3795
    1MOL   C116  116   0.302   1.767   6.524 -0.3250 -0.2849 -0.3074
    1MOL   C117  117   0.412   1.764   6.638  0.1596 -0.1367 -1.3054
    1MOL   C118  118   0.533   1.690   6.577  0.1116  1.0930 -0.2078
    1MOL   C119  119   0.512   1.669   6.429  0.2724 -0.0615  0.0926
    1MOL   C120  120   0.582   1.552   6.361 -0.7027 -0.7552 -0.5517
    1MOL   C121  121   0.733   1.577   6.358  0.5134  0.1134 -0.5238
    1MOL   C122  122   0.356   1.673   6.419 -1.1813  0.2870  0.2890
    1MOL   H123  123   0.307   1.862   6.472  1.6325  0.6191  1.4599
    1MOL   H124  124   0.376   1.702   6.721  0.2908 -0.0525 -1.1857
    1MOL   H125  125   0.443   1.862   6.672  1.6064 -1.4386  1.3195
    1MOL   H126  126   0.549   1.603   6.640 -0.3395  0.0549 -1.5097
    1MOL   H127  127   0.624   1.745   6.600  1.0999 -0.2613 -0.8453
    1MOL   H128  128   0.538   1.762   6.379 -0.6543 -1.2767 -2.7922
    1MOL   H129  129   0.550   1.531   6.259 -1.7948 -1.5939 -0.0412
    1MOL   H130  130   0.565   1.462   6.420 -0.5456 -1.8192 -2.0746
    1MOL   H131  131   0.766   1.620   6.452  2.4314 -1.8094 -0.2733
    1MOL   H132  132   0.749   1.662   6.292 -0.4005  0.5021 -0.2425
    1MOL   H133  133   0.328   1.711   6.321 -1.4611  2.4602  1.1844
    1MOL   H134  134   0.318   1.573   6.439  1.1347 -0.6910 -0.0417
    1MOL   C135  135   0.821   1.462   6.324  0.5397 -0.6873 -0.0222
    1MOL   C136  136   0.970   1.501   6.316  0.1492 -1.0265  0.2743
    1MOL   C137  137   1.047   1.375   6.334  0.4219  0.0154  0.5592
    1MOL   C138  138   0.973   1.307   6.449  0.0668  0.2487  0.1608
    1MOL   C139  139   0.984   1.152   6.437  0.8003  0.0586  0.4765
    1MOL   C140  140   1.121   1.097   6.483  0.4837  0.1526 -0.3115
    1MOL   C141  141   0.832   1.349   6.430 -0.1180 -1.1608 -0.5955
    1MOL   H142  142   0.799   1.420   6.226 -1.9224  0.5528 -0.0418
    1MOL   H143  143   0.985   1.544   6.218  0.7163 -1.4362  0.1783
    1MOL   H144  144   0.986   1.570   6.399 -0.7741 -0.5473  0.0588
    1MOL   H145  145   1.038   1.322   6.239 -0.0615  0.5314  0.3182
    1MOL   H146  146   1.153   1.377   6.361  0.5305  0.0562  0.1471
    1MOL   H147  147   1.012   1.336   6.546  2.7537  2.3682 -1.4920
    1MOL   H148  148   0.955   1.113   6.340 -1.7287  1.5715  0.5753
    1MOL   H149  149   0.910   1.127   6.513  0.2848  0.5077  0.1256
    1MOL   H150  150   1.200   1.119   6.411 -1.5528  1.0263 -2.3354
    1MOL   H151  151   1.148   1.154   6.572 -0.5410 -1.6074  1.1661
    1MOL   H152  152   0.791   1.389   6.523  3.4675  1.6294 -0.1150
    1MOL   H153  153   0.769   1.268   6.393 -0.5151 -0.1170 -2.2469
    1MOL   C154  154   1.112   0.959   6.545  0.3687  0.5844  0.0118
    1MOL   C155  155   1.253   0.901   6.588 -0.6938 -0.5167  0.7442
    1MOL   C156  156   1.259   0.762   6.540  0.1323  0.2913  0.5565
    1MOL   C157  157   1.122   0.717   6.489 -0.1277  0.9221  0.7793
    1MOL   C158  158   1.111   0.618   6.373 -0.3010 -0.1143 -0.8472
    1MOL   C159  159   1.170   0.481   6.407  0.8739 -0.0668 -0.2718
    1MOL   C160  160   1.064   0.854   6.444 -0.1175 -0.0414 -0.0697
    1MOL   H161  161   1.048   0.955   6.633 -1.1263  0.9067 -1.0428
    1MOL   H162  162   1.337   0.939   6.530  0.5774 -2.0111  1.5813
    1MOL   H163  163   1.277   0.909   6.694  1.5814 -2.8027  0.4457
    1MOL   H164  164   1.345   0.755   6.472  0.6133 -0.0608  1.1909
    1MOL   H165  165   1.292   0.690   6.616 -1.9339 -1.3446 -0.0554
    1MOL   H166  166   1.061   0.686   6.574  1.5520 -3.7234  0.4060
    1MOL   H167  167   1.161   0.670   6.291  2.3661  2.3408  2.2223
    1MOL   H168  168   1.006   0.604   6.346 -0.5210  0.8792 -0.5218
    1MOL   H169  169   1.269   0.494   6.450 -0.1642  2.1997  1.4926
    1MOL   H170  170   1.099   0.435   6.476 -0.7980  1.4690 -0.9155
    1MOL   H171  171   0.957   0.834   6.449 -0.0967 -0.0532  0.3529
    1MOL   H172  172   1.090   0.888   6.344 -0.0235  2.9374  0.9114
    1MOL   C173  173   1.181   0.382   6.288 -0.1421  0.4468  1.4840
    1MOL   C174  174   1.264   0.426   6.171  0.0907  0.9089 -0.6475
    1MOL   C175  175   1.323   0.295   6.114  0.3956 -0.3671 -0.1622
    1MOL   C176  176   1.253   0.178   6.187 -0.0468  0.3542  0.1314
    1MOL   C177  177   1.337   0.049   6.188  0.0973  0.4061 -0.0495
    1MOL   C178  178   1.260   7.573   6.243 -0.1645  0.7293 -0.1417
    1MOL   C179  179   1.239   0.247   6.323 -0.1514 -0.2498  0.3261
    1MOL   H180  180   1.079   0.368   6.254  0.4213  2.2653 -1.1481
    1MOL   H181  181   1.339   0.497   6.206 -1.2322  3.0777 -2.0839
    1MOL   H182  182   1.213   0.488   6.097 -0.8845 -0.7511 -1.3856
    1MOL   H183  183   1.288   0.288   6.011 -2.8358 -0.3432  0.8727
    1MOL   H184  184   1.430   0.305   6.130 -0.0628  3.3325  1.1803
    1MOL   H185  185   1.155   0.168   6.141  0.7118  1.7646 -1.8473
    1MOL   H186  186   1.430   0.077   6.239  2.0298 -1.8334 -2.2243
    1MOL   H187  187   1.347   0.034   6.081 -3.1397 -0.0007 -0.3185
    1MOL   H188  188   1.158   7.561   6.206 -0.8574  2.3848  1.1738
    1MOL   H189  189   1.242   7.586   6.350 -1.5469 -2.4164  0.0648
    1MOL   H190  190   1.337   0.269   6.365  0.3288 -0.8154 -0.4952
    1MOL   H191  191   1.191   0.183   6.398 -0.2192 -0.5869 -0.0070
    1MOL   C192  192   1.326   7.445   6.220  0.0048 -0.5814 -0.1454
    1MOL   C193  193   1.261   7.321   6.278 -0.6573  0.0058  0.4626
    1MOL   C194  194   1.376   7.218   6.250 -0.2129 -0.0897 -0.2373
    1MOL   C195  195   1.512   7.285   6.271 -0.9465  0.4619 -0.0511
    1MOL   C196  196   1.626   7.253   6.171 -0.6636 -0.7648 -0.3588
    1MOL   C197  197   1.681   7.114   6.195 -0.9944 -1.5189 -0.2678
    1MOL   C198  198   1.473   7.430   6.265  0.3465 -0.9274  0.1541
    1MOL   H199  199   1.333   7.433   6.112 -0.1725 -3.1850  0.0981
    1MOL   H200  200   1.239   7.324   6.384  1.0822 -0.6303  0.8601
    1MOL   H201  201   1.170   7.292   6.225 -0.7834 -0.3072  0.8468
    1MOL   H202  202   1.354   7.196   6.146 -1.1485  0.3083 -0.1258
    1MOL   H203  203   1.353   7.133   6.313 -1.0554  0.4221  0.1649
    1MOL   H204  204   1.551   7.264   6.371 -2.7900 -0.4936  0.4698
    1MOL   H205  205   1.695   7.335   6.190 -1.2153 -0.7273  1.6066
    1MOL   H206  206   1.582   7.277   6.075  0.7688  0.2792 -0.7633
    1MOL   H207  207   1.618   7.026   6.178 -0.1424 -1.9056 -1.4990
    1MOL   H208  208   1.716   7.114   6.298 -2.0602  2.1041  0.1551
    1MOL   H209  209   1.551   7.490   6.218 -1.4420  2.0804  0.9553
    1MOL   H210  210   1.482   7.459   6.369 -1.5522 -1.9490  0.6317
    1MOL   C211  211   1.807   7.092   6.103 -0.2622  0.2153 -0.4548
    1MOL   C212  212   1.764   7.076   5.953  0.2290  0.5388 -0.2868
    1MOL   C213  213   1.823   6.943   5.906 -0.0642 -0.5325 -0.8254
    1MOL   C214  214   1.949   6.931   5.992  0.0171 -0.1038  0.4226
    1MOL   C215  215   2.026   6.801   5.981 -0.2400 -0.5733  0.3283
    1MOL   C216  216   2.172   6.812   6.034  0.4016 -0.2227 -0.3428
    1MOL   C217  217   1.901   6.970   6.133 -0.2339 -0.1689  0.3230
    1MOL   H218  218   1.869   7.181   6.106  0.4132 -0.2845  0.7756
    1MOL   H219  219   1.656   7.069   5.943  0.2766 -0.6438 -0.0835
    1MOL   H220  220   1.806   7.159   5.896  0.0533  1.1536  0.4861
    1MOL   H221  221   1.764   6.853   5.924  0.5720 -0.5439  1.3615
    1MOL   H222  222   1.857   6.950   5.803  0.2930 -1.2138 -0.7610
    1MOL   H223  223   2.012   7.017   5.966 -2.0223  1.1654 -0.4827
    1MOL   H224  224   2.045   6.774   5.877  1.2893  0.2316  0.3926
    1MOL   H225  225   1.966   6.719   6.020  0.5910 -1.6907 -0.7052
    1MOL   H226  226   2.222   6.881   5.966  0.7005 -1.8120 -1.7818
    1MOL   H227  227   2.162   6.856   6.133 -0.1458 -1.4575  0.1694
    1MOL   H228  228   1.979   6.998   6.204  0.1546  0.3435 -0.3061
    1MOL   H229  229   1.841   6.891   6.179  0.1065  0.0121  1.0770
    1MOL   C230  230   2.245   6.681   6.046  0.2143 -0.5702  0.0385
    1MOL   C231  231   2.376   6.699   6.119 -0.0725 -0.1928 -0.5938
    1MOL   C232  232   2.450   6.566   6.095  0.2191 -0.1150  0.3912
    1MOL   C233  233   2.401   6.521   5.956  0.8926  0.1182 -0.5346
    1MOL   C234  234   2.343   6.381   5.963  0.2524 -0.4124  0.6411
    1MOL   C235  235   2.455   6.271   5.993 -0.3983  0.0010 -0.6223
    1MOL   C236  236   2.295   6.622   5.909  0.0753 -1.0019 -0.4170
    1MOL   H237  237   2.197   6.596   6.095 -2.4959  1.7085  1.4605
    1MOL   H238  238   2.438   6.781   6.083 -0.7812  0.8583  0.5007
    1MOL   H239  239   2.364   6.719   6.226  2.9447  0.1836 -0.2940
    1MOL   H240  240   2.429   6.496   6.176  1.4822  1.1120  1.8232
    1MOL   H241  241   2.558   6.580   6.090  0.1138  0.2085 -1.1901
    1MOL   H242  242   2.487   6.524   5.890  1.1134 -1.2544 -0.3189
    1MOL   H243  243   2.288   6.347   5.875 -1.6596 -0.2529  1.7501
    1MOL   H244  244   2.257   6.380   6.030  0.2615  0.1037  0.6598
    1MOL   H245  245   2.527   6.283   5.912  0.7804 -0.8691  0.2699
    1MOL   H246  246   2.492   6.300   6.091 -1.5483  1.8076 -0.7081
    1MOL   H247  247   2.215   6.575   5.853 -1.4127  1.7147 -0.6252
    1MOL   H248  248   2.334   6.704   5.850 -2.5369  0.6882  0.1618
    1MOL   C249  249   2.387   6.134   6.005 -0.5079  0.0669 -0.8679
    1MOL   C250  250   2.485   6.020   6.012 -0.0026 -0.0921 -0.6521
    1MOL   C251  251   2.447   5.932   6.134 -0.3914  0.5429 -0.4171
    1MOL   C252  252   2.385   6.038   6.226 -0.2376  0.1054  0.3575
    1MOL   C253  253   2.310   5.971   6.342  0.4637  0.0394  0.7130
    1MOL   C254  254   2.399   5.909   6.454 -0.4046 -0.0212  0.0174
    1MOL   C255  255   2.299   6.120   6.133  0.0308  0.1971  0.3080
    1MOL   H256  256   2.315   6.116   5.925 -0.7540 -0.2574 -0.5723
    1MOL   H257  257   2.487   5.966   5.917 -1.8275 -1.3976  0.0352
    1MOL   H258  258   2.590   6.049   6.015 -0.2420  0.6001  1.7124
    1MOL   H259  259   2.530   5.881   6.182 -1.3811 -0.4696  0.2377
    1MOL   H260  260   2.372   5.855   6.115 -1.9187  1.7605  0.4918
    1MOL   H261  261   2.467   6.102   6.260  1.2381 -1.2222 -0.6099
    1MOL   H262  262   2.257   5.888   6.297  2.7730 -0.0892 -1.9190
    1MOL   H263  263   2.242   6.040   6.393  1.8848  0.2686  2.3532
    1MOL   H264  264   2.444   5.816   6.419  0.7616  0.0232  1.3797
    1MOL   H265  265   2.328   5.864   6.524 -0.8829 -0.5964 -0.8312
    1MOL   H266  266   2.278   6.216   6.182  2.4226  1.0220 -0.2496
    1MOL   H267  267   2.205   6.074   6.103 -1.1856  1.3368  2.2165
    1MOL   C268  268   2.484   6.011   6.527 -0.6486  0.2500  0.7468
    1MOL   C269  269   2.537   5.949   6.658 -0.0745  0.2219  0.3352
    1MOL   C270  270   2.578   6.072   6.741 -0.1566 -0.3642 -0.0757
    1MOL   C271  271   2.491   6.191   6.701  0.4970  0.0905  0.6423
    1MOL   C272  272   2.405   6.258   6.815 -0.0982 -0.0249  0.9359
    1MOL   C273  273   2.475   6.374   6.882  0.3864  0.7529  0.0954
    1MOL   C274  274   2.410   6.131   6.583  0.1546 -0.0701  0.8439
    1MOL   H275  275   2.567   6.036   6.461 -1.4594 -0.9574 -0.7388
    1MOL   H276  276   2.456   5.889   6.699 -0.4203 -0.1308 -0.8434
    1MOL   H277  277   2.626   5.886   6.645  0.4709  1.0020  0.2986
    1MOL   H278  278   2.575   6.058   6.849 -1.7519  1.0905  0.0834
    1MOL   H279  279   2.677   6.107   6.714 -0.4342 -1.5359 -2.8010
    1MOL   H280  280   2.558   6.271   6.672  2.8881 -2.5908 -1.6190
    1MOL   H281  281   2.384   6.191   6.898  0.0117  0.1137  1.0737
    1MOL   H282  282   2.309   6.293   6.777  0.1479 -1.5723 -1.2382
    1MOL   H283  283   2.562   6.336   6.936  1.6422  0.6044 -1.9714
    1MOL   H284  284   2.504   6.444   6.804 -0.5678  2.1689  1.0050
    1MOL   H285  285   2.313   6.102   6.623  0.6193  0.9219  2.7315
    1MOL   H286  286   2.399   6.211   6.510 -1.5039 -1.2090 -0.1927
    1MOL   C287  287   2.389   6.463   6.973  0.0499 -1.0668 -0.3525
    1MOL   C288  288   2.474   6.572   7.044  0.3672 -0.0371  0.5194
    1MOL   C289  289   2.374   6.686   7.085  0.6316  0.1812  0.5336
    1MOL   C290  290   2.250   6.656   6.999 -0.0543 -0.8474 -1.1701
    1MOL   C291  291   2.184   6.776   6.933  0.2546 -0.0391 -0.8317
    1MOL   C292  292   2.130   6.883   7.030  0.0708 -0.8946 -0.1880
    1MOL   C293  293   2.290   6.549   6.895  0.1903 -0.9615 -0.1656
    1MOL   H294  294   2.329   6.415   7.050 -1.2140 -1.0578 -1.3149
    1MOL   H295  295   2.534   6.533   7.127  0.0387  1.1024  1.3096
    1MOL   H296  296   2.540   6.615   6.969 -2.0922 -2.4776 -3.2084
    1MOL   H297  297   2.417   6.784   7.067  0.1056  0.3399  0.1389
    1MOL   H298  298   2.340   6.673   7.188  2.1111  0.5377  1.0709
    1MOL   H299  299   2.177   6.609   7.064  2.1867  0.5915  2.5284
    1MOL   H300  300   2.101   6.735   6.876 -1.1616  0.6994  0.6843
    1MOL   H301  301   2.263   6.816   6.869 -0.2857  1.7345 -0.4229
    1MOL   H302  302   2.196   6.904   7.114  0.4959  1.0935 -0.9849
    1MOL   H303  303   2.040   6.840   7.074 -1.7308  1.9802 -0.9815
    1MOL   H304  304   2.339   6.604   6.814 -0.0211 -0.0344  0.3228
    1MOL   H305  305   2.203   6.504   6.848 -1.7993  1.7704  0.7693
    1MOL   C306  306   2.093   7.017   6.955  0.0616  0.6005  0.1062
    1MOL   C307  307   1.999   7.097   7.040 -0.1202 -0.2700  0.1487
    1MOL   C308  308   2.007   7.247   6.998  0.1998 -0.4151  0.7030
    1MOL   C309  309   2.133   7.259   6.921 -0.2256 -0.3398 -0.1697
    1MOL   C310  310   2.219   7.380   6.969  0.5342 -0.2373 -0.2469
    1MOL   C311  311   2.337   7.401   6.874  0.1405  0.6164 -0.9277
    1MOL   C312  312   2.200   7.121   6.942  0.0035  0.0898 -0.5561
    1MOL   H313  313   2.045   6.994   6.859  0.9353 -0.0179 -0.1877
    1MOL   H314  314   1.898   7.059   7.023 -0.2514  0.4747 -0.7827
    1MOL   H315  315   2.025   7.078   7.144 -0.0916 -1.9702 -0.1700
    1MOL   H316  316   1.929   7.263   6.923  0.1978 -0.3528  0.7189
    1MOL   H317  317   1.989   7.321   7.076  0.5512  1.2184 -0.7272
    1MOL   H318  318   2.113   7.276   6.815 -1.6856 -1.9622 -0.1738
    1MOL   H319  319   2.159   7.470   6.956  0.6434  0.1408  1.8235
    1MOL   H320  320   2.240   7.369   7.075 -0.3707  1.7189  0.1444
    1MOL   H321  321   2.298   7.427   6.775 -0.9016  2.7532  0.0099
    1MOL   H322  322   2.396   7.312   6.855  1.3350  1.1589  0.1898
    1MOL   H323  323   2.251   7.128   7.038 -0.0783 -0.0082 -0.5057
    1MOL   H324  324   2.274   7.094   6.867  0.3936  4.3391 -1.8341
    1MOL   C325  325   2.433   7.516   6.917  0.4456 -0.2741 -0.1921
    1MOL   C326  326   2.502   7.499   7.053  0.3177 -0.1774 -0.2468
    1MOL   C327  327   2.647   7.535   7.041  0.4617  0.0367  0.3393
    1MOL   C328  328   2.679   7.491   6.895  0.1453  0.3885 -0.6631
    1MOL   C329  329   2.816   7.534   6.850  0.0145  0.1222  0.3926
    1MOL   C330  330   2.861   7.470   6.723  0.4108 -0.2125 -0.0696
    1MOL   C331  331   2.552   7.533   6.816 -0.1425 -0.8478 -0.2049
    1MOL   H332  332   2.382   7.612   6.923  0.1124 -0.3736 -1.2572
    1MOL   H333  333   2.485   7.395   7.083 -0.0172  0.0181  0.2447
    1MOL   H334  334   2.457   7.553   7.136  2.4728  0.2127  0.6992
    1MOL   H335  335   2.656   7.643   7.054 -3.4948  0.2863  1.6410
    1MOL   H336  336   2.713   7.482   7.110 -0.5944 -0.6746  0.8101
    1MOL   H337  337   2.674   7.384   6.874 -0.0921 -0.1700  2.0823
    1MOL   H338  338   2.817   7.643   6.838  1.1910 -0.2034 -3.3255
    1MOL   H339  339   2.895   7.503   6.918  0.9497  3.0077  0.7195
    1MOL   H340  340   2.885   7.366   6.744  0.2309 -0.5705 -1.5377
    1MOL   H341  341   2.780   7.446   6.653 -1.2446 -0.8657  2.0257
    1MOL   H342  342   2.547   7.484   6.719  0.8414  0.3211 -0.8498
    1MOL   H343  343   2.575   7.637   6.794  1.6171 -1.1802 -0.0312
    1MOL   C344  344   2.986   7.540   6.670  0.1075 -0.0108  0.1403
    1MOL   C345  345   3.019   7.502   6.529  0.6169 -1.0991  0.4919
    1MOL   C346  346   3.173   7.491   6.527 -0.4030  0.3708 -0.6873
    1MOL   C347  347   3.209   7.427   6.660 -0.5788 -0.0621 -0.0404
    1MOL   C348  348   3.360   7.448   6.702 -1.1553  0.2064 -0.0206
    1MOL   C349  349   3.451   7.372   6.605 -0.6048  0.6154 -0.0405
    1MOL   C350  350   3.115   7.503   6.755  0.0088 -0.1405  0.1663
    1MOL   H351  351   2.981   0.001   6.667  0.9426  0.1309  2.6720
    1MOL   H352  352   2.982   7.570   6.452 -0.1992 -1.3332  0.6721
    1MOL   H353  353   2.983   7.400   6.510 -0.8040 -0.4907 -0.1422
    1MOL   H354  354   3.209   7.432   6.443  1.2735  0.8913 -0.3560
    1MOL   H355  355   3.219   7.587   6.506 -0.2009  0.1886 -1.0839
    1MOL   H356  356   3.193   7.319   6.659  2.5523 -0.5990  0.4745
    1MOL   H357  357   3.381   7.555   6.703 -2.0152  0.3822 -0.4828
    1MOL   H358  358   3.370   7.422   6.807 -0.9424  1.8020  0.3678
    1MOL   H359  359   3.447   7.404   6.501  1.1457 -1.7584 -0.8860
    1MOL   H360  360   3.417   7.269   6.599 -1.7748  0.9268  1.0139
    1MOL   H361  361   3.089   7.433   6.835 -1.1850 -0.7681 -0.7610
    1MOL   H362  362   3.155   7.592   6.803  0.4569  0.7249 -1.7692
    1MOL   C363  363   3.604   7.385   6.656  0.3390 -0.0191  0.5770
    1MOL   C364  364   3.673   7.505   6.596 -0.4793 -0.4979  0.3559
    1MOL   C365  365   3.820   7.487   6.622  0.3560  0.2823 -0.0530
    1MOL   C366  366   3.837   7.339   6.642 -1.0636  0.1568  0.0146
    1MOL   C367  367   3.939   7.261   6.559 -0.3742  0.3343 -0.1416
    1MOL   C368  368   4.084   7.277   6.598 -0.0122  0.8151 -0.8938
    1MOL   C369  369   3.697   7.273   6.614 -0.2949  0.4852 -0.5417
    1MOL   H370  370   3.616   7.375   6.764  0.6916 -2.7539  0.3363
    1MOL   H371  371   3.658   7.515   6.489 -1.6388 -3.4326  0.1814
    1MOL   H372  372   3.649   7.601   6.642  1.9257  0.4051 -0.2462
    1MOL   H373  373   3.883   7.523   6.540  1.0438 -0.6423  0.0613
    1MOL   H374  374   3.851   7.534   6.715 -0.4166  2.1444 -0.7226
    1MOL   H375  375   3.858   7.325   6.748 -1.3241  1.5108  0.2589
    1MOL   H376  376   3.917   7.155   6.549 -1.0204  0.6989 -2.8380
    1MOL   H377  377   3.927   7.296   6.457  1.1849  2.1818  0.2767
    1MOL   H378  378   4.126   7.370   6.559  1.0302  0.7951  0.1573
    1MOL   H379  379   4.142   7.191   6.563  1.1481  0.6819  1.2761
    1MOL   H380  380   3.680   7.244   6.511 -0.0656 -1.1574 -0.1270
    1MOL   H381  381   3.687   7.175   6.661  0.5320 -0.5059 -2.3993
    1MOL   H382  382   4.104   7.277   6.705 -2.8918 -0.4926 -0.3187
    2MOL     C1  383   0.250   5.878   6.938 -0.3719 -0.4700 -0.1591
    2MOL     C2  384   0.360   5.982   6.940  0.5121 -0.2705  0.0114
    2MOL     C3  385   0.485   5.895   6.924 -0.1143 -0.0223 -0.8423
    2MOL     C4  386   0.445   5.772   6.850  0.3212  0.4882 -0.4727
    2MOL     C5  387   0.539   5.656   6.871 -0.4314  0.5207 -0.0272
    2MOL     C6  388   0.515   5.535   6.776 -0.2200 -0.5458  0.5137
    2MOL     C7  389   0.304   5.741   6.891 -0.3954  0.0017 -0.3662
    2MOL     H8  390   0.207   5.864   7.037  0.7037 -4.9090 -0.2183
    2MOL     H9  391   0.345   6.029   7.038 -0.0412 -0.8847  0.2214
    2MOL    H10  392   0.366   6.066   6.871  0.4144 -1.2451 -1.1888
    2MOL    H11  393   0.573   5.938   6.875  0.3059 -0.8565 -0.8275
    2MOL    H12  394   0.523   5.871   7.024  1.0794  0.7965 -1.0808
    2MOL    H13  395   0.451   5.808   6.747 -0.4438  1.3242 -0.2313
    2MOL    H14  396   0.641   5.687   6.846 -0.1363 -2.3464 -2.6794
    2MOL    H15  397   0.536   5.614   6.971 -2.8246 -1.2650 -0.8023
    2MOL    H16  398   0.566   5.445   6.810  0.0297 -0.3927  0.5450
    2MOL    H17  399   0.411   5.505   6.793  0.2031 -1.8301  0.9020
    2MOL    H18  400   0.241   5.700   6.812 -0.4508 -2.9660  1.1468
    2MOL    H19  401   0.305   5.673   6.976 -0.3625 -2.1905 -2.0774
    2MOL    H20  402   0.163   5.896   6.875  0.1109 -2.0750 -1.3123
    2MOL    C21  403   0.534   5.559   6.627  0.1710 -0.5103 -0.4704
    2MOL    C22  404   0.676   5.608   6.590  0.0927 -0.6341 -0.6305
    2MOL    C23  405   0.711   5.532   6.462 -1.5520 -0.6138 -0.3942
    2MOL    C24  406   0.581   5.466   6.416  0.1945 -0.7240 -0.7216
    2MOL    C25  407   0.616   5.338   6.340 -0.5556  0.3814  0.1380
    2MOL    C26  408   0.532   5.318   6.210  0.1533 -0.0902 -0.2874
    2MOL    C27  409   0.504   5.434   6.548 -0.1172  0.8042 -0.2892
    2MOL    H28  410   0.467   5.638   6.595 -0.1272 -1.0994 -1.3206
    2MOL    H29  411   0.679   5.717   6.589  0.6446 -0.6450 -0.4662
    2MOL    H30  412   0.737   5.581   6.676  0.2551 -0.2671 -0.6277
    2MOL    H31  413   0.752   5.594   6.382  0.3684 -0.8819  0.3610
    2MOL    H32  414   0.795   5.466   6.478 -2.0124 -0.8354  1.1715
    2MOL    H33  415   0.531   5.529   6.343  1.9785  0.3652 -1.0420
    2MOL    H34  416   0.593   5.245   6.392 -0.5736 -0.4020 -1.2472
    2MOL    H35  417   0.721   5.339   6.311 -0.1492  0.4277  1.5628
    2MOL    H36  418   0.578   5.375   6.130 -3.0443 -0.3695 -2.4197
    2MOL    H37  419   0.426   5.345   6.204  0.5262  1.5030  0.1191
    2MOL    H38  420   0.400   5.409   6.530 -0.4464  1.6232  0.4314
    2MOL    H39  421   0.554   5.347   6.590  0.9400  1.4058 -0.2823
    2MOL    C40  422   0.542   5.177   6.141 -0.0280 -0.6490  0.0453
    2MOL    C41  423   0.459   5.070   6.208 -0.1855  0.2826  0.9709
    2MOL    C42  424   0.326   5.070   6.138 -0.0692 -0.2161  0.1312
    2MOL    C43  425   0.338   5.169   6.020  0.0613 -0.4469  0.2257
    2MOL    C44  426   0.263   5.118   5.898 -0.4036  0.1225  0.7135
    2MOL    C45  427   0.111   5.095   5.919 -1.0241  0.1214 -0.6227
    2MOL    C46  428   0.485   5.183   5.999 -0.2292 -0.6488  0.0647
    2MOL    H47  429   0.647   5.147   6.135  0.5594  0.4298  3.8925
    2MOL    H48  430   0.449   5.080   6.316 -2.1152  0.2983  0.7906
    2MOL    H49  431   0.520   4.983   6.182  0.0494  0.3059  1.4364
    2MOL    H50  432   0.312   4.966   6.110  2.3062 -0.6560  0.4963
    2MOL    H51  433   0.248   5.096   6.210 -1.4215  0.5263 -1.5599
    2MOL    H52  434   0.301   5.269   6.044 -0.5890 -0.5872 -0.1597
    2MOL    H53  435   0.287   5.195   5.825  0.7470 -1.2776 -0.4406
    2MOL    H54  436   0.307   5.027   5.856 -1.2767  0.8268 -1.8114
    2MOL    H55  437   0.061   5.170   5.980 -1.1284  0.0823 -0.6600
    2MOL    H56  438   0.100   5.007   5.982  3.7406  0.9152  1.5294
    2MOL    H57  439   0.525   5.100   5.941  0.6041  0.9038 -1.6157
    2MOL    H58  440   0.507   5.266   5.933 -1.2868 -1.6678 -1.6169
    2MOL    C59  441   0.033   5.074   5.794 -0.7853 -0.3432 -0.8766
    2MOL    C60  442   0.062   4.933   5.735  0.0364 -0.7540  0.3213
    2MOL    C61  443   7.590   4.846   5.774  0.0831  0.6651 -0.6273
    2MOL    C62  444   7.491   4.930   5.854 -0.0029 -0.1207  0.2600
    2MOL    C63  445   7.345   4.896   5.819 -0.0203 -0.3973 -0.1792
    2MOL    C64  446   7.249   4.984   5.904 -0.1757  1.2211 -0.3696
    2MOL    C65  447   7.530   5.075   5.820  0.3867 -0.3399 -0.2913
    2MOL    H66  448   0.073   5.148   5.725  0.4501  0.9490  1.1651
    2MOL    H67  449   0.070   4.947   5.627  2.6093  0.5844  0.6508
    2MOL    H68  450   0.160   4.894   5.763 -0.2002 -0.4912  1.5269
    2MOL    H69  451   7.540   4.814   5.683  0.4609  2.2006 -1.3965
    2MOL    H70  452   7.609   4.758   5.836 -0.2193  1.0608  0.0379
    2MOL    H71  453   7.502   4.913   5.961 -1.8645 -1.3794  0.2703
    2MOL    H72  454   7.325   4.792   5.845 -0.7731  0.2551  1.9567
    2MOL    H73  455   7.320   4.898   5.713  0.6770 -1.1183 -0.3650
    2MOL    H74  456   7.292   5.005   6.001  1.7320  1.4185 -1.2356
    2MOL    H75  457   7.243   5.082   5.856  2.8949  1.5030 -0.2676
    2MOL    H76  458   7.482   5.118   5.731  0.6129  1.8875  0.6257
    2MOL    H77  459   7.506   5.148   5.898  3.5614  0.0256  0.4082
    2MOL    C78  460   7.105   4.925   5.916 -0.5814 -0.7825  0.5634
    2MOL    C79  461   7.014   4.987   6.025 -0.6982 -0.0272 -0.3394
    2MOL    C80  462   6.874   4.986   5.974 -0.3456 -0.4989 -0.4049
    2MOL    C81  463   6.873   4.920   5.834 -0.1293 -0.3938 -0.2038
    2MOL    C82  464   6.765   4.981   5.742  0.4314  0.2504 -0.1551
    2MOL    C83  465   6.769   4.944   5.593  0.1802  0.1126 -0.8310
    2MOL    C84  466   7.018   4.950   5.787 -0.0628 -0.4554  0.2306
    2MOL    H85  467   7.112   4.818   5.936 -0.5599 -0.6467  1.3179
    2MOL    H86  468   7.015   4.934   6.120 -0.4068 -0.5119 -0.6124
    2MOL    H87  469   7.045   5.088   6.053 -0.6189 -0.0745 -0.2529
    2MOL    H88  470   6.806   4.931   6.038  2.4470 -3.4984  0.1445
    2MOL    H89  471   6.837   5.087   5.962  2.9375  0.6766 -1.1934
    2MOL    H90  472   6.859   4.812   5.836 -1.8352 -0.2590 -2.2929
    2MOL    H91  473   6.751   5.089   5.754 -0.5450 -0.0545  1.6784
    2MOL    H92  474   6.668   4.944   5.775  0.7920 -1.2793 -0.7761
    2MOL    H93  475   6.792   4.838   5.576 -1.3429 -0.7123  1.8968
    2MOL    H94  476   6.858   4.998   5.561 -0.1133  2.4048  2.0625
    2MOL    H95  477   7.019   5.056   5.759  1.5577 -0.1319  1.4266
    2MOL    H96  478   7.054   4.885   5.708 -1.4399 -3.0875  1.7245
    2MOL    C97  479   6.641   4.999   5.517  0.4411  0.6552  0.3404
    2MOL    C98  480   6.518   4.916   5.544  0.1160 -0.0946 -0.1250
    2MOL    C99  481   6.470   4.875   5.401  0.0595 -0.2230  0.4119
    2MOL   C100  482   6.532   4.978   5.300 -0.5793  0.7029  0.2619
    2MOL   C101  483   6.545   4.946   5.152  0.0979  0.9060 -0.3027
    2MOL   C102  484   6.578   5.063   5.054  0.6892  0.6932  0.7819
    2MOL   C103  485   6.663   5.000   5.362 -0.2454  0.3520 -0.9198
    2MOL   H104  486   6.607   5.099   5.544 -0.9513  0.9684 -2.4189
    2MOL   H105  487   6.536   4.835   5.615 -2.6269 -0.1820  0.5284
    2MOL   H106  488   6.435   4.973   5.586 -0.1076 -1.2061  0.9809
    2MOL   H107  489   6.496   4.770   5.387 -0.8882 -0.4548  0.3496
    2MOL   H108  490   6.361   4.884   5.399  0.0274 -0.4274  1.1063
    2MOL   H109  491   6.464   5.062   5.317 -2.5292 -1.0241  1.2016
    2MOL   H110  492   6.610   4.861   5.135 -1.7059 -0.1728 -1.9748
    2MOL   H111  493   6.448   4.907   5.120 -1.6897  2.5219  2.7820
    2MOL   H112  494   6.530   5.049   4.957  0.4666  0.5992  0.9028
    2MOL   H113  495   6.533   5.153   5.096 -2.0929  0.5758 -1.7643
    2MOL   H114  496   6.739   4.926   5.338 -0.7208  0.3212 -2.3669
    2MOL   H115  497   6.696   5.102   5.342  3.0464 -0.7781 -1.6042
    2MOL   C116  498   6.725   5.074   5.014 -0.4043  0.2097 -0.0106
    2MOL   C117  499   6.765   4.965   4.917  0.5484 -0.0883  0.7134
    2MOL   C118  500   6.732   5.020   4.776  0.4960 -0.1938 -0.0673
    2MOL   C119  501   6.769   5.167   4.784  0.0401  0.3502  0.0410
    2MOL   C120  502   6.689   5.252   4.679 -0.6357 -0.1031  0.3527
    2MOL   C121  503   6.760   5.389   4.645 -0.2474 -0.1492  0.6958
    2MOL   C122  504   6.742   5.207   4.932 -0.0812  0.5220 -0.3975
    2MOL   H123  505   6.788   5.069   5.102 -0.7625 -0.6335  0.1993
    2MOL   H124  506   6.712   4.871   4.934  2.1179 -1.0211  0.5680
    2MOL   H125  507   6.870   4.940   4.933  0.8438 -1.9643 -3.5704
    2MOL   H126  508   6.630   5.002   4.744  0.4430 -1.6583  0.8805
    2MOL   H127  509   6.794   4.980   4.696 -0.5572 -4.4260  1.0782
    2MOL   H128  510   6.875   5.184   4.767  0.5250 -1.8038  0.6721
    2MOL   H129  511   6.587   5.264   4.714 -0.1798  3.0924  0.7163
    2MOL   H130  512   6.692   5.196   4.586  0.8949  1.2138 -0.4335
    2MOL   H131  513   6.850   5.374   4.585  0.1397  0.8515  1.0175
    2MOL   H132  514   6.809   5.444   4.725 -0.1810 -3.1282  2.7716
    2MOL   H133  515   6.826   5.265   4.971 -0.4810  0.0236  1.2221
    2MOL   H134  516   6.648   5.262   4.931 -0.8562 -0.7465 -3.2585
    2MOL   C135  517   6.667   5.476   4.564 -0.5859 -0.7109 -0.0111
    2MOL   C136  518   6.716   5.621   4.539 -0.8250 -0.1637 -0.3955
    2MOL   C137  519   6.615   5.660   4.429  0.6823 -0.1811  0.3869
    2MOL   C138  520   6.601   5.537   4.341  1.1809  0.7361 -0.6360
    2MOL   C139  521   6.466   5.526   4.272 -0.0493  0.3458  0.0405
    2MOL   C140  522   6.425   5.645   4.189 -0.0681 -0.5054  0.0313
    2MOL   C141  523   6.626   5.415   4.423  0.1828  0.0808 -0.4138
    2MOL   H142  524   6.580   5.480   4.629 -0.4068 -1.7252  0.3061
    2MOL   H143  525   6.707   5.683   4.628 -1.6420  0.1402 -0.6887
    2MOL   H144  526   6.817   5.629   4.502 -0.3396 -0.4553  0.8193
    2MOL   H145  527   6.524   5.701   4.472 -0.0031 -1.0903 -0.1797
    2MOL   H146  528   6.651   5.738   4.362 -0.9755  1.0761  0.9372
    2MOL   H147  529   6.677   5.525   4.264  1.1481 -1.0148 -0.4148
    2MOL   H148  530   6.388   5.521   4.349  0.5813 -1.1851  0.6112
    2MOL   H149  531   6.461   5.433   4.215 -2.0169  1.7887 -2.2355
    2MOL   H150  532   6.429   5.734   4.252  2.5345 -1.8943  1.9225
    2MOL   H151  533   6.495   5.666   4.108  0.1880 -0.8479  0.1682
    2MOL   H152  534   6.711   5.365   4.377 -0.1297  0.3485 -1.2943
    2MOL   H153  535   6.538   5.353   4.441  0.9313 -0.1648  2.6853
    2MOL   C154  536   6.283   5.631   4.134 -0.2691  0.3415  0.5484
    2MOL   C155  537   6.240   5.757   4.058  0.5364 -0.9251 -0.6129
    2MOL   C156  538   6.093   5.749   4.059  0.7225  0.1599 -0.4229
    2MOL   C157  539   6.050   5.692   4.193 -0.7337  0.2633  0.5683
    2MOL   C158  540   6.023   5.792   4.296 -0.4853  0.9789 -0.1271
    2MOL   C159  541   5.886   5.853   4.300  0.3352 -0.6075 -0.5006
    2MOL   C160  542   6.171   5.608   4.235 -0.1462  0.4562 -0.1358
    2MOL   H161  543   6.287   5.535   4.082 -4.2610 -0.2483  1.2176
    2MOL   H162  544   6.280   5.841   4.114 -1.5195 -0.6157  0.4485
    2MOL   H163  545   6.276   5.767   3.956  0.1002  2.4434 -0.4680
    2MOL   H164  546   6.042   5.844   4.045 -1.1944 -0.3973  2.4226
    2MOL   H165  547   6.066   5.674   3.984 -1.3703  1.4275 -0.9800
    2MOL   H166  548   5.958   5.636   4.177  0.4864 -1.3637 -1.0401
    2MOL   H167  549   6.099   5.869   4.310  0.2720  0.5378 -1.6636
    2MOL   H168  550   6.029   5.744   4.393 -0.6101  0.8999 -0.1601
    2MOL   H169  551   5.872   5.933   4.227  0.6056 -0.2881 -0.1994
    2MOL   H170  552   5.813   5.777   4.272 -0.2911  0.7600 -2.7693
    2MOL   H171  553   6.151   5.501   4.243  3.5370 -0.1854  1.4758
    2MOL   H172  554   6.209   5.631   4.334 -1.7386  1.1716  0.3363
    2MOL   C173  555   5.840   5.890   4.438 -0.3604  0.7040  0.3491
    2MOL   C174  556   5.919   6.023   4.490 -0.7188  0.6978 -0.2216
    2MOL   C175  557   5.813   6.107   4.565  0.7014 -0.3010 -0.2587
    2MOL   C176  558   5.681   6.032   4.569 -0.4767  0.6725  0.4821
    2MOL   C177  559   5.553   6.117   4.553 -0.5807 -0.3676  0.0517
    2MOL   C178  560   5.531   6.223   4.660  0.3793 -0.4846  0.2997
    2MOL   C179  561   5.701   5.938   4.443  0.3463 -0.3041  0.3305
    2MOL   H180  562   5.847   5.806   4.507 -1.0511 -0.9092 -1.5031
    2MOL   H181  563   5.955   6.093   4.414  1.8637 -0.2240  0.1078
    2MOL   H182  564   5.997   5.995   4.560 -1.7541 -3.8544 -0.7773
    2MOL   H183  565   5.832   6.115   4.672 -0.6718 -0.9713  0.0418
    2MOL   H184  566   5.802   6.213   4.540  2.3072  0.4311  1.9914
    2MOL   H185  567   5.675   5.969   4.658 -0.8992  1.2127  0.8381
    2MOL   H186  568   5.465   6.053   4.561 -1.0276  0.2550  0.1831
    2MOL   H187  569   5.553   6.173   4.460 -0.1164  1.4018  1.0985
    2MOL   H188  570   5.461   6.296   4.620  0.7830  1.8098  3.5615
    2MOL   H189  571   5.621   6.283   4.672  1.8229 -2.8660  2.0171
    2MOL   H190  572   5.680   5.988   4.349 -2.6838 -0.7229  0.7473
    2MOL   H191  573   5.641   5.847   4.443 -2.9100  1.7557  0.8259
    2MOL   C192  574   5.488   6.158   4.796  0.0060 -0.1060  0.5085
    2MOL   C193  575   5.402   6.245   4.880 -0.2476 -0.0134  0.4306
    2MOL   C194  576   5.412   6.168   5.019 -0.0207  0.1007  0.0438
    2MOL   C195  577   5.561   6.122   5.026 -0.0712  0.2971 -0.2644
    2MOL   C196  578   5.592   5.991   5.106 -0.3438  0.6897  0.2975
    2MOL   C197  579   5.567   6.014   5.262  0.3734  0.2706 -0.0604
    2MOL   C198  580   5.613   6.118   4.886 -0.6915 -0.4952  0.1888
    2MOL   H199  581   5.433   6.065   4.786 -0.0504  0.0403 -0.5877
    2MOL   H200  582   5.436   6.349   4.880  0.3339 -0.1936 -0.3243
    2MOL   H201  583   5.302   6.254   4.839 -0.0633 -4.6955 -1.4183
    2MOL   H202  584   5.338   6.089   5.012 -0.6539  0.9126 -3.3238
    2MOL   H203  585   5.386   6.244   5.093  0.2029  0.0047  0.2217
    2MOL   H204  586   5.605   6.211   5.073  2.3126 -0.1948 -1.4659
    2MOL   H205  587   5.692   5.958   5.077 -0.6929  1.7430 -2.2102
    2MOL   H206  588   5.531   5.908   5.068  1.8754 -1.4529  1.2960
    2MOL   H207  589   5.472   6.062   5.283  0.7872  1.5497 -1.0828
    2MOL   H208  590   5.641   6.086   5.296 -0.8288  1.0605  0.9069
    2MOL   H209  591   5.660   6.023   4.859 -0.6867  0.0413 -1.7698
    2MOL   H210  592   5.697   6.184   4.866 -1.0347 -0.2172 -0.3239
    2MOL   C211  593   5.576   5.881   5.341 -0.0877 -0.0976 -0.1836
    2MOL   C212  594   5.448   5.793   5.323 -0.2543  0.3720 -0.4208
    2MOL   C213  595   5.387   5.794   5.464 -0.3173 -0.2030 -0.0290
    2MOL   C214  596   5.509   5.815   5.555  0.0704 -0.2069 -0.1667
    2MOL   C215  597   5.481   5.837   5.708 -0.1066 -0.3938  0.5285
    2MOL   C216  598   5.402   5.725   5.772 -0.4737  0.2445  0.2057
    2MOL   C217  599   5.594   5.918   5.483  0.0607  0.1665  0.1515
    2MOL   H218  600   5.658   5.816   5.309 -0.0863  0.1078 -0.6061
    2MOL   H219  601   5.374   5.823   5.250 -1.0652  0.0596  0.2646
    2MOL   H220  602   5.481   5.695   5.290 -0.4429  0.3642 -0.5883
    2MOL   H221  603   5.320   5.875   5.491  0.2726 -0.3198  1.8428
    2MOL   H222  604   5.336   5.698   5.474 -1.8945  0.6701  0.3678
    2MOL   H223  605   5.552   5.715   5.550  1.4900  0.4272 -0.7453
    2MOL   H224  606   5.426   5.930   5.723 -0.7778 -1.3524  4.8208
    2MOL   H225  607   5.575   5.852   5.760  0.3826 -0.9120 -0.2112
    2MOL   H226  608   5.312   5.698   5.717 -0.5403  2.2140 -0.6624
    2MOL   H227  609   5.469   5.639   5.770  0.0500  0.6317  0.7677
    2MOL   H228  610   5.701   5.915   5.504  0.5190 -1.2952 -2.2738
    2MOL   H229  611   5.564   6.021   5.502  0.3133  0.3929 -0.6542
    2MOL   C230  612   5.368   5.749   5.924 -0.1732  0.3769 -0.5894
    2MOL   C231  613   5.278   5.865   5.956 -0.3760 -0.6013  0.4589
    2MOL   C232  614   5.352   5.956   6.057  0.0972  0.3384  0.7138
    2MOL   C233  615   5.491   5.916   6.067 -0.1152 -0.3395  0.2468
    2MOL   C234  616   5.552   5.943   6.204 -0.1408 -0.1469 -0.8474
    2MOL   C235  617   5.695   5.904   6.209 -0.5157  1.1708 -0.4134
    2MOL   C236  618   5.491   5.771   6.018  0.0567 -0.6670  0.3549
    2MOL   H237  619   5.319   5.658   5.957 -1.3637  1.6602  1.3378
    2MOL   H238  620   5.269   5.917   5.861  0.2532  0.3240  0.8925
    2MOL   H239  621   5.174   5.842   5.979  0.7969 -3.6007  3.1453
    2MOL   H240  622   5.290   5.946   6.146 -0.2070  0.4326  0.5134
    2MOL   H241  623   5.333   6.054   6.012  0.3720 -0.3260 -0.8609
    2MOL   H242  624   5.555   5.969   5.996  2.4178 -0.3470  2.4029
    2MOL   H243  625   5.502   5.891   6.286  0.6599  2.4972  1.4294
    2MOL   H244  626   5.542   6.041   6.251  2.0579  0.2472 -1.1621
    2MOL   H245  627   5.701   5.802   6.172  1.7484  0.9327  0.5507
    2MOL   H246  628   5.749   5.959   6.131  0.8359 -0.0466 -0.3536
    2MOL   H247  629   5.481   5.706   6.105 -1.0829 -1.6296 -0.4759
    2MOL   H248  630   5.579   5.752   5.956 -0.1490  2.3068 -0.9407
    2MOL   C249  631   5.765   5.916   6.341 -0.1468  0.4861 -0.1190
    2MOL   C250  632   5.900   5.840   6.338  0.8509 -0.4921 -1.0416
    2MOL   C251  633   5.999   5.918   6.420 -0.4120  0.0206 -0.4434
    2MOL   C252  634   5.924   6.042   6.471  0.4878  0.4542  0.0122
    2MOL   C253  635   5.889   6.038   6.621 -0.2320 -0.4622  0.2977
    2MOL   C254  636   5.850   6.168   6.690 -0.2667 -0.0397 -0.1714
    2MOL   C255  637   5.805   6.055   6.381  0.2635 -0.0703 -0.3019
    2MOL   H256  638   5.716   5.864   6.423  0.0427  0.0887 -0.2518
    2MOL   H257  639   5.883   5.740   6.377  0.0495 -0.1414 -0.4860
    2MOL   H258  640   5.932   5.838   6.234  2.0298  1.4516 -0.7581
    2MOL   H259  641   6.075   5.963   6.355 -1.1689  0.8726 -0.7345
    2MOL   H260  642   6.050   5.853   6.491  0.4122  1.3763  0.2210
    2MOL   H261  643   5.991   6.128   6.471  0.9474  0.1248 -1.9811
    2MOL   H262  644   5.966   5.982   6.673  0.3288 -0.6668 -0.7462
    2MOL   H263  645   5.807   5.967   6.637 -0.3863 -0.4761 -0.5313
    2MOL   H264  646   5.765   6.206   6.633  0.9673 -0.5251 -2.3902
    2MOL   H265  647   5.937   6.233   6.691 -0.7781  0.6634 -1.3746
    2MOL   H266  648   5.820   6.119   6.294  0.2761  1.1745  0.5942
    2MOL   H267  649   5.721   6.099   6.435  0.7264 -1.4704  1.6434
    2MOL   C268  650   5.805   6.147   6.830  0.0509  0.0106 -0.2877
    2MOL   C269  651   5.669   6.073   6.853  0.2807  0.8957  0.2221
    2MOL   C270  652   5.612   6.117   6.987  0.5211 -0.5439 -0.7146
    2MOL   C271  653   5.702   6.250   7.022  0.1050  0.1967 -0.0886
    2MOL   C272  654   5.624   6.369   7.072  0.4063 -0.5731  0.1318
    2MOL   C273  655   5.718   6.479   7.120  0.6346  0.6069 -0.0458
    2MOL   C274  656   5.785   6.281   6.899 -0.0222  0.1895  0.2905
    2MOL   H275  657   5.880   6.093   6.888  0.5775  0.3424 -0.6582
    2MOL   H276  658   5.598   6.085   6.771  0.3773 -0.8947 -0.1506
    2MOL   H277  659   5.695   5.968   6.861  0.2872  0.7853 -1.0304
    2MOL   H278  660   5.507   6.138   7.003  1.4081  2.3610  1.9105
    2MOL   H279  661   5.638   6.044   7.063  0.3290 -0.6544 -0.7548
    2MOL   H280  662   5.775   6.234   7.102 -0.0299  0.0973  0.0141
    2MOL   H281  663   5.554   6.351   7.154  0.7634 -0.1992  0.5221
    2MOL   H282  664   5.562   6.411   6.993  1.8768  3.3531  0.9629
    2MOL   H283  665   5.791   6.438   7.190  1.4786  1.7895 -0.2127
    2MOL   H284  666   5.777   6.520   7.038 -1.5063  0.3913 -1.7335
    2MOL   H285  667   5.735   6.347   6.828  1.9180  2.5604  1.0547
    2MOL   H286  668   5.877   6.329   6.934  0.3373 -0.2915  0.0130
    2MOL   C287  669   5.660   6.592   7.196  0.6372  0.3352 -1.2141
    2MOL   C288  670   5.758   6.700   7.236  0.4959 -0.2367 -0.3574
    2MOL   C289  671   5.656   6.809   7.277 -0.9645  0.3086 -0.0723
    2MOL   C290  672   5.554   6.819   7.154 -0.0260  0.6747  0.3942
    2MOL   C291  673   5.584   6.909   7.035  0.2270 -0.2347 -0.7800
    2MOL   C292  674   5.599   7.059   7.058  0.3132 -1.0628 -0.0704
    2MOL   C293  675   5.555   6.671   7.109  0.1749  0.4321 -0.0349
    2MOL   H294  676   5.613   6.556   7.287  0.8405 -1.1948 -1.7009
    2MOL   H295  677   5.827   6.666   7.313 -0.2057 -1.4216 -0.2369
    2MOL   H296  678   5.833   6.730   7.163 -0.9874  1.1082 -1.3573
    2MOL   H297  679   5.709   6.901   7.302  0.8890 -0.4276 -1.1763
    2MOL   H298  680   5.598   6.796   7.368  1.9148  2.1365  2.0974
    2MOL   H299  681   5.459   6.847   7.199 -0.6954 -2.9362  1.3673
    2MOL   H300  682   5.498   6.915   6.969 -0.1200  1.4979 -0.1957
    2MOL   H301  683   5.672   6.869   6.984  1.6571  0.1850  1.2956
    2MOL   H302  684   5.671   7.073   7.139  2.1972  1.6827 -2.1598
    2MOL   H303  685   5.509   7.109   7.095  0.5817  0.2050 -1.1010
    2MOL   H304  686   5.575   6.661   7.002 -0.0763  0.3390 -0.0721
    2MOL   H305  687   5.458   6.622   7.114  0.9008 -0.8200  3.2269
    2MOL   C306  688   5.652   7.151   6.939 -0.7222  0.1809  0.2071
    2MOL   C307  689   5.536   7.193   6.853  0.1931  0.7045 -0.0899
    2MOL   C308  690   5.587   7.327   6.782  0.0172 -0.3744  0.1819
    2MOL   C309  691   5.718   7.372   6.849 -0.5202 -0.2700  0.7466
    2MOL   C310  692   5.720   7.519   6.886 -0.0366 -0.0379 -0.4301
    2MOL   C311  693   5.682   7.618   6.780  0.1299  0.1753  0.0215
    2MOL   C312  694   5.725   7.273   6.972 -0.2469 -0.3286 -0.0445
    2MOL   H313  695   5.731   7.098   6.887 -1.2109 -1.3074  0.9261
    2MOL   H314  696   5.512   7.118   6.778 -2.6445 -0.5195  1.9660
    2MOL   H315  697   5.442   7.204   6.907 -0.7841 -0.3559 -1.5494
    2MOL   H316  698   5.602   7.298   6.678  1.7136 -2.8523  1.0650
    2MOL   H317  699   5.507   7.401   6.791  0.9202  0.4733  1.3211
    2MOL   H318  700   5.801   7.359   6.780 -0.3821 -1.2946  1.1050
    2MOL   H319  701   5.656   7.541   6.972 -1.2060  0.6462 -1.4558
    2MOL   H320  702   5.826   7.528   6.908  0.0978  1.0597 -1.5177
    2MOL   H321  703   5.583   7.595   6.742 -0.5969  0.3356  1.7644
    2MOL   H322  704   5.758   7.602   6.704 -0.9635  1.8317 -1.4487
    2MOL   H323  705   5.680   7.317   7.061 -0.4021 -3.0561  1.2738
    2MOL   H324  706   5.823   7.255   7.017  0.4109  1.4449 -0.7082
    2MOL   C325  707   5.686   0.111   6.822  0.2734 -0.2255 -0.7389
    2MOL   C326  708   5.672   0.211   6.705 -0.3366 -0.5123  0.6696
    2MOL   C327  709   5.571   0.307   6.759  0.0164  0.1590  0.2869
    2MOL   C328  710   5.473   0.236   6.859  0.7414 -0.1593  0.9864
    2MOL   C329  711   5.409   0.333   6.959 -0.7104  0.0370 -0.4138
    2MOL   C330  712   5.317   0.266   7.055  0.2266  0.1201  0.1810
    2MOL   C331  713   5.572   0.139   6.928 -0.4731  0.2107 -0.5130
    2MOL   H332  714   5.781   0.128   6.873 -0.6678  1.1291  0.5725
    2MOL   H333  715   5.633   0.164   6.614 -0.0281  0.5880 -0.0411
    2MOL   H334  716   5.765   0.266   6.688 -0.2670 -0.2210  1.9520
    2MOL   H335  717   5.609   0.386   6.825 -0.6102  1.6945 -1.1497
    2MOL   H336  718   5.524   0.366   6.680  1.7018  0.8368 -0.2420
    2MOL   H337  719   5.396   0.168   6.824  2.3445 -1.7854  0.5087
    2MOL   H338  720   5.494   0.381   7.007 -0.1223 -0.6764 -0.7391
    2MOL   H339  721   5.355   0.409   6.902 -1.6150  0.7607  1.3680
    2MOL   H340  722   5.244   0.223   6.986  0.2124  0.2628  0.1044
    2MOL   H341  723   5.365   0.180   7.101 -0.2100  0.2057  0.8007
    2MOL   H342  724   5.517   0.051   6.962 -1.3442  0.8139 -0.3544
    2MOL   H343  725   5.626   0.179   7.014 -0.8756  1.4904 -0.8520
    2MOL   C344  726   5.274   0.366   7.163 -0.3167  0.3517  0.4184
    2MOL   C345  727   5.166   0.302   7.248 -0.5011  0.1827  0.3692
    2MOL   C346  728   5.085   0.419   7.302 -0.3725 -0.6868 -0.4007
    2MOL   C347  729   5.130   0.550   7.235  0.4808 -0.3294 -0.9487
    2MOL   C348  730   5.203   0.647   7.329  0.2451  0.1020 -0.5163
    2MOL   C349  731   5.202   0.795   7.287 -0.4018 -0.1352  0.6371
    2MOL   C350  732   5.216   0.498   7.118 -0.9012  0.0802  0.1141
    2MOL   H351  733   5.359   0.393   7.226 -0.3683  3.2349 -0.6629
    2MOL   H352  734   5.214   0.248   7.329  1.2261 -1.0672 -1.4684
    2MOL   H353  735   5.109   0.237   7.182  1.1383 -0.2307 -0.6543
    2MOL   H354  736   4.977   0.409   7.291 -0.5455 -0.5050  0.9400
    2MOL   H355  737   5.089   0.435   7.410  2.1098  0.2338 -0.5947
    2MOL   H356  738   5.041   0.604   7.203  0.1242 -0.2789  0.0921
    2MOL   H357  739   5.162   0.640   7.430  0.3831  0.5381 -0.4314
    2MOL   H358  740   5.305   0.613   7.347 -0.0106 -0.4310 -0.0597
    2MOL   H359  741   5.097   0.825   7.287 -0.7557 -1.3456  0.8801
    2MOL   H360  742   5.237   0.803   7.184  1.9471  2.3686  1.5677
    2MOL   H361  743   5.164   0.472   7.026 -0.1897  0.7035 -0.4668
    2MOL   H362  744   5.290   0.573   7.090  1.3392 -1.6371  1.2308
    2MOL   C363  745   5.285   0.902   7.362 -0.3480 -0.0560 -0.2202
    2MOL   C364  746   5.278   1.037   7.292 -0.3987 -0.4833  0.4655
    2MOL   C365  747   5.382   1.117   7.356  0.1309 -0.2126 -0.0095
    2MOL   C366  748   5.500   1.010   7.379 -0.4182  0.2192  0.3271
    2MOL   C367  749   5.609   1.041   7.275  0.3082  0.2558 -0.5843
    2MOL   C368  750   5.708   0.928   7.266 -0.1931  1.0867  0.7647
    2MOL   C369  751   5.440   0.869   7.364 -0.0751  0.8770  0.2674
    2MOL   H370  752   5.252   0.920   7.464 -0.0264  0.6408 -0.2395
    2MOL   H371  753   5.306   1.029   7.186 -1.9971 -1.4992  0.1004
    2MOL   H372  754   5.177   1.078   7.291  0.0644  0.6817  0.6673
    2MOL   H373  755   5.413   1.205   7.300  2.3117 -1.6461 -1.1347
    2MOL   H374  756   5.345   1.158   7.450  0.0295  0.4860 -0.3487
    2MOL   H375  757   5.549   1.030   7.474 -1.3458 -2.9213  1.5187
    2MOL   H376  758   5.550   1.059   7.185 -0.8285  0.0136  0.0944
    2MOL   H377  759   5.675   1.121   7.310  0.4656  0.2474 -0.8624
    2MOL   H378  760   5.662   0.852   7.202 -0.0953  1.1498  0.6212
    2MOL   H379  761   5.725   0.887   7.365 -0.7591 -2.3786 -0.4977
    2MOL   H380  762   5.470   0.810   7.277 -0.2433 -2.4302  2.3796
    2MOL   H381  763   5.483   0.813   7.447 -1.4375 -0.7647 -0.1068
    2MOL   H382  764   5.800   0.944   7.210 -1.6233 -1.2545 -2.4641
    3MOL     C1  765   5.975   1.441   6.562 -0.7004  0.2699  0.8420
    3MOL     C2  766   5.856   1.399   6.649 -0.5743 -0.1062  0.7173
    3MOL     C3  767   5.838   1.517   6.741 -0.2850  0.0596 -1.0640
    3MOL     C4  768   5.850   1.637   6.640 -0.1685 -0.4587  0.0508
    3MOL     C5  769   5.876   1.771   6.709 -0.7400 -0.3631 -0.2649
    3MOL     C6  770   5.893   1.904   6.627 -0.4207  0.2936 -0.1544
    3MOL     C7  771   5.966   1.596   6.550  0.6169  0.0013 -0.1262
    3MOL     H8  772   6.066   1.409   6.612  0.2909 -0.3233 -1.2651
    3MOL     H9  773   5.867   1.306   6.705  0.0175 -0.1838  0.4835
    3MOL    H10  774   5.763   1.396   6.592 -0.9402  3.6039  0.9922
    3MOL    H11  775   5.744   1.520   6.796 -0.3062 -2.5329 -0.8948
    3MOL    H12  776   5.926   1.519   6.805 -0.1352 -2.5902 -1.1128
    3MOL    H13  777   5.763   1.632   6.574  0.8856 -0.1184 -1.3840
    3MOL    H14  778   5.791   1.787   6.775  0.4106 -0.8242  1.3870
    3MOL    H15  779   5.963   1.768   6.776 -0.2798  2.1428 -0.7089
    3MOL    H16  780   5.977   1.891   6.558  1.4780  0.1469  2.1484
    3MOL    H17  781   5.806   1.916   6.562 -1.5704 -1.4526  1.0296
    3MOL    H18  782   5.956   1.621   6.445 -0.9632  2.0442  0.4591
    3MOL    H19  783   6.061   1.641   6.576  1.5839 -0.7331 -2.3090
    3MOL    H20  784   5.970   1.398   6.462 -4.5881  1.6895  0.3363
    3MOL    C21  785   5.924   2.020   6.715 -1.1221  0.1939 -0.4479
    3MOL    C22  786   6.062   2.016   6.791  0.1283 -0.0582  0.1739
    3MOL    C23  787   6.116   2.153   6.782  0.0126 -0.6457  0.1402
    3MOL    C24  788   6.006   2.245   6.744  0.6365 -0.0818  0.2822
    3MOL    C25  789   6.053   2.381   6.682 -0.9177 -0.3466  0.9596
    3MOL    C26  790   6.161   2.451   6.767 -0.0889  0.1488  0.0438
    3MOL    C27  791   5.911   2.156   6.657 -0.1784  0.3837 -0.6153
    3MOL    H28  792   5.852   2.021   6.797 -1.8990  0.8845 -1.1380
    3MOL    H29  793   6.061   1.984   6.896 -1.4319 -0.7898 -0.0408
    3MOL    H30  794   6.127   1.950   6.735  1.4815  1.2410  0.2040
    3MOL    H31  795   6.153   2.176   6.882  2.2929  1.9903 -1.2406
    3MOL    H32  796   6.186   2.161   6.699 -2.2431  0.8784 -1.6798
    3MOL    H33  797   5.959   2.272   6.839  1.5209  1.0204  0.4050
    3MOL    H34  798   5.974   2.454   6.664  1.2191  1.4206 -1.6337
    3MOL    H35  799   6.090   2.350   6.585 -0.5208  0.6320  0.7909
    3MOL    H36  800   6.249   2.389   6.784  0.0802  0.1300 -0.8461
    3MOL    H37  801   6.131   2.481   6.867  0.8962  0.1328  0.3416
    3MOL    H38  802   5.806   2.186   6.659 -0.2952  0.0073  3.1805
    3MOL    H39  803   5.947   2.151   6.554 -1.7611  1.6640 -1.2463
    3MOL    C40  804   6.209   2.583   6.701  0.0784  1.0398 -0.1959
    3MOL    C41  805   6.319   2.633   6.779  0.1961  0.3201 -0.3071
    3MOL    C42  806   6.404   2.719   6.687  0.4691 -0.0598 -0.9021
    3MOL    C43  807   6.403   2.643   6.551 -0.4362  0.0307  0.0559
    3MOL    C44  808   6.432   2.719   6.423  0.0210  1.1363  0.6947
    3MOL    C45  809   6.581   2.772   6.425  0.3775  0.3304  0.4029
    3MOL    C46  810   6.271   2.563   6.558  0.1394  0.8534 -0.6334
    3MOL    H47  811   6.141   2.667   6.708  0.3682  1.2677 -0.1291
    3MOL    H48  812   6.377   2.547   6.812 -1.6976 -0.4641  1.0751
    3MOL    H49  813   6.286   2.697   6.861 -0.9185  1.3406 -1.5147
    3MOL    H50  814   6.362   2.820   6.679  2.3815  1.0286  1.9505
    3MOL    H51  815   6.506   2.733   6.722 -0.4845 -0.9929  2.4539
    3MOL    H52  816   6.479   2.565   6.558 -1.9565 -1.5951 -1.1030
    3MOL    H53  817   6.418   2.649   6.341  2.7629  1.1229  0.1759
    3MOL    H54  818   6.360   2.797   6.397 -3.0965 -1.6284  0.8450
    3MOL    H55  819   6.657   2.694   6.434  0.8510  0.7218 -0.1394
    3MOL    H56  820   6.587   2.831   6.517 -0.1875  0.9201  0.0684
    3MOL    H57  821   6.207   2.602   6.479 -1.1566 -0.5157 -0.2759
    3MOL    H58  822   6.286   2.457   6.536 -0.7567 -0.0248  2.6758
    3MOL    C59  823   6.612   2.864   6.313  1.0414 -0.1123 -0.2345
    3MOL    C60  824   6.753   2.920   6.320 -0.2726 -0.2797 -0.1600
    3MOL    C61  825   6.781   2.960   6.178  0.1924 -0.4064 -0.1031
    3MOL    C62  826   6.680   2.901   6.081  0.2267  0.7421  0.2567
    3MOL    C63  827   6.585   3.004   6.016 -0.3456  0.6131 -0.9290
    3MOL    C64  828   6.511   2.952   5.891  0.0425  0.0155  0.4024
    3MOL    C65  829   6.596   2.809   6.170 -0.1863 -0.7226  0.2663
    3MOL    H66  830   6.535   2.941   6.325  0.2930 -0.5792 -1.9008
    3MOL    H67  831   6.763   3.011   6.378 -1.5690  1.2691 -2.2898
    3MOL    H68  832   6.818   2.845   6.365 -0.0341 -0.1422 -0.2759
    3MOL    H69  833   6.777   3.069   6.167  2.5402 -0.0057  2.3985
    3MOL    H70  834   6.882   2.927   6.156 -0.1948 -0.9836 -1.0143
    3MOL    H71  835   6.737   2.839   6.012  0.0947 -0.2676  1.0420
    3MOL    H72  836   6.643   3.091   5.984 -0.2244  1.1111  0.6095
    3MOL    H73  837   6.519   3.043   6.093  2.0479 -0.6600  1.8266
    3MOL    H74  838   6.588   2.914   5.822  1.2824 -0.5601  2.0634
    3MOL    H75  839   6.436   2.876   5.913 -2.6066  2.4306 -0.1108
    3MOL    H76  840   6.490   2.806   6.144 -0.0922 -0.5208 -0.1415
    3MOL    H77  841   6.642   2.710   6.178  2.6933  0.6176  1.1230
    3MOL    C78  842   6.434   3.062   5.812 -0.2166 -0.2269  0.2141
    3MOL    C79  843   6.519   3.146   5.714  0.5282 -0.0176 -0.1530
    3MOL    C80  844   6.464   3.126   5.579 -0.7024  0.1433  0.2185
    3MOL    C81  845   6.316   3.113   5.610  0.1952  0.0392 -0.1598
    3MOL    C82  846   6.227   3.087   5.484  0.2495  0.0974  0.0539
    3MOL    C83  847   6.078   3.064   5.517  0.2565  0.0927  0.3536
    3MOL    C84  848   6.324   3.001   5.722 -0.1476 -0.2205  0.4233
    3MOL    H85  849   6.392   3.132   5.884 -1.2643  0.0407 -0.6491
    3MOL    H86  850   6.516   3.251   5.742  1.8851 -0.1431  0.4921
    3MOL    H87  851   6.626   3.129   5.728  0.5457 -0.4388 -0.7807
    3MOL    H88  852   6.487   3.206   5.508 -1.4217  0.7419  0.6430
    3MOL    H89  853   6.510   3.040   5.530  1.1335 -0.1011  2.2706
    3MOL    H90  854   6.274   3.201   5.659 -0.6034 -0.2870 -0.2421
    3MOL    H91  855   6.265   2.998   5.435 -0.4129 -0.1382 -0.0310
    3MOL    H92  856   6.229   3.167   5.411 -0.1682 -0.0739 -0.1448
    3MOL    H93  857   6.057   3.154   5.574  4.1756  0.7350  0.9079
    3MOL    H94  858   6.068   2.979   5.583  2.7476 -1.7790 -1.5530
    3MOL    H95  859   6.349   2.913   5.663  2.1127  1.6756 -1.5570
    3MOL    H96  860   6.231   2.987   5.777 -0.8825 -0.4224 -0.8445
    3MOL    C97  861   5.987   3.032   5.393 -0.4367 -0.3798 -0.6948
    3MOL    C98  862   5.978   3.151   5.292 -0.0037  0.4832 -0.5194
    3MOL    C99  863   5.822   3.175   5.266  0.9254  0.0434 -0.5880
    3MOL   C100  864   5.744   3.045   5.303  0.0930  0.1118 -0.2732
    3MOL   C101  865   5.595   3.047   5.341  0.5641  0.0627 -0.0853
    3MOL   C102  866   5.513   3.094   5.218  0.0100  0.4388 -0.2053
    3MOL   C103  867   5.841   3.001   5.421 -0.1969  0.8976  0.0085
    3MOL   H104  868   6.027   2.951   5.331 -2.1830 -0.8528 -1.2222
    3MOL   H105  869   6.024   3.240   5.333  0.9531 -0.4048  0.3858
    3MOL   H106  870   6.028   3.120   5.199  1.0983 -1.4378  0.6815
    3MOL   H107  871   5.788   3.250   5.338  1.9355  1.4174 -1.5258
    3MOL   H108  872   5.782   3.220   5.175 -1.2444  0.9410  0.7566
    3MOL   H109  873   5.762   2.964   5.232 -1.5619  1.2185 -2.0062
    3MOL   H110  874   5.576   2.943   5.367 -1.6181  0.6907  0.9512
    3MOL   H111  875   5.581   3.110   5.429 -0.2323  1.6727 -1.3505
    3MOL   H112  876   5.580   3.094   5.132 -0.7344 -0.2476 -0.7929
    3MOL   H113  877   5.448   3.009   5.197  0.0021  0.7588 -1.5574
    3MOL   H114  878   5.809   3.051   5.512 -0.3221 -0.7025  0.8483
    3MOL   H115  879   5.830   2.894   5.434  0.4565  0.7091 -0.9142
    3MOL   C116  880   5.404   3.195   5.235 -0.1966 -0.1464  0.3965
    3MOL   C117  881   5.296   3.195   5.121  0.1297  0.2251  0.2479
    3MOL   C118  882   5.169   3.259   5.175  0.1042 -0.5917 -0.3148
    3MOL   C119  883   5.192   3.285   5.324 -0.3704  0.3885 -0.2311
    3MOL   C120  884   5.070   3.257   5.415  0.2159 -0.0734 -0.4401
    3MOL   C121  885   5.088   3.289   5.564 -0.0387 -0.1423 -0.1681
    3MOL   C122  886   5.318   3.196   5.361 -0.1250  0.4931  0.2546
    3MOL   H123  887   5.447   3.295   5.229 -2.3419  0.7784 -0.3059
    3MOL   H124  888   5.288   3.090   5.091 -1.5454  0.3916  0.0817
    3MOL   H125  889   5.331   3.254   5.036  1.7717 -0.2548  0.5729
    3MOL   H126  890   5.081   3.197   5.160  0.6874 -1.4168 -0.3385
    3MOL   H127  891   5.144   3.354   5.129  1.8024  1.1536  2.2093
    3MOL   H128  892   5.224   3.386   5.349  0.3066  0.3869 -1.0728
    3MOL   H129  893   5.060   3.149   5.402  0.9267 -0.3182  0.9655
    3MOL   H130  894   4.975   3.301   5.387 -1.1107 -0.8003  2.6607
    3MOL   H131  895   5.100   3.397   5.574 -1.1879  0.1169 -1.4601
    3MOL   H132  896   5.179   3.237   5.595  0.5255  1.3274  0.7194
    3MOL   H133  897   5.369   3.224   5.453  0.0100  0.3965  0.2087
    3MOL   H134  898   5.282   3.093   5.369 -0.7155  0.4291 -2.7844
    3MOL   C135  899   4.966   3.238   5.647  0.0207  0.4940  0.5332
    3MOL   C136  900   4.948   3.086   5.643  0.0320  0.4200 -0.2017
    3MOL   C137  901   4.975   3.025   5.781 -0.4542  0.3076 -0.2602
    3MOL   C138  902   5.063   3.131   5.841  0.1636 -0.4376  0.4102
    3MOL   C139  903   5.086   3.123   5.995 -0.0194 -0.1743 -0.0007
    3MOL   C140  904   5.179   3.013   6.025 -0.4594 -0.3536 -0.4520
    3MOL   C141  905   4.997   3.266   5.798  0.3780 -0.1249 -0.1007
    3MOL   H142  906   4.885   3.291   5.598  0.5557  0.1817 -0.7309
    3MOL   H143  907   4.851   3.054   5.605 -1.6667  3.5920  1.2750
    3MOL   H144  908   5.017   3.023   5.585 -0.3100  0.6887 -0.9026
    3MOL   H145  909   4.875   3.026   5.825 -2.2034 -3.9386 -3.6989
    3MOL   H146  910   4.998   2.918   5.789  0.6445  0.6802  1.9261
    3MOL   H147  911   5.164   3.129   5.798  0.7339 -0.5109  1.7263
    3MOL   H148  912   4.984   3.112   6.033 -1.6999  0.6912 -3.9706
    3MOL   H149  913   5.125   3.215   6.039 -2.0804  1.3478 -1.2779
    3MOL   H150  914   5.164   2.932   5.954 -1.4408 -2.5482  2.1694
    3MOL   H151  915   5.282   3.047   6.018 -0.4478 -0.2480  0.1497
    3MOL   H152  916   5.068   3.347   5.815  3.0209 -2.4438  0.2899
    3MOL   H153  917   4.905   3.271   5.857  0.1813  0.6466 -0.4770
    3MOL   C154  918   5.157   2.967   6.176 -0.5415  0.3656 -0.1671
    3MOL   C155  919   5.259   2.854   6.219 -0.2782  0.6552  0.1136
    3MOL   C156  920   5.191   2.795   6.340 -0.5161 -0.3494  0.4773
    3MOL   C157  921   5.047   2.836   6.338  0.5175 -0.0384  0.1573
    3MOL   C158  922   4.952   2.712   6.358 -0.3514 -0.0074 -0.3993
    3MOL   C159  923   4.944   2.669   6.505  0.5231  0.4426 -0.4415
    3MOL   C160  924   5.021   2.914   6.208  0.9307  0.6135 -0.0406
    3MOL   H161  925   5.169   3.051   6.244 -1.7456 -0.3049  0.9054
    3MOL   H162  926   5.261   2.776   6.143 -2.1199  1.1715 -0.4721
    3MOL   H163  927   5.362   2.884   6.238  0.0673 -1.1536  1.2267
    3MOL   H164  928   5.222   2.691   6.351  2.4169  0.4082 -0.0043
    3MOL   H165  929   5.235   2.820   6.436  1.0738 -0.4127 -0.2154
    3MOL   H166  930   5.029   2.907   6.420 -0.7257  1.1779 -1.1411
    3MOL   H167  931   4.990   2.626   6.303 -1.9440 -1.5424  0.8484
    3MOL   H168  932   4.850   2.725   6.320 -0.1150 -1.6406 -1.6649
    3MOL   H169  933   5.041   2.649   6.550  0.7507  2.5306  0.0277
    3MOL   H170  934   4.921   2.750   6.574  2.2560  0.0558  0.6287
    3MOL   H171  935   4.940   2.985   6.227 -1.3951 -1.4304 -1.9674
    3MOL   H172  936   4.982   2.847   6.132  0.0089  2.0369 -0.8576
    3MOL   C173  937   4.842   2.550   6.523  0.2076 -0.2766 -0.0539
    3MOL   C174  938   4.836   2.515   6.671 -0.7107  0.1156  0.6497
    3MOL   C175  939   4.685   2.495   6.702  0.2557  0.1327  0.2365
    3MOL   C176  940   4.608   2.483   6.571 -1.1491 -0.8047  0.1991
    3MOL   C177  941   4.457   2.506   6.569  0.2947 -0.3710  0.6156
    3MOL   C178  942   4.383   2.462   6.444 -0.4585  0.5366 -0.0567
    3MOL   C179  943   4.694   2.581   6.483  0.1041  0.2557  0.8360
    3MOL   H180  944   4.873   2.467   6.459 -0.9036 -0.0373 -0.9269
    3MOL   H181  945   4.873   2.600   6.728 -1.1334  1.0805 -0.4908
    3MOL   H182  946   4.896   2.427   6.695  0.5720  1.0264  0.8249
    3MOL   H183  947   4.676   2.413   6.773  0.7579  0.6628  0.9196
    3MOL   H184  948   4.643   2.586   6.746 -0.9295  0.0772 -0.7531
    3MOL   H185  949   4.627   2.384   6.529  1.6810 -0.6138  0.9533
    3MOL   H186  950   4.438   2.607   6.604  0.7938  0.1764 -0.6623
    3MOL   H187  951   4.412   2.452   6.653 -2.2050 -0.3962 -0.6775
    3MOL   H188  952   4.280   2.442   6.471 -1.0572  2.0672 -1.1271
    3MOL   H189  953   4.408   2.361   6.410  1.5646  0.7549  0.7233
    3MOL   H190  954   4.658   2.681   6.507  0.6719  0.0181  2.6983
    3MOL   H191  955   4.672   2.555   6.379 -0.1177 -1.2351  1.2462
    3MOL   C192  956   4.395   2.559   6.328 -0.3937  0.2764 -0.9802
    3MOL   C193  957   4.334   2.697   6.363  0.5957 -0.0896 -0.1436
    3MOL   C194  958   4.285   2.752   6.230  0.1218 -0.1336 -0.5416
    3MOL   C195  959   4.220   2.626   6.171  0.7644  0.7832 -0.3030
    3MOL   C196  960   4.187   2.644   6.015 -0.0546  0.0261 -0.9896
    3MOL   C197  961   4.120   2.524   5.959  0.3619  0.1896 -0.3308
    3MOL   C198  962   4.321   2.513   6.206 -0.6959 -0.1769 -0.0631
    3MOL   H199  963   4.499   2.572   6.298 -0.0759 -0.7027 -0.3003
    3MOL   H200  964   4.249   2.703   6.431 -0.9790  1.6648 -2.2062
    3MOL   H201  965   4.410   2.768   6.397  0.4876 -0.4853  0.9271
    3MOL   H202  966   4.375   2.787   6.178  1.6015 -0.9321  1.3980
    3MOL   H203  967   4.217   2.837   6.232 -3.1107 -2.6960  0.1494
    3MOL   H204  968   4.123   2.626   6.221  0.8283  1.2400 -0.1714
    3MOL   H205  969   4.284   2.666   5.970  1.3228  0.5026  2.0780
    3MOL   H206  970   4.132   2.737   6.001  1.0151  0.8993  0.4347
    3MOL   H207  971   4.028   2.516   6.017 -0.2269  3.3129 -0.7554
    3MOL   H208  972   4.176   2.434   5.985 -0.4668  0.1187  1.2577
    3MOL   H209  973   4.399   2.505   6.129  0.7495  3.5326  0.9170
    3MOL   H210  974   4.262   2.423   6.222 -1.5843  0.7897  2.1844
    3MOL   C211  975   4.101   2.529   5.805 -0.0921  0.0650 -0.3567
    3MOL   C212  976   4.051   2.656   5.748 -0.8424  0.0409  0.2927
    3MOL   C213  977   3.945   2.623   5.642 -0.5329  0.1299 -0.7910
    3MOL   C214  978   3.956   2.469   5.621  0.3305  0.6943  0.2856
    3MOL   C215  979   3.834   2.404   5.550 -0.4639 -0.0091 -0.5540
    3MOL   C216  980   3.848   2.248   5.532  0.3626 -0.2100 -0.4910
    3MOL   C217  981   4.004   2.412   5.756 -0.2373 -0.0882 -0.6207
    3MOL   H218  982   4.200   2.514   5.761  1.6910  2.2226  2.7271
    3MOL   H219  983   3.999   2.719   5.820 -0.3134  0.5258  0.2551
    3MOL   H220  984   4.141   2.714   5.727  0.1178 -1.5374 -0.0625
    3MOL   H221  985   3.845   2.643   5.681 -0.7277 -0.5992 -0.8940
    3MOL   H222  986   3.951   2.675   5.547  0.4396  1.1738 -0.1670
    3MOL   H223  987   4.032   2.450   5.546 -0.2115  0.6246 -0.2449
    3MOL   H224  988   3.803   2.458   5.461 -3.5373 -0.9304 -0.1053
    3MOL   H225  989   3.748   2.429   5.612  1.2512  2.3338  0.9648
    3MOL   H226  990   3.955   2.238   5.519  0.5081 -0.0335  0.5545
    3MOL   H227  991   3.830   2.205   5.631  0.5900 -0.2955 -0.4872
    3MOL   H228  992   4.062   2.320   5.748 -0.3238 -0.0821 -1.2914
    3MOL   H229  993   3.920   2.400   5.824  0.6554 -1.7082  0.2394
    3MOL   C230  994   3.771   2.185   5.419 -0.0817  0.7308  0.0044
    3MOL   C231  995   3.634   2.140   5.463  0.0232  1.0147 -0.3660
    3MOL   C232  996   3.598   2.032   5.354 -0.9129 -0.1055  0.5272
    3MOL   C233  997   3.730   1.952   5.339  0.1433  0.1408  0.9207
    3MOL   C234  998   3.730   1.872   5.217 -0.0283  0.1097  0.2771
    3MOL   C235  999   3.646   1.746   5.213 -0.2153 -0.6644  0.3907
    3MOL   C236 1000   3.843   2.060   5.359 -0.4011  0.8328  0.4874
    3MOL   H237 1001   3.769   2.254   5.335 -3.8769  1.4457  0.5996
    3MOL   H238 1002   3.642   2.097   5.563 -1.7269  0.8871 -0.2571
    3MOL   H239 1003   3.561   2.220   5.471 -0.8401  0.2504 -0.5314
    3MOL   H240 1004   3.586   2.086   5.260  1.9505 -2.8638 -1.5331
    3MOL   H241 1005   3.507   1.973   5.366 -0.1606 -1.0065  1.9976
    3MOL   H242 1006   3.746   1.894   5.430  1.2480 -0.9114  0.0661
    3MOL   H243 1007   3.830   1.846   5.182 -1.0274 -2.3150 -0.8632
    3MOL   H244 1008   3.711   1.947   5.141  1.9868  0.6883  0.3125
    3MOL   H245 1009   3.565   1.771   5.281  0.8748  1.8960  0.7834
    3MOL   H246 1010   3.596   1.711   5.122 -1.0312  0.3794  0.4325
    3MOL   H247 1011   3.885   2.087   5.262 -0.3818 -1.3361 -0.1517
    3MOL   H248 1012   3.926   2.028   5.422 -0.4522  0.5623  0.4180
    3MOL   C249 1013   3.726   1.634   5.292 -0.2109  0.0591  0.5958
    3MOL   C250 1014   3.645   1.507   5.310 -0.2569 -0.0477  0.3145
    3MOL   C251 1015   3.743   1.388   5.318 -0.3237 -0.0233  0.9960
    3MOL   C252 1016   3.835   1.430   5.205  0.1071  0.5318 -0.1782
    3MOL   C253 1017   3.963   1.349   5.218 -0.0179  1.0744  0.1610
    3MOL   C254 1018   4.057   1.381   5.106 -0.2464 -0.3929 -0.4088
    3MOL   C255 1019   3.850   1.580   5.214  0.0569 -0.6197 -0.5589
    3MOL   H256 1020   3.744   1.670   5.393  0.3493 -0.9671  0.8700
    3MOL   H257 1021   3.579   1.512   5.397 -1.2373 -1.2859 -0.3359
    3MOL   H258 1022   3.576   1.491   5.227  1.1938  0.5523 -1.0310
    3MOL   H259 1023   3.692   1.293   5.300 -0.4048  0.4564 -1.4641
    3MOL   H260 1024   3.792   1.381   5.415  1.4522  0.2699  0.1442
    3MOL   H261 1025   3.788   1.402   5.110  2.0039 -3.8221  0.0352
    3MOL   H262 1026   3.933   1.245   5.205 -0.8222  1.2348  0.6907
    3MOL   H263 1027   4.009   1.366   5.316 -0.5869  2.3087  0.2271
    3MOL   H264 1028   4.070   1.489   5.103 -0.7732 -0.3395 -0.8373
    3MOL   H265 1029   4.005   1.359   5.013 -0.2555  1.9468 -0.9684
    3MOL   H266 1030   3.863   1.627   5.116  0.2225 -0.5912 -0.5218
    3MOL   H267 1031   3.931   1.603   5.282 -0.8176  1.0120 -0.0558
    3MOL   C268 1032   4.196   1.302   5.125  0.3042 -0.7184 -0.9884
    3MOL   C269 1033   4.266   1.318   5.261  0.0400  0.1627 -0.3202
    3MOL   C270 1034   4.421   1.306   5.242 -0.0741 -0.1164  0.1762
    3MOL   C271 1035   4.441   1.348   5.101 -0.3049 -0.6354  0.3092
    3MOL   C272 1036   4.522   1.474   5.084  0.1415  0.2649  0.1847
    3MOL   C273 1037   4.588   1.478   4.943 -0.1745  0.3987  0.1121
    3MOL   C274 1038   4.301   1.358   5.033  0.4162  0.8260  0.8196
    3MOL   H275 1039   4.172   1.196   5.119 -0.2183 -0.6075 -0.8601
    3MOL   H276 1040   4.235   1.411   5.307  0.1979 -0.0256  0.1713
    3MOL   H277 1041   4.224   1.244   5.330 -0.3910  0.2391 -0.4952
    3MOL   H278 1042   4.478   1.376   5.302 -0.1531  0.9183 -0.9455
    3MOL   H279 1043   4.461   1.205   5.257  1.1787  0.0471 -1.8092
    3MOL   H280 1044   4.511   1.274   5.059  1.6953  0.0279  2.3788
    3MOL   H281 1045   4.604   1.494   5.154  0.8443 -0.5016 -0.4199
    3MOL   H282 1046   4.461   1.563   5.095  0.5635  0.5364  0.3472
    3MOL   H283 1047   4.670   1.406   4.951 -1.3576 -1.0450 -0.3644
    3MOL   H284 1048   4.520   1.458   4.860 -1.7143  0.3146  1.3753
    3MOL   H285 1049   4.295   1.462   5.001 -0.3225  0.2547 -0.9760
    3MOL   H286 1050   4.294   1.299   4.941 -0.4899  2.6232 -0.2821
    3MOL   C287 1051   4.658   1.612   4.917  0.6237 -0.4632  0.3236
    3MOL   C288 1052   4.757   1.614   4.800  0.4564 -0.3262  0.3141
    3MOL   C289 1053   4.733   1.732   4.707 -0.5777  0.0473 -0.1580
    3MOL   C290 1054   4.641   1.825   4.794  0.3657 -0.5805 -0.1552
    3MOL   C291 1055   4.567   1.926   4.714  0.3918 -0.2411  0.4224
    3MOL   C292 1056   4.485   1.884   4.596  0.0013  0.2646 -0.5308
    3MOL   C293 1057   4.559   1.728   4.883 -0.1927  0.2705  0.0143
    3MOL   H294 1058   4.714   1.635   5.008 -0.6308 -2.1498  1.5607
    3MOL   H295 1059   4.857   1.606   4.843  1.8402 -0.5524 -2.8417
    3MOL   H296 1060   4.749   1.521   4.743  2.9121  0.9081 -2.1581
    3MOL   H297 1061   4.684   1.699   4.615 -0.7678 -1.2394  0.3937
    3MOL   H298 1062   4.825   1.784   4.680  0.4519 -1.3338  0.6499
    3MOL   H299 1063   4.702   1.879   4.866  0.9190 -0.2460 -0.8657
    3MOL   H300 1064   4.645   1.999   4.691 -1.5894  1.3790 -1.3545
    3MOL   H301 1065   4.504   1.981   4.784  0.5319 -0.8348  1.0186
    3MOL   H302 1066   4.454   1.779   4.600 -0.0923  0.3246  0.2597
    3MOL   H303 1067   4.550   1.883   4.508 -2.3797 -0.3570 -2.3412
    3MOL   H304 1068   4.469   1.689   4.836 -0.6590  1.3212  0.0219
    3MOL   H305 1069   4.528   1.778   4.975  2.1541  0.4145  0.7563
    3MOL   C306 1070   4.360   1.971   4.562  0.8102  0.4610 -0.2434
    3MOL   C307 1071   4.399   2.111   4.525  0.3696 -0.2134  0.6013
    3MOL   C308 1072   4.336   2.137   4.386 -0.7969  0.9476  0.2476
    3MOL   C309 1073   4.210   2.040   4.380 -0.2712 -0.6309 -0.3892
    3MOL   C310 1074   4.164   2.012   4.233 -0.6036  0.3548 -0.7596
    3MOL   C311 1075   4.019   1.956   4.223  0.0377 -0.3458  0.0425
    3MOL   C312 1076   4.265   1.917   4.456 -0.2597  0.3289  0.4952
    3MOL   H313 1077   4.299   1.982   4.652 -0.2639 -0.1253 -0.8973
    3MOL   H314 1078   4.360   2.186   4.594  0.7057  2.1080 -1.6288
    3MOL   H315 1079   4.505   2.132   4.522  0.0992  0.9718 -2.5545
    3MOL   H316 1080   4.306   2.241   4.376  0.3456  1.2706  0.1382
    3MOL   H317 1081   4.404   2.113   4.304 -2.2292  0.0759 -0.7307
    3MOL   H318 1082   4.129   2.078   4.442 -2.0444 -1.9085 -1.8709
    3MOL   H319 1083   4.167   2.104   4.175 -2.2779  0.6775 -0.3446
    3MOL   H320 1084   4.235   1.950   4.178 -0.3987  0.2344 -0.3614
    3MOL   H321 1085   3.953   2.030   4.269  0.0586  0.9496 -1.9301
    3MOL   H322 1086   4.024   1.862   4.277  1.7558 -0.8210 -0.8909
    3MOL   H323 1087   4.312   1.837   4.398 -2.3746  0.3451 -1.3221
    3MOL   H324 1088   4.188   1.853   4.499  0.1600 -2.2405 -2.3795
    3MOL   C325 1089   3.958   1.930   4.084  0.7228 -0.6994  0.1897
    3MOL   C326 1090   3.829   1.835   4.101 -0.7328 -0.6518 -0.0813
    3MOL   C327 1091   3.709   1.933   4.095 -0.8113  0.1928 -0.4523
    3MOL   C328 1092   3.755   2.069   4.035 -0.3755 -0.5772 -0.8612
    3MOL   C329 1093   3.682   2.132   3.917 -0.2114  0.3295  0.1293
    3MOL   C330 1094   3.718   2.274   3.886  0.0404 -0.3717 -0.2258
    3MOL   C331 1095   3.907   2.053   4.009  0.3688 -0.9859 -0.1285
    3MOL   H332 1096   4.030   1.872   4.027  0.9768  0.1471 -0.3628
    3MOL   H333 1097   3.840   1.786   4.197  0.1145 -0.2003  0.0585
    3MOL   H334 1098   3.817   1.769   4.016 -1.1963  0.3349 -0.8032
    3MOL   H335 1099   3.640   1.889   4.023 -1.6288 -1.2834  1.2035
    3MOL   H336 1100   3.667   1.942   4.195 -0.0833  1.3834 -0.2463
    3MOL   H337 1101   3.731   2.130   4.123  1.7144  1.8809 -1.9526
    3MOL   H338 1102   3.684   2.062   3.834  0.6306 -0.0836  0.4955
    3MOL   H339 1103   3.576   2.142   3.940 -0.2053 -1.4587  1.0643
    3MOL   H340 1104   3.695   2.338   3.972 -0.1471 -1.3871  0.5007
    3MOL   H341 1105   3.825   2.287   3.872  0.0421 -0.3523 -0.1959
    3MOL   H342 1106   3.960   2.146   4.026 -0.7864 -0.6630  1.8588
    3MOL   H343 1107   3.918   2.026   3.904  0.2245  1.1847 -0.7222
    3MOL   C344 1108   3.639   2.327   3.763 -0.0955 -0.7015 -0.7166
    3MOL   C345 1109   3.679   2.271   3.622 -0.2796  0.0366  0.9291
    3MOL   C346 1110   3.671   2.393   3.524  0.0913 -0.8226 -0.2622
    3MOL   C347 1111   3.716   2.508   3.612 -0.4856  0.3267  0.3257
    3MOL   C348 1112   3.682   2.648   3.555 -0.4360  0.1360  0.4935
    3MOL   C349 1113   3.764   2.760   3.622  0.1066  0.0224  0.1881
    3MOL   C350 1114   3.642   2.481   3.747 -0.5960  0.2670  0.4256
    3MOL   H351 1115   3.533   2.308   3.776 -0.1689 -0.2558 -0.6381
    3MOL   H352 1116   3.607   2.196   3.589  0.3484  0.1479 -0.7746
    3MOL   H353 1117   3.781   2.231   3.620 -0.1918  0.2291  1.4178
    3MOL   H354 1118   3.738   2.375   3.440  0.3454 -0.5219 -0.1217
    3MOL   H355 1119   3.569   2.405   3.487 -0.6781 -1.8079  1.4391
    3MOL   H356 1120   3.823   2.519   3.629  0.0170  0.5930 -2.6363
    3MOL   H357 1121   3.696   2.646   3.447  1.2988 -0.3857  0.7195
    3MOL   H358 1122   3.574   2.661   3.565 -0.3600  0.9498  0.3407
    3MOL   H359 1123   3.865   2.720   3.622 -0.6156 -1.8931  0.0197
    3MOL   H360 1124   3.730   2.778   3.724  1.9386 -2.9258  1.3975
    3MOL   H361 1125   3.698   2.533   3.825 -0.4461 -1.3896  1.4488
    3MOL   H362 1126   3.543   2.527   3.742 -0.7290 -0.0094  0.4697
    3MOL   C363 1127   3.778   2.890   3.540  0.1141 -0.4759  0.4248
    3MOL   C364 1128   3.832   3.009   3.624  0.2381 -0.9866 -0.0886
    3MOL   C365 1129   3.746   3.139   3.593  0.1683 -0.0291 -0.0659
    3MOL   C366 1130   3.657   3.105   3.478 -1.5279  0.5509  0.1930
    3MOL   C367 1131   3.530   3.185   3.468 -0.3059 -0.2398 -0.5556
    3MOL   C368 1132   3.552   3.332   3.417  0.4645  0.1961  0.1291
    3MOL   C369 1133   3.640   2.947   3.494 -0.3582  0.1153 -0.4227
    3MOL   H370 1134   3.834   2.877   3.447 -0.6999 -0.9343  0.0019
    3MOL   H371 1135   3.833   2.997   3.733  0.4964  0.9005  0.1427
    3MOL   H372 1136   3.934   3.040   3.602 -0.0397 -0.4067 -0.5868
    3MOL   H373 1137   3.676   3.157   3.674  0.4560 -1.8841  0.6393
    3MOL   H374 1138   3.801   3.232   3.578  0.9632 -0.1682  1.8142
    3MOL   H375 1139   3.715   3.126   3.388 -0.7084 -0.4325  0.4853
    3MOL   H376 1140   3.463   3.130   3.402  0.1696  0.3297 -1.5120
    3MOL   H377 1141   3.471   3.198   3.559  0.7311  2.4519 -0.2257
    3MOL   H378 1142   3.453   3.376   3.403 -1.1269 -2.8517  1.5410
    3MOL   H379 1143   3.592   3.316   3.316 -0.1951 -1.0152  0.0660
    3MOL   H380 1144   3.570   2.924   3.574 -0.8808  3.9942  0.3419
    3MOL   H381 1145   3.590   2.909   3.405 -1.4590  1.5084 -0.4235
    3MOL   H382 1146   3.626   3.385   3.478  1.1377  0.8856 -1.2442
    4MOL     C1 1147   0.248   4.702   4.300 -0.4624 -0.4439  0.0854
    4MOL     C2 1148   0.248   4.787   4.171 -0.5886  0.3826 -0.1825
    4MOL     C3 1149   0.391   4.835   4.142  0.2767 -0.4842 -0.2309
    4MOL     C4 1150   0.473   4.803   4.273 -0.3368 -0.1807  0.0704
    4MOL     C5 1151   0.559   4.927   4.320  0.1826  0.3496 -0.0920
    4MOL     C6 1152   0.632   4.907   4.451  0.6697  0.4316  1.0947
    4MOL     C7 1153   0.364   4.753   4.380 -0.3148 -0.2688  0.8205
    4MOL     H8 1154   0.151   4.704   4.352 -0.2102  1.5916  0.5118
    4MOL     H9 1155   0.181   4.872   4.177  0.0977  1.0056 -1.2424
    4MOL    H10 1156   0.207   4.745   4.080  2.4390 -0.5386 -1.1886
    4MOL    H11 1157   0.427   4.801   4.045  1.7570 -0.0773  0.1626
    4MOL    H12 1158   0.397   4.943   4.128 -0.0555 -0.5351 -0.7845
    4MOL    H13 1159   0.537   4.717   4.253  0.4801  0.7721 -1.5194
    4MOL    H14 1160   0.631   4.931   4.238 -1.3257 -0.1447 -1.4707
    4MOL    H15 1161   0.501   5.019   4.307 -1.4445 -0.8523 -1.6860
    4MOL    H16 1162   0.572   4.926   4.540  0.7790  2.4725  0.7606
    4MOL    H17 1163   0.674   4.807   4.451  1.2482  0.6560 -1.7003
    4MOL    H18 1164   0.401   4.689   4.460 -2.0567 -0.6686  1.3222
    4MOL    H19 1165   0.321   4.839   4.431  1.0391 -0.6554  2.6405
    4MOL    H20 1166   0.247   4.599   4.263 -1.7063 -1.4033  2.6205
    4MOL    C21 1167   0.743   5.016   4.466 -0.1062 -0.0887  0.3123
    4MOL    C22 1168   0.696   5.160   4.477 -0.1411  0.4530  0.1054
    4MOL    C23 1169   0.723   5.205   4.612 -0.1153  0.0165  0.3634
    4MOL    C24 1170   0.850   5.131   4.655 -0.1598 -0.6525 -0.0644
    4MOL    C25 1171   0.847   5.114   4.808 -0.1082  0.5815  0.5211
    4MOL    C26 1172   0.959   5.034   4.879  0.2237 -0.4696 -0.4323
    4MOL    C27 1173   0.840   4.998   4.581 -0.2817  0.5649 -0.7254
    4MOL    H28 1174   0.801   5.018   4.374 -1.7161  2.4055 -0.7138
    4MOL    H29 1175   0.754   5.220   4.406 -1.5178  0.5603 -0.9583
    4MOL    H30 1176   0.590   5.174   4.452  0.0907  1.4748 -0.3373
    4MOL    H31 1177   0.747   5.311   4.618 -1.3899  0.2645  1.3558
    4MOL    H32 1178   0.635   5.185   4.673  0.0859 -0.9038  0.3547
    4MOL    H33 1179   0.931   5.192   4.615 -2.1269  0.8888 -1.7664
    4MOL    H34 1180   0.748   5.077   4.835 -0.6044  0.5826 -1.2295
    4MOL    H35 1181   0.863   5.215   4.846 -1.5363  0.6499  0.9770
    4MOL    H36 1182   0.953   4.928   4.856  1.7050 -0.2025 -2.1148
    4MOL    H37 1183   0.936   5.034   4.985  0.2180 -1.1592 -0.4361
    4MOL    H38 1184   0.938   4.953   4.565 -0.1479 -0.8458  3.3276
    4MOL    H39 1185   0.789   4.929   4.648  1.2925  0.1124  0.0307
    4MOL    C40 1186   1.099   5.081   4.843 -0.2772  0.4250  0.0458
    4MOL    C41 1187   1.154   5.195   4.936 -0.4882  0.5107 -0.2109
    4MOL    C42 1188   1.298   5.185   4.904  0.5805  0.2266  0.5334
    4MOL    C43 1189   1.328   5.043   4.905 -0.6810  0.3909  0.4184
    4MOL    C44 1190   1.456   5.006   4.827 -0.3269  0.4753 -0.3306
    4MOL    C45 1191   1.504   4.860   4.859  0.3332 -0.4369  0.6193
    4MOL    C46 1192   1.207   4.968   4.851 -0.3074 -0.0923 -0.3628
    4MOL    H47 1193   1.106   5.115   4.740  1.3435 -5.2615 -1.8696
    4MOL    H48 1194   1.136   5.172   5.041 -1.1239  1.0807 -0.1909
    4MOL    H49 1195   1.110   5.294   4.926  1.5880  1.7424  2.2841
    4MOL    H50 1196   1.318   5.234   4.808  0.9039 -2.4678 -0.8190
    4MOL    H51 1197   1.362   5.242   4.971  1.8052 -2.1356  1.4346
    4MOL    H52 1198   1.345   5.013   5.009 -1.1084 -0.1348  0.3424
    4MOL    H53 1199   1.440   5.029   4.722  0.8246 -0.2222 -0.6663
    4MOL    H54 1200   1.541   5.066   4.859  0.8833 -0.8691 -0.9361
    4MOL    H55 1201   1.424   4.808   4.807 -0.6547  0.6485  1.0202
    4MOL    H56 1202   1.521   4.834   4.964 -0.9809 -0.6073  0.7962
    4MOL    H57 1203   1.235   4.925   4.755 -1.0154 -2.1027  0.3192
    4MOL    H58 1204   1.181   4.889   4.921  1.0397  1.2019  1.6389
    4MOL    C59 1205   1.636   4.824   4.788  0.2706  0.0746  0.4601
    4MOL    C60 1206   1.762   4.897   4.843 -0.4015  0.5898  0.3476
    4MOL    C61 1207   1.880   4.814   4.778 -0.0600 -0.4324 -0.5273
    4MOL    C62 1208   1.823   4.668   4.774  0.2258 -0.5615  0.0891
    4MOL    C63 1209   1.859   4.605   4.639 -0.3282 -0.0753  0.6000
    4MOL    C64 1210   2.014   4.581   4.624 -0.2691 -0.4463 -0.4763
    4MOL    C65 1211   1.669   4.682   4.792 -0.6492  0.2350 -0.6085
    4MOL    H66 1212   1.617   4.846   4.683 -0.4300  0.3987  0.6537
    4MOL    H67 1213   1.751   5.002   4.816 -2.3637  1.0368  2.7273
    4MOL    H68 1214   1.756   4.889   4.952 -1.6690  1.0621  0.3227
    4MOL    H69 1215   1.892   4.879   4.691  4.3228  0.2666  0.4620
    4MOL    H70 1216   1.976   4.826   4.829  0.5994 -0.7812 -1.6384
    4MOL    H71 1217   1.867   4.612   4.857  1.4274  0.2565  0.0206
    4MOL    H72 1218   1.827   4.682   4.568 -3.7127 -1.3754  0.6051
    4MOL    H73 1219   1.805   4.512   4.618  0.5800 -0.2495 -1.0588
    4MOL    H74 1220   2.076   4.669   4.638  2.2912 -2.1130 -0.9466
    4MOL    H75 1221   2.036   4.507   4.701  1.3899 -1.4929 -1.9166
    4MOL    H76 1222   1.608   4.638   4.713  1.5473 -0.2191 -2.0845
    4MOL    H77 1223   1.640   4.631   4.883 -0.6687  1.4595  0.0874
    4MOL    C78 1224   2.043   4.512   4.485  0.1893 -0.4645 -0.6579
    4MOL    C79 1225   1.996   4.600   4.359  0.4115 -0.1722 -0.1977
    4MOL    C80 1226   2.101   4.568   4.250 -0.5696  0.9825 -0.2505
    4MOL    C81 1227   2.211   4.475   4.316  0.5102 -0.9372  0.5068
    4MOL    C82 1228   2.356   4.513   4.278 -0.3663 -0.3394 -0.4723
    4MOL    C83 1229   2.380   4.511   4.122 -0.2991  0.1021  0.1462
    4MOL    C84 1230   2.194   4.480   4.469  0.3546 -0.3534 -0.4222
    4MOL    H85 1231   1.988   4.418   4.484 -1.4562  0.4590  1.4166
    4MOL    H86 1232   1.892   4.578   4.334  0.4325 -1.1807  0.5402
    4MOL    H87 1233   2.012   4.700   4.399 -0.2694  0.5026 -1.5935
    4MOL    H88 1234   2.068   4.520   4.158 -1.1213  2.2262 -0.6989
    4MOL    H89 1235   2.147   4.656   4.206  1.9099 -0.2882 -0.2549
    4MOL    H90 1236   2.195   4.375   4.278 -0.0158  0.2593 -2.5544
    4MOL    H91 1237   2.419   4.449   4.340  0.1808  1.4434  0.8782
    4MOL    H92 1238   2.370   4.613   4.319  1.1142 -0.5934 -0.3377
    4MOL    H93 1239   2.475   4.565   4.117 -0.6698  0.8628  1.0949
    4MOL    H94 1240   2.308   4.571   4.067  0.1053 -0.6121 -1.2027
    4MOL    H95 1241   2.260   4.550   4.522  1.0954 -1.4755  0.1411
    4MOL    H96 1242   2.224   4.384   4.509  0.7573 -0.0016  0.1384
    4MOL    C97 1243   2.395   4.364   4.062  0.0328  0.5427 -0.0621
    4MOL    C98 1244   2.521   4.288   4.102  0.3563 -0.2401 -1.0829
    4MOL    C99 1245   2.555   4.180   3.987  0.1698 -0.0713 -0.4536
    4MOL   C100 1246   2.449   4.208   3.873 -0.2259  0.0025 -0.8592
    4MOL   C101 1247   2.512   4.202   3.731  0.0159  0.4307  0.5764
    4MOL   C102 1248   2.531   4.066   3.675 -0.1218  0.4563 -0.5657
    4MOL   C103 1249   2.401   4.347   3.908  0.5495 -0.3011  0.1054
    4MOL   H104 1250   2.306   4.308   4.088  0.0535  0.3098 -0.5094
    4MOL   H105 1251   2.604   4.356   4.122 -0.6165  1.4187 -2.5050
    4MOL   H106 1252   2.515   4.238   4.199 -0.6767  1.6773 -0.1221
    4MOL   H107 1253   2.658   4.179   3.952  0.3232 -1.5315  0.0201
    4MOL   H108 1254   2.540   4.075   4.012 -2.0087  0.2756 -0.1987
    4MOL   H109 1255   2.366   4.138   3.886 -0.0790  0.1239  0.9211
    4MOL   H110 1256   2.452   4.266   3.666  0.1095 -0.7849 -0.7302
    4MOL   H111 1257   2.605   4.259   3.733  1.3413 -1.6716 -0.0934
    4MOL   H112 1258   2.597   4.015   3.744 -0.7789  0.0182 -0.2558
    4MOL   H113 1259   2.434   4.017   3.684  0.3452 -0.2559  0.6589
    4MOL   H114 1260   2.474   4.422   3.876 -0.1659  1.9073  3.3706
    4MOL   H115 1261   2.311   4.377   3.853  0.0545 -0.8005  0.6291
    4MOL   C116 1262   2.581   4.040   3.535 -0.0956 -0.0082 -0.1090
    4MOL   C117 1263   2.505   4.102   3.413 -0.7034 -0.1335  0.0357
    4MOL   C118 1264   2.607   4.081   3.287 -0.2064  0.2519  1.3185
    4MOL   C119 1265   2.748   4.071   3.348 -0.6672 -0.3413  0.1086
    4MOL   C120 1266   2.854   4.164   3.290  0.5479  0.3543  0.0051
    4MOL   C121 1267   3.003   4.129   3.336  0.4571  0.6237 -0.9843
    4MOL   C122 1268   2.722   4.088   3.504 -0.2114  0.4581 -0.2934
    4MOL   H123 1269   2.589   3.931   3.528  1.2255  0.0523  0.2730
    4MOL   H124 1270   2.497   4.211   3.415  0.4961 -0.0022 -1.3122
    4MOL   H125 1271   2.404   4.066   3.396 -0.0037 -1.3821 -1.6139
    4MOL   H126 1272   2.596   4.144   3.199  0.8172 -0.1838  0.8607
    4MOL   H127 1273   2.587   3.981   3.248  1.4628 -0.4763  2.2696
    4MOL   H128 1274   2.783   3.970   3.326  0.9736  0.3365 -0.4817
    4MOL   H129 1275   2.827   4.267   3.313  0.7781  0.5614 -0.6300
    4MOL   H130 1276   2.865   4.150   3.183  0.5375  2.2071 -0.2611
    4MOL   H131 1277   3.017   4.027   3.299 -0.5868 -0.3300  1.1463
    4MOL   H132 1278   3.017   4.137   3.444  1.0192  0.0039 -1.0037
    4MOL   H133 1279   2.795   4.031   3.563  0.0754 -0.6932 -1.7238
    4MOL   H134 1280   2.728   4.190   3.542 -1.6875  0.0418  1.1035
    4MOL   C135 1281   3.107   4.214   3.262 -0.5182  0.2309  0.1994
    4MOL   C136 1282   3.096   4.365   3.268  0.2522  0.2559 -0.3447
    4MOL   C137 1283   3.231   4.410   3.219 -0.0392  0.4975 -0.1631
    4MOL   C138 1284   3.330   4.302   3.274 -0.3377  1.3426 -0.0436
    4MOL   C139 1285   3.463   4.294   3.199 -0.2866  0.5047  0.9143
    4MOL   C140 1286   3.574   4.200   3.249  0.5232 -0.4365  0.0637
    4MOL   C141 1287   3.252   4.171   3.289 -0.0351 -0.1794 -0.2602
    4MOL   H142 1288   3.090   4.187   3.158  1.6925 -1.3819  0.2108
    4MOL   H143 1289   3.016   4.404   3.205  1.7307  1.0336 -1.7487
    4MOL   H144 1290   3.080   4.397   3.371  1.7504  1.3184 -0.4391
    4MOL   H145 1291   3.224   4.403   3.110 -0.0055 -0.3981 -0.1081
    4MOL   H146 1292   3.252   4.513   3.246  1.5975  0.4868 -1.3213
    4MOL   H147 1293   3.362   4.326   3.376 -0.2019  1.7088 -0.1738
    4MOL   H148 1294   3.508   4.393   3.195 -0.6910  0.6442 -0.8091
    4MOL   H149 1295   3.453   4.271   3.093 -3.6203  2.3827  0.7834
    4MOL   H150 1296   3.593   4.227   3.353 -0.3962  1.2643 -0.2039
    4MOL   H151 1297   3.531   4.099   3.247  2.8068 -1.4631  0.9294
    4MOL   H152 1298   3.271   4.141   3.392  0.4730  1.8858  0.2790
    4MOL   H153 1299   3.295   4.094   3.225 -0.4936  1.1728 -2.2417
    4MOL   C154 1300   3.698   4.210   3.159 -0.1048  0.0763 -0.0234
    4MOL   C155 1301   3.782   4.081   3.173 -0.0101  0.5498  0.6451
    4MOL   C156 1302   3.924   4.124   3.118 -0.2407 -0.1338  0.9328
    4MOL   C157 1303   3.920   4.274   3.088  0.7161  0.3011 -0.0281
    4MOL   C158 1304   4.042   4.352   3.114  0.2803  0.0595  0.3539
    4MOL   C159 1305   4.148   4.320   3.011  0.5530 -0.4221 -0.1150
    4MOL   C160 1306   3.795   4.328   3.164 -0.3308 -0.3742 -0.1082
    4MOL   H161 1307   3.660   4.198   3.057  1.9843 -0.1771 -0.8017
    4MOL   H162 1308   3.797   4.048   3.276 -0.0810  3.3228  1.6036
    4MOL   H163 1309   3.733   4.001   3.119 -1.9496  0.6280  2.2109
    4MOL   H164 1310   4.004   4.085   3.181  0.9102 -2.7962 -2.0939
    4MOL   H165 1311   3.945   4.083   3.020 -1.7782 -0.3585  0.6896
    4MOL   H166 1312   3.893   4.299   2.985  1.3239  0.7456 -0.0877
    4MOL   H167 1313   4.081   4.335   3.214  0.2874 -0.0051  0.3401
    4MOL   H168 1314   4.024   4.459   3.121  0.2464 -0.0191  1.7188
    4MOL   H169 1315   4.171   4.213   3.003 -0.3837 -0.6724  0.3766
    4MOL   H170 1316   4.129   4.355   2.910 -0.8524 -0.0913  0.2537
    4MOL   H171 1317   3.761   4.423   3.121 -3.1951 -1.1084  0.4507
    4MOL   H172 1318   3.826   4.353   3.265  0.8211 -0.5247 -0.4201
    4MOL   C173 1319   4.280   4.392   3.045  0.0670 -0.3500  0.4013
    4MOL   C174 1320   4.397   4.340   2.961  0.0074 -0.4586  0.5418
    4MOL   C175 1321   4.506   4.437   3.002  0.4497  0.7024  0.2860
    4MOL   C176 1322   4.441   4.568   3.054 -0.3699 -0.6763  0.8568
    4MOL   C177 1323   4.502   4.689   2.973  0.4440 -0.0525 -0.4395
    4MOL   C178 1324   4.658   4.716   2.993  0.7748  0.4318  0.6817
    4MOL   C179 1325   4.291   4.543   3.052 -0.3170  0.1327 -0.1750
    4MOL   H180 1326   4.303   4.365   3.148 -1.2886 -0.3011  0.7358
    4MOL   H181 1327   4.382   4.340   2.854  1.8521  0.1337  0.2505
    4MOL   H182 1328   4.430   4.239   2.983 -1.1858 -1.8993 -3.9564
    4MOL   H183 1329   4.563   4.398   3.087 -1.6288 -3.5197 -0.1655
    4MOL   H184 1330   4.580   4.451   2.924  0.0528  2.4178  0.1941
    4MOL   H185 1331   4.480   4.581   3.155  0.0443  0.1225  0.5965
    4MOL   H186 1332   4.448   4.783   2.980 -1.9170 -1.4757  1.3856
    4MOL   H187 1333   4.493   4.661   2.868  0.2958 -0.1454 -0.4026
    4MOL   H188 1334   4.696   4.782   2.914 -0.8326  0.9594  0.3277
    4MOL   H189 1335   4.714   4.624   2.978  2.3809  1.3876  0.6334
    4MOL   H190 1336   4.241   4.589   2.967  0.7921  0.4989 -0.6414
    4MOL   H191 1337   4.247   4.585   3.142  2.1785 -0.4887  1.3990
    4MOL   C192 1338   4.695   4.781   3.126  0.0928  0.0237 -0.2863
    4MOL   C193 1339   4.653   4.923   3.157  0.1470  0.6769 -0.4947
    4MOL   C194 1340   4.756   4.945   3.270 -0.0356 -0.4266  0.6339
    4MOL   C195 1341   4.890   4.880   3.224  0.1574  0.6398 -0.3836
    4MOL   C196 1342   4.974   4.847   3.356  0.3916  0.1751 -0.0510
    4MOL   C197 1343   5.124   4.841   3.324 -0.0876  0.4425  0.1276
    4MOL   C198 1344   4.847   4.769   3.130  0.1349 -0.3226 -0.2640
    4MOL   H199 1345   4.667   4.709   3.203  0.2372  0.5890  0.2988
    4MOL   H200 1346   4.673   4.991   3.075  1.9489 -2.0126 -2.3562
    4MOL   H201 1347   4.551   4.930   3.193  1.0173  1.0433  2.0404
    4MOL   H202 1348   4.721   4.889   3.356 -0.3308  1.2179  1.6042
    4MOL   H203 1349   4.762   5.053   3.284  0.8334 -0.5951  1.5738
    4MOL   H204 1350   4.941   4.954   3.163 -0.9581  2.2887  0.6577
    4MOL   H205 1351   4.934   4.761   3.411  0.2505  2.3742  3.4085
    4MOL   H206 1352   4.960   4.937   3.416 -1.2257 -0.5696  0.7288
    4MOL   H207 1353   5.156   4.934   3.276  0.2025  0.9110  1.2155
    4MOL   H208 1354   5.148   4.763   3.251 -1.4821 -1.5119  1.7181
    4MOL   H209 1355   4.871   4.664   3.143 -1.5315 -0.8716 -1.4121
    4MOL   H210 1356   4.899   4.792   3.037 -1.5741  0.7340 -0.9876
    4MOL   C211 1357   5.204   4.801   3.450  0.3833 -0.2981 -0.3504
    4MOL   C212 1358   5.197   4.908   3.564 -0.5457  0.9424 -0.0233
    4MOL   C213 1359   5.324   4.882   3.641  0.1132 -0.1229 -0.1100
    4MOL   C214 1360   5.432   4.832   3.540 -0.0030  0.1119 -0.4424
    4MOL   C215 1361   5.548   4.932   3.508  0.2742 -0.0767 -0.4977
    4MOL   C216 1362   5.516   5.074   3.463 -0.4138 -0.0458 -0.8887
    4MOL   C217 1363   5.352   4.789   3.417  0.7268  0.1186  0.4668
    4MOL   H218 1364   5.166   4.708   3.491  2.7880 -0.7427  0.9994
    4MOL   H219 1365   5.191   5.006   3.517  1.4286 -0.6687 -3.8482
    4MOL   H220 1366   5.113   4.890   3.631 -0.1453 -1.2107 -0.0595
    4MOL   H221 1367   5.357   4.971   3.694  1.2459 -0.0862 -0.8419
    4MOL   H222 1368   5.310   4.808   3.719 -1.9697  0.2600 -0.0998
    4MOL   H223 1369   5.471   4.744   3.591  0.6981  0.0478 -1.0853
    4MOL   H224 1370   5.608   4.894   3.425 -0.6193  0.3583 -1.3550
    4MOL   H225 1371   5.612   4.931   3.597 -1.7103 -1.2441  0.9445
    4MOL   H226 1372   5.455   5.065   3.373 -1.1031  1.4271 -0.5841
    4MOL   H227 1373   5.437   5.102   3.533 -1.0251  0.5168 -1.7970
    4MOL   H228 1374   5.377   4.692   3.372 -0.4227 -0.6154  1.3808
    4MOL   H229 1375   5.377   4.853   3.332  1.8196 -1.7677 -0.6810
    4MOL   C230 1376   5.632   5.172   3.469 -0.1264  0.4955 -0.3115
    4MOL   C231 1377   5.588   5.314   3.432  0.4800  0.2284 -0.3967
    4MOL   C232 1378   5.723   5.377   3.383 -0.4005 -0.2833 -0.2908
    4MOL   C233 1379   5.809   5.270   3.324 -0.4794 -0.1971  0.9213
    4MOL   C234 1380   5.955   5.299   3.358 -0.5269 -0.0206 -0.7228
    4MOL   C235 1381   6.044   5.199   3.290 -0.5419 -0.0635  0.3974
    4MOL   C236 1382   5.748   5.137   3.381 -0.2912  0.3762  0.1909
    4MOL   H237 1383   5.670   5.167   3.571  2.7024  1.1469 -1.2826
    4MOL   H238 1384   5.534   5.330   3.339 -0.2102 -1.9742 -0.3884
    4MOL   H239 1385   5.535   5.369   3.510  1.8775  2.5128 -0.9943
    4MOL   H240 1386   5.767   5.424   3.471 -0.8524 -1.7466  0.7434
    4MOL   H241 1387   5.711   5.453   3.306  2.4715 -0.1799 -0.6891
    4MOL   H242 1388   5.788   5.264   3.217  0.4489 -0.2818  0.7381
    4MOL   H243 1389   5.978   5.280   3.463  0.7365 -2.4169 -1.4159
    4MOL   H244 1390   5.990   5.398   3.326  2.0613 -1.2041 -1.6968
    4MOL   H245 1391   6.030   5.095   3.317 -0.0681 -0.5894 -1.3559
    4MOL   H246 1392   6.014   5.195   3.185  1.7309 -1.3049 -0.2213
    4MOL   H247 1393   5.827   5.090   3.439 -1.9197 -0.9830  1.3284
    4MOL   H248 1394   5.728   5.056   3.312  2.3224 -0.5925  0.5017
    4MOL   C249 1395   6.197   5.245   3.294  0.3457  0.8545  1.0668
    4MOL   C250 1396   6.251   5.277   3.429 -0.2066 -0.1248  0.3395
    4MOL   C251 1397   6.399   5.247   3.418 -0.1348  0.1115  0.0100
    4MOL   C252 1398   6.405   5.119   3.333  0.0668 -0.5174 -0.0462
    4MOL   C253 1399   6.535   5.085   3.273 -0.0388 -0.2517 -0.1598
    4MOL   C254 1400   6.642   5.034   3.369  0.3213  0.4636 -0.7729
    4MOL   C255 1401   6.293   5.144   3.237  0.1609 -0.3279  0.1374
    4MOL   H256 1402   6.196   5.334   3.231 -2.1148  0.8651  1.0747
    4MOL   H257 1403   6.236   5.379   3.465  1.2986  0.2153  0.0449
    4MOL   H258 1404   6.199   5.216   3.503 -1.0835  1.8066  1.3525
    4MOL   H259 1405   6.440   5.225   3.517  0.7155 -0.2289 -0.4062
    4MOL   H260 1406   6.448   5.331   3.369  0.2455  0.5234  1.0833
    4MOL   H261 1407   6.375   5.040   3.402 -1.5220  1.4900  1.6375
    4MOL   H262 1408   6.577   5.178   3.235 -1.3539  1.2860  1.9842
    4MOL   H263 1409   6.522   5.014   3.192  1.5632 -0.9511  0.1697
    4MOL   H264 1410   6.609   4.937   3.407  3.5403 -0.6160 -0.6291
    4MOL   H265 1411   6.640   5.101   3.455  0.2853 -2.4957  1.6248
    4MOL   H266 1412   6.239   5.057   3.200  0.8341  0.2022 -2.1649
    4MOL   H267 1413   6.332   5.185   3.144 -1.7865  2.8189  0.6103
    4MOL   C268 1414   6.781   5.028   3.307 -0.2692  0.2797  0.4982
    4MOL   C269 1415   6.804   4.921   3.199  0.2384  0.0724  0.4651
    4MOL   C270 1416   6.949   4.862   3.236  0.8458 -0.4694  0.3718
    4MOL   C271 1417   7.015   4.957   3.337  0.2477 -0.1070  0.3667
    4MOL   C272 1418   7.114   4.884   3.432  0.3515  0.0068  0.2777
    4MOL   C273 1419   7.162   4.963   3.556 -0.1429  0.0670  0.6301
    4MOL   C274 1420   6.895   5.011   3.416  0.4530  0.5333  0.4802
    4MOL   H275 1421   6.795   5.126   3.260  0.1929 -0.9577 -1.9774
    4MOL   H276 1422   6.729   4.842   3.189  0.0385  0.6584 -3.5097
    4MOL   H277 1423   6.810   4.975   3.104  0.2169 -1.9810 -0.7335
    4MOL   H278 1424   6.948   4.761   3.277  2.1430 -0.7040 -0.1339
    4MOL   H279 1425   7.006   4.855   3.144 -1.0352 -1.4242 -0.7509
    4MOL   H280 1426   7.066   5.034   3.278  0.3633 -0.4779 -0.0263
    4MOL   H281 1427   7.192   4.832   3.376 -0.6683 -2.0772  0.7315
    4MOL   H282 1428   7.057   4.803   3.477  0.2491 -0.0611  0.0247
    4MOL   H283 1429   7.195   5.063   3.529 -1.1911  0.4748  0.8461
    4MOL   H284 1430   7.083   4.966   3.630 -1.4567 -1.0904 -0.6867
    4MOL   H285 1431   6.863   4.940   3.492  0.2085  1.1720  0.9721
    4MOL   H286 1432   6.922   5.107   3.459  2.5418  0.7211 -1.1464
    4MOL   C287 1433   7.288   4.914   3.631  0.7957  0.7029  0.2459
    4MOL   C288 1434   7.315   4.983   3.756  0.1968 -0.3096  0.4715
    4MOL   C289 1435   7.390   4.880   3.847 -0.4517 -0.1871  0.1823
    4MOL   C290 1436   7.369   4.741   3.776  0.4429  0.3369  0.6934
    4MOL   C291 1437   7.350   4.627   3.874 -0.0109 -0.0114  0.1874
    4MOL   C292 1438   7.468   4.612   3.973  0.0431  0.9071 -0.1453
    4MOL   C293 1439   7.271   4.769   3.671  0.7644 -0.1723 -0.2768
    4MOL   H294 1440   7.377   4.914   3.569  0.7321  0.1973  0.1507
    4MOL   H295 1441   7.379   5.070   3.745 -1.1410  0.6398  0.0856
    4MOL   H296 1442   7.223   5.022   3.800  0.0235  0.8764 -0.9232
    4MOL   H297 1443   7.338   4.886   3.943  0.6882  0.1201  0.7827
    4MOL   H298 1444   7.493   4.906   3.869  0.0179 -0.8358 -1.1982
    4MOL   H299 1445   7.456   4.713   3.717 -0.7075 -1.2616 -0.2751
    4MOL   H300 1446   7.352   4.541   3.808 -0.0478  2.1963 -2.7869
    4MOL   H301 1447   7.258   4.630   3.933 -0.1563 -1.0578  0.0213
    4MOL   H302 1448   7.446   4.678   4.057 -0.7746  1.9406 -1.1592
    4MOL   H303 1449   7.553   4.664   3.928 -0.8350  1.1165 -1.5940
    4MOL   H304 1450   7.167   4.755   3.702  0.4859 -2.3001 -2.0006
    4MOL   H305 1451   7.278   4.702   3.585  1.7216  0.1204 -0.4251
    4MOL   C306 1452   7.500   4.468   4.028  0.3135  0.2131  0.7208
    4MOL   C307 1453   7.578   4.375   3.930  0.0550 -0.0218  0.0130
    4MOL   C308 1454   0.017   4.278   4.021  0.4342 -0.3943 -0.3269
    4MOL   C309 1455   0.004   4.332   4.159 -0.0807  1.0985 -0.6119
    4MOL   C310 1456   0.127   4.317   4.243  0.4629 -0.3618 -0.3946
    4MOL   C311 1457   0.106   4.343   4.392 -0.1526  0.4833  0.0180
    4MOL   C312 1458   7.598   4.474   4.148  0.0879  0.7620  0.1231
    4MOL   H313 1459   7.408   4.423   4.065  0.4012 -0.6830 -0.1380
    4MOL   H314 1460   7.510   4.329   3.858 -1.6327  0.7021  1.1099
    4MOL   H315 1461   7.647   4.419   3.858  1.3636  0.2029  1.3708
    4MOL   H316 1462   7.632   4.175   4.005 -1.2737 -0.0323  0.6710
    4MOL   H317 1463   0.120   4.267   3.986  0.7129  0.8735  0.0834
    4MOL   H318 1464   7.570   4.273   4.202  1.1191 -0.3999 -0.3721
    4MOL   H319 1465   0.166   4.218   4.221  0.1871 -1.1618  2.6277
    4MOL   H320 1466   0.199   4.391   4.205  1.4653 -0.2322  1.7177
    4MOL   H321 1467   0.035   4.266   4.425 -0.3593  0.7090  0.0971
    4MOL   H322 1468   0.060   4.442   4.395 -1.0453  0.1037 -0.7934
    4MOL   H323 1469   0.033   4.543   4.130 -0.3545  1.3509  0.3574
    4MOL   H324 1470   7.541   4.505   4.236 -0.3765 -0.7089  0.3624
    4MOL   C325 1471   0.237   4.330   4.477  0.7843 -0.1600 -0.1140
    4MOL   C326 1472   0.214   4.380   4.620  0.5363  1.0566 -0.5866
    4MOL   C327 1473   0.329   4.310   4.705  0.3958  0.4153 -0.6950
    4MOL   C328 1474   0.313   4.163   4.660 -0.5276 -0.0294 -0.2062
    4MOL   C329 1475   0.430   4.062   4.703  0.2120 -0.4084 -0.1385
    4MOL   C330 1476   0.398   3.920   4.681  0.9536  0.2220  0.1134
    4MOL   C331 1477   0.280   4.181   4.505 -0.4005 -0.4030 -0.0626
    4MOL   H332 1478   0.324   4.383   4.439 -0.0819  0.4320 -1.3007
    4MOL   H333 1479   0.119   4.349   4.662  0.6801  0.8919 -0.3860
    4MOL   H334 1480   0.228   4.488   4.616 -0.7664  1.2941  0.7848
    4MOL   H335 1481   0.430   4.342   4.682  0.4128  1.6465  0.9753
    4MOL   H336 1482   0.304   4.330   4.810  0.8046 -1.2155 -0.2610
    4MOL   H337 1483   0.223   4.132   4.713  0.7612 -2.2063  0.7499
    4MOL   H338 1484   0.519   4.084   4.644  0.2757 -0.0472  0.0951
    4MOL   H339 1485   0.457   4.072   4.808  2.2266  2.1292 -0.8410
    4MOL   H340 1486   0.311   3.897   4.743  0.5829  2.0739  0.3111
    4MOL   H341 1487   0.367   3.899   4.579 -0.2869 -0.1112  0.5510
    4MOL   H342 1488   0.194   4.120   4.479 -0.0753 -0.0943 -1.9886
    4MOL   H343 1489   0.359   4.147   4.439 -0.4600  0.0791 -0.3857
    4MOL   C344 1490   0.513   3.828   4.721  0.8902  0.0526 -0.5860
    4MOL   C345 1491   0.637   3.850   4.641 -0.2680 -0.7611  0.0707
    4MOL   C346 1492   0.718   3.721   4.640  0.8063 -0.4049 -0.5435
    4MOL   C347 1493   0.613   3.615   4.625 -0.2051 -0.5916  0.2172
    4MOL   C348 1494   0.638   3.479   4.682  0.2167 -0.4884 -0.2329
    4MOL   C349 1495   0.740   3.406   4.598  0.0720 -0.2553  0.7946
    4MOL   C350 1496   0.493   3.674   4.701 -0.9783  0.6702  0.7975
    4MOL   H351 1497   0.544   3.852   4.823 -0.7872 -0.8287  0.1456
    4MOL   H352 1498   0.700   3.933   4.672  1.2601 -1.5330 -0.9647
    4MOL   H353 1499   0.621   3.881   4.538  2.3948  4.0298  0.9579
    4MOL   H354 1500   0.786   3.714   4.555  0.3383  0.5140 -1.0037
    4MOL   H355 1501   0.782   3.719   4.728 -0.6804 -0.4762  0.5432
    4MOL   H356 1502   0.592   3.607   4.519  0.9077 -0.1875 -0.0339
    4MOL   H357 1503   0.657   3.469   4.789 -1.1032  1.4565  0.2202
    4MOL   H358 1504   0.547   3.424   4.660 -0.0126 -0.3341  0.3098
    4MOL   H359 1505   0.835   3.460   4.601 -0.3444  0.4929  0.5161
    4MOL   H360 1506   0.712   3.412   4.493 -0.4613 -1.4896  0.8456
    4MOL   H361 1507   0.398   3.651   4.651 -0.7546 -0.8839  1.0841
    4MOL   H362 1508   0.464   3.611   4.785  0.9246 -2.2497 -0.6816
    4MOL   C363 1509   0.742   3.253   4.645  0.5533 -0.1167 -0.2302
    4MOL   C364 1510   0.851   3.227   4.754 -0.3085 -0.3094  0.3282
    4MOL   C365 1511   0.940   3.121   4.688  0.1968  0.3297 -0.7132
    4MOL   C366 1512   0.853   3.053   4.581 -0.5644  0.7832  0.2107
    4MOL   C367 1513   0.929   2.986   4.460  0.4850 -0.1856  0.5487
    4MOL   C368 1514   0.837   2.904   4.378  0.3834  0.0255  0.1448
    4MOL   C369 1515   0.772   3.166   4.528 -0.3705  0.2317 -0.8107
    4MOL   H370 1516   0.643   3.232   4.684  0.2401  0.8082 -0.5041
    4MOL   H371 1517   0.916   3.313   4.771 -0.1896 -0.3965  0.3092
    4MOL   H372 1518   0.813   3.199   4.852 -1.6332 -1.4961 -0.5124
    4MOL   H373 1519   1.031   3.165   4.648  1.8135 -1.1100  1.2800
    4MOL   H374 1520   0.972   3.050   4.764 -1.7234 -1.2501 -1.3311
    4MOL   H375 1521   0.784   2.995   4.641 -0.1937 -0.2675 -0.3553
    4MOL   H376 1522   0.975   3.059   4.394  0.5965  1.0018  1.9017
    4MOL   H377 1523   1.009   2.918   4.489 -0.1423 -1.1311  0.0675
    4MOL   H378 1524   0.841   2.798   4.403  2.4954 -0.1504 -0.8068
    4MOL   H379 1525   0.873   2.911   4.275 -0.0847 -0.5590 -0.0646
    4MOL   H380 1526   0.817   3.211   4.439  2.2355 -0.7056 -0.0296
    4MOL   H381 1527   0.677   3.127   4.492 -0.1428 -1.6856  0.6174
    4MOL   H382 1528   0.731   2.928   4.377  0.4407  0.2553 -0.7576
    5MOL     C1 1529   6.090   4.797   5.939  0.6141  0.0014  0.0701
    5MOL     C2 1530   6.037   4.648   5.934  0.6687 -0.1693 -0.3647
    5MOL     C3 1531   6.136   4.566   5.851  0.3612  0.2858  0.5359
    5MOL     C4 1532   6.267   4.647   5.853 -0.9731  0.2826 -0.0955
    5MOL     C5 1533   6.378   4.625   5.754  0.4894 -0.3384 -0.1631
    5MOL     C6 1534   6.421   4.485   5.744  0.1198 -0.0048  0.2096
    5MOL     C7 1535   6.218   4.799   5.856 -0.3554 -0.4268 -0.7634
    5MOL     H8 1536   6.032   4.877   5.893 -1.7200 -1.9409 -0.5061
    5MOL     H9 1537   5.941   4.653   5.883  0.0395  2.2844  0.9871
    5MOL    H10 1538   6.013   4.599   6.029  0.6968  0.0435 -0.2468
    5MOL    H11 1539   6.157   4.468   5.894  2.4629  0.5651  0.2063
    5MOL    H12 1540   6.114   4.547   5.745  0.5672 -0.3737  0.6087
    5MOL    H13 1541   6.304   4.626   5.953 -1.8855  0.1410  0.2163
    5MOL    H14 1542   6.356   4.649   5.650 -0.5105 -0.7886 -0.0590
    5MOL    H15 1543   6.460   4.693   5.777  0.8419 -0.4069 -1.2190
    5MOL    H16 1544   6.411   4.430   5.838 -2.7133  0.2258  0.0676
    5MOL    H17 1545   6.352   4.427   5.683  1.4556  0.4185 -1.7308
    5MOL    H18 1546   6.294   4.862   5.902  0.3614 -3.1126  1.9549
    5MOL    H19 1547   6.189   4.840   5.759 -0.7451  0.9093 -0.0926
    5MOL    H20 1548   6.106   4.837   6.039 -1.9370  0.8680  0.1777
    5MOL    C21 1549   6.560   4.469   5.683 -0.6974  0.5810  0.6069
    5MOL    C22 1550   6.601   4.321   5.656 -0.1363 -0.5915 -0.0405
    5MOL    C23 1551   6.690   4.321   5.526 -0.2366 -0.5739  0.0046
    5MOL    C24 1552   6.690   4.469   5.479  0.9433  0.2754  0.5512
    5MOL    C25 1553   6.688   4.493   5.324  0.0808  0.6332 -0.1816
    5MOL    C26 1554   6.821   4.465   5.259  0.1034 -0.1702 -0.3023
    5MOL    C27 1555   6.564   4.527   5.544 -0.6986  0.3595  0.3950
    5MOL    H28 1556   6.628   4.520   5.752  0.9630  0.6912 -1.0677
    5MOL    H29 1557   6.642   4.274   5.745 -2.3041  0.5564  1.6258
    5MOL    H30 1558   6.514   4.262   5.627 -0.4906 -0.2614  0.3361
    5MOL    H31 1559   6.791   4.287   5.548 -0.4592 -0.7018  0.8588
    5MOL    H32 1560   6.651   4.250   5.453 -0.0353 -1.7690  1.0530
    5MOL    H33 1561   6.778   4.512   5.526  0.8260  0.5456  0.5263
    5MOL    H34 1562   6.666   4.597   5.301  1.5574  0.7848 -0.9391
    5MOL    H35 1563   6.608   4.429   5.287  1.1699 -1.2306  0.5688
    5MOL    H36 1564   6.862   4.371   5.296  1.2849  0.5154  0.1579
    5MOL    H37 1565   6.894   4.535   5.300  0.4413 -1.6158  1.6433
    5MOL    H38 1566   6.570   4.636   5.550 -0.0880  0.2033  3.3118
    5MOL    H39 1567   6.468   4.513   5.494 -1.9546  0.1152  2.8047
    5MOL    C40 1568   6.820   4.475   5.109  0.0939  0.3002 -0.2047
    5MOL    C41 1569   6.813   4.620   5.063 -0.1067 -0.0211  0.1370
    5MOL    C42 1570   6.865   4.612   4.921  0.4696  0.9436 -0.4154
    5MOL    C43 1571   6.986   4.521   4.929 -0.8755  0.1115  0.5596
    5MOL    C44 1572   7.026   4.450   4.802  0.5073  0.7316 -0.2527
    5MOL    C45 1573   7.026   4.544   4.678 -0.7446  0.0030  0.0947
    5MOL    C46 1574   6.953   4.419   5.044 -0.3745 -0.7210  0.3915
    5MOL    H47 1575   6.743   4.411   5.067 -1.5495  2.1749 -0.1295
    5MOL    H48 1576   6.883   4.675   5.126 -1.5945  1.2514  0.7166
    5MOL    H49 1577   6.714   4.661   5.082 -0.5628 -1.4096  0.7895
    5MOL    H50 1578   6.782   4.583   4.856  0.3331 -0.9424  0.5765
    5MOL    H51 1579   6.888   4.711   4.880  0.3957  0.8785 -0.6121
    5MOL    H52 1580   7.062   4.586   4.971 -1.2544 -0.5255  2.3052
    5MOL    H53 1581   7.128   4.415   4.810  0.1489 -0.1896  0.4233
    5MOL    H54 1582   6.964   4.362   4.789 -0.6279  1.1100  2.1267
    5MOL    H55 1583   7.084   4.632   4.706 -2.0808  0.6764  0.7943
    5MOL    H56 1584   6.922   4.571   4.658 -0.4170  2.1048  1.1181
    5MOL    H57 1585   6.931   4.318   5.010 -0.5619 -0.3088 -0.7694
    5MOL    H58 1586   7.032   4.414   5.118  0.8258 -0.5283 -0.8406
    5MOL    C59 1587   7.092   4.497   4.553  0.2084  0.3418  0.4384
    5MOL    C60 1588   7.021   4.369   4.500  0.2366  0.0488  0.5869
    5MOL    C61 1589   6.913   4.427   4.404  0.5825 -0.2634 -0.0551
    5MOL    C62 1590   6.959   4.575   4.363 -0.8439  0.3278 -0.4608
    5MOL    C63 1591   6.974   4.614   4.216 -0.0133  0.5550  0.2996
    5MOL    C64 1592   6.830   4.650   4.152  0.2501 -0.4622  0.7072
    5MOL    C65 1593   7.091   4.603   4.438 -0.5974  0.3871  0.0431
    5MOL    H66 1594   7.195   4.463   4.571 -0.0269  0.0467  1.2542
    5MOL    H67 1595   7.090   4.300   4.451 -1.0654 -0.9077  0.0580
    5MOL    H68 1596   6.975   4.308   4.577  0.5222 -1.5876 -0.5073
    5MOL    H69 1597   6.893   4.375   4.311 -0.1820 -0.4834  0.2247
    5MOL    H70 1598   6.815   4.432   4.451  0.5812  2.2622 -0.2631
    5MOL    H71 1599   6.884   4.642   4.405 -1.6823 -1.0718  0.3110
    5MOL    H72 1600   7.023   4.531   4.165 -1.0547 -0.0967  0.3479
    5MOL    H73 1601   7.042   4.696   4.194 -0.3821  0.2714 -2.0646
    5MOL    H74 1602   6.762   4.570   4.184  0.0034 -0.5497 -0.0289
    5MOL    H75 1603   6.794   4.741   4.200 -0.0966  0.7090 -1.6762
    5MOL    H76 1604   7.180   4.590   4.377 -0.8973  2.1416 -0.7936
    5MOL    H77 1605   7.084   4.708   4.466  0.6999  0.6865 -0.7082
    5MOL    C78 1606   6.824   4.655   3.999 -0.7241 -0.0437  0.9966
    5MOL    C79 1607   6.682   4.690   3.949 -0.3926 -0.6903  0.6774
    5MOL    C80 1608   6.714   4.745   3.808 -0.1299 -0.1963 -0.6130
    5MOL    C81 1609   6.830   4.839   3.833  0.0845 -0.1656 -0.1953
    5MOL    C82 1610   6.804   4.984   3.889 -0.2969 -0.2199  0.0065
    5MOL    C83 1611   6.696   5.076   3.815 -0.2818 -0.2254 -0.4875
    5MOL    C84 1612   6.918   4.763   3.937  0.3215  0.3066 -0.1333
    5MOL    H85 1613   6.857   4.556   3.964  0.8087  0.3401  1.3377
    5MOL    H86 1614   6.631   4.594   3.939  4.5750 -3.4679  0.0040
    5MOL    H87 1615   6.628   4.763   4.009  0.5180  0.5909 -0.0368
    5MOL    H88 1616   6.751   4.666   3.743  0.0106 -1.8655  1.4408
    5MOL    H89 1617   6.628   4.794   3.762  0.2125  1.8647  0.8866
    5MOL    H90 1618   6.883   4.856   3.739  0.3995  0.9740  0.1821
    5MOL    H91 1619   6.897   5.042   3.895 -1.0874  0.9841  0.7062
    5MOL    H92 1620   6.781   4.977   3.995 -2.4443  1.0691 -0.3379
    5MOL    H93 1621   6.597   5.039   3.841 -0.1308 -0.2815  0.0256
    5MOL    H94 1622   6.704   5.057   3.708  1.6035 -0.3139 -0.3561
    5MOL    H95 1623   6.961   4.822   4.018 -0.7211 -0.9353  1.3510
    5MOL    H96 1624   7.007   4.719   3.892 -0.2144 -0.4146 -0.4956
    5MOL    C97 1625   6.717   5.223   3.841  0.2234  0.1118 -0.0804
    5MOL    C98 1626   6.714   5.280   3.982  0.1321  0.0794 -0.8937
    5MOL    C99 1627   6.658   5.414   3.978  0.2950  0.0061 -0.7824
    5MOL   C100 1628   6.630   5.441   3.830 -0.0163  0.4188 -0.2045
    5MOL   C101 1629   6.503   5.523   3.812  0.1331 -0.7895 -0.0976
    5MOL   C102 1630   6.469   5.550   3.664  0.3013 -0.1487  0.3175
    5MOL   C103 1631   6.613   5.311   3.760  0.1878  0.5792 -0.2453
    5MOL   H104 1632   6.815   5.251   3.801 -0.1474  0.1874 -0.9642
    5MOL   H105 1633   6.655   5.208   4.038 -1.1392  0.8330 -1.2422
    5MOL   H106 1634   6.813   5.301   4.024  0.2952 -0.4205 -1.0234
    5MOL   H107 1635   6.564   5.419   4.032  0.8276 -2.4908  0.4433
    5MOL   H108 1636   6.714   5.497   4.022 -0.7910  0.1204  0.4242
    5MOL   H109 1637   6.715   5.493   3.786  1.7140 -0.1480  2.3386
    5MOL   H110 1638   6.420   5.480   3.868  0.7146  0.7875  2.0309
    5MOL   H111 1639   6.516   5.611   3.874 -1.7027 -0.0333 -0.7546
    5MOL   H112 1640   6.559   5.580   3.610  1.4147 -0.0306  2.2231
    5MOL   H113 1641   6.439   5.455   3.620  1.1604 -0.3794  0.2272
    5MOL   H114 1642   6.519   5.259   3.781  1.1526 -1.2226 -0.2861
    5MOL   H115 1643   6.622   5.304   3.652 -0.2038  1.1587 -0.3211
    5MOL   C116 1644   6.349   5.645   3.636  0.1694  0.2191  0.4030
    5MOL   C117 1645   6.333   5.684   3.490  0.4774 -0.5282 -0.0883
    5MOL   C118 1646   6.185   5.725   3.477 -0.1334 -0.2414  0.5090
    5MOL   C119 1647   6.122   5.704   3.618  0.1812  0.0968 -0.6725
    5MOL   C120 1648   5.974   5.652   3.614  0.5438 -0.0548  0.2885
    5MOL   C121 1649   5.880   5.748   3.534 -0.0994  0.5561 -0.1217
    5MOL   C122 1650   6.214   5.601   3.681  0.0268 -0.6970 -0.1559
    5MOL   H123 1651   6.387   5.734   3.686  1.2724 -0.5222  0.8997
    5MOL   H124 1652   6.370   5.612   3.417 -0.6507  0.8886 -2.0832
    5MOL   H125 1653   6.384   5.779   3.476 -0.8294  0.0465 -0.9963
    5MOL   H126 1654   6.132   5.661   3.406  0.3829  0.5596 -0.6208
    5MOL   H127 1655   6.172   5.826   3.437  2.6340  0.7774  2.0727
    5MOL   H128 1656   6.122   5.796   3.676 -2.0152  0.5767 -1.3683
    5MOL   H129 1657   5.939   5.651   3.717 -1.0340 -1.2887 -0.2416
    5MOL   H130 1658   5.983   5.554   3.568  2.7814 -0.4734  1.5869
    5MOL   H131 1659   5.902   5.748   3.428 -2.2746 -1.7849 -0.6166
    5MOL   H132 1660   5.902   5.851   3.563  1.1724  0.3339 -0.2816
    5MOL   H133 1661   6.210   5.594   3.790  0.8930 -2.5503 -0.2171
    5MOL   H134 1662   6.193   5.501   3.644  1.9044 -0.6347 -1.4746
    5MOL   C135 1663   5.729   5.718   3.573 -0.1960 -0.4471 -0.7233
    5MOL   C136 1664   5.671   5.809   3.684  0.5777 -0.0337  0.3154
    5MOL   C137 1665   5.522   5.799   3.666  0.4721  0.6364 -0.1823
    5MOL   C138 1666   5.503   5.804   3.513 -0.0046 -0.0553  0.7269
    5MOL   C139 1667   5.372   5.742   3.447  0.3921  0.3413 -0.0415
    5MOL   C140 1668   5.332   5.600   3.496 -0.1378  0.7178  0.0612
    5MOL   C141 1669   5.627   5.725   3.462  0.5476 -0.3592  0.2820
    5MOL   H142 1670   5.725   5.611   3.589 -1.2892 -0.3228 -0.1723
    5MOL   H143 1671   5.696   5.756   3.776  0.9053  1.1836  0.9354
    5MOL   H144 1672   5.716   5.908   3.678  2.4181 -0.8241  0.7386
    5MOL   H145 1673   5.484   5.717   3.727 -0.3341 -0.6543 -2.4032
    5MOL   H146 1674   5.467   5.889   3.695  1.0823  1.1529 -0.6169
    5MOL   H147 1675   5.516   5.909   3.486 -1.2767 -0.1209 -0.1492
    5MOL   H148 1676   5.390   5.741   3.339 -0.7525 -1.5431 -0.2384
    5MOL   H149 1677   5.283   5.806   3.446  0.7024  0.7805 -1.3266
    5MOL   H150 1678   5.424   5.543   3.506  0.2347  1.4264  0.7885
    5MOL   H151 1679   5.286   5.602   3.595  0.0372 -2.0098  0.2316
    5MOL   H152 1680   5.679   5.766   3.375 -0.7053 -0.0238 -0.3162
    5MOL   H153 1681   5.606   5.623   3.430  1.4243 -0.3832 -0.2437
    5MOL   C154 1682   5.231   5.517   3.414 -0.0251 -0.1366 -1.3278
    5MOL   C155 1683   5.198   5.373   3.458  0.5231  0.1727 -0.3609
    5MOL   C156 1684   5.175   5.295   3.327  0.1902  0.4468  0.7778
    5MOL   C157 1685   5.158   5.393   3.216  0.2051 -0.1359 -0.2005
    5MOL   C158 1686   5.190   5.347   3.067  0.0560  0.3197  0.0890
    5MOL   C159 1687   5.140   5.443   2.955  0.0925  0.1082 -0.5155
    5MOL   C160 1688   5.260   5.501   3.262 -0.1944  0.9599 -0.5336
    5MOL   H161 1689   5.148   5.585   3.430 -0.9768 -1.7911  1.1935
    5MOL   H162 1690   5.280   5.321   3.506 -1.8532 -3.2606  0.1311
    5MOL   H163 1691   5.106   5.353   3.514 -0.3234  0.3689 -1.6581
    5MOL   H164 1692   5.255   5.225   3.301 -0.4306  0.0650 -0.1471
    5MOL   H165 1693   5.091   5.227   3.315  0.4259  0.1343  0.8629
    5MOL   H166 1694   5.058   5.431   3.233 -0.5177 -1.7113 -0.8001
    5MOL   H167 1695   5.140   5.252   3.048 -0.0616 -0.1198  2.5307
    5MOL   H168 1696   5.299   5.345   3.062  0.0576  0.4887  0.0498
    5MOL   H169 1697   5.032   5.425   2.953  0.4252 -2.0383 -0.4292
    5MOL   H170 1698   5.147   5.552   2.964  1.1751  0.0195 -0.2135
    5MOL   H171 1699   5.253   5.588   3.196 -0.4391 -0.5284 -2.5175
    5MOL   H172 1700   5.365   5.475   3.252 -0.1155  2.1476 -3.1743
    5MOL   C173 1701   5.208   5.402   2.823  0.2812  0.0594  0.0767
    5MOL   C174 1702   5.145   5.474   2.699 -0.2597  0.2440 -0.1141
    5MOL   C175 1703   5.258   5.503   2.604 -0.1541 -0.2764 -0.0372
    5MOL   C176 1704   5.385   5.434   2.656  0.2403  0.3276 -0.5756
    5MOL   C177 1705   5.520   5.491   2.617 -0.5318 -0.0292  0.6252
    5MOL   C178 1706   5.635   5.393   2.632 -0.0885 -0.4158  0.0040
    5MOL   C179 1707   5.360   5.416   2.810  0.0388 -0.4098 -0.6332
    5MOL   H180 1708   5.195   5.297   2.799 -0.9999  0.0914  0.5737
    5MOL   H181 1709   5.088   5.563   2.723  1.2676  0.2414  3.8746
    5MOL   H182 1710   5.085   5.403   2.643  1.2769 -0.6411 -0.6887
    5MOL   H183 1711   5.232   5.468   2.504  2.5260 -2.3974 -0.0595
    5MOL   H184 1712   5.266   5.611   2.594  0.0983 -0.2920 -0.0108
    5MOL   H185 1713   5.385   5.330   2.624 -0.6043  0.0472  0.3116
    5MOL   H186 1714   5.545   5.574   2.683  0.5468 -0.7004  1.0737
    5MOL   H187 1715   5.510   5.531   2.516 -3.6617  0.1839  0.9710
    5MOL   H188 1716   5.615   5.301   2.577 -1.6578 -0.1009  0.0347
    5MOL   H189 1717   5.642   5.366   2.737 -0.5862 -0.7893 -0.0588
    5MOL   H190 1718   5.398   5.514   2.838 -1.0113  0.8069 -3.2634
    5MOL   H191 1719   5.396   5.324   2.856  0.9466 -1.0351 -2.5446
    5MOL   C192 1720   5.765   5.457   2.579 -0.1400  0.1777  0.4315
    5MOL   C193 1721   5.771   5.463   2.422  0.8883  0.8681 -0.3334
    5MOL   C194 1722   5.869   5.354   2.376 -0.3958  0.8112 -0.3162
    5MOL   C195 1723   5.905   5.270   2.502 -0.4294  0.0050  0.1142
    5MOL   C196 1724   6.044   5.195   2.507 -0.1279  0.0928  0.1663
    5MOL   C197 1725   6.071   5.098   2.389  0.0347 -0.4676  0.1620
    5MOL   C198 1726   5.892   5.375   2.618 -0.2972  0.4779 -0.2488
    5MOL   H199 1727   5.776   5.557   2.622  1.9511  0.9086 -1.6449
    5MOL   H200 1728   5.669   5.439   2.391  0.1512  1.1170  1.7991
    5MOL   H201 1729   5.800   5.563   2.389  2.5647  0.3389 -0.4812
    5MOL   H202 1730   5.949   5.398   2.317 -1.1249  1.8718 -0.5247
    5MOL   H203 1731   5.816   5.289   2.306  2.8330 -0.6546 -1.4793
    5MOL   H204 1732   5.838   5.186   2.515 -0.4557  0.3657  2.6487
    5MOL   H205 1733   6.047   5.137   2.598  0.9700  0.6940  0.5209
    5MOL   H206 1734   6.116   5.277   2.503 -1.1383  0.9156 -3.0323
    5MOL   H207 1735   6.044   5.144   2.294 -3.1070  0.5651  1.4976
    5MOL   H208 1736   5.998   5.018   2.399 -1.3618  0.9248  1.2141
    5MOL   H209 1737   5.986   5.429   2.630 -1.0996  1.5649  1.2992
    5MOL   H210 1738   5.886   5.332   2.719 -2.9197 -1.6047 -1.2043
    5MOL   C211 1739   6.208   5.040   2.387  0.5066  0.4671 -0.4025
    5MOL   C212 1740   6.309   5.141   2.329  0.4839 -0.3116 -0.6529
    5MOL   C213 1741   6.311   5.117   2.181 -0.1849 -0.0250  0.0467
    5MOL   C214 1742   6.312   4.965   2.175 -0.4144  0.1767  0.1584
    5MOL   C215 1743   6.265   4.905   2.045 -0.1246 -0.1132  0.5842
    5MOL   C216 1744   6.306   4.767   2.027  0.2548  0.1069  0.1079
    5MOL   C217 1745   6.223   4.922   2.292  0.1482  0.2537 -0.7026
    5MOL   H218 1746   6.242   5.000   2.483  0.1762  1.3371  0.0895
    5MOL   H219 1747   6.288   5.245   2.351  1.8775 -0.1617  0.0373
    5MOL   H220 1748   6.409   5.130   2.371  0.0676 -2.2236 -0.1341
    5MOL   H221 1749   6.224   5.154   2.126 -0.8806  0.1435  1.2411
    5MOL   H222 1750   6.403   5.166   2.148  0.3758 -1.2001 -0.1645
    5MOL   H223 1751   6.413   4.930   2.197 -0.4700  0.4779  0.9134
    5MOL   H224 1752   6.307   4.967   1.966  0.9267  0.2943  1.4472
    5MOL   H225 1753   6.160   4.919   2.020  0.5110  0.5775 -1.8933
    5MOL   H226 1754   6.414   4.767   2.041 -0.0183  0.5643  2.3412
    5MOL   H227 1755   6.265   4.714   2.113  2.0818 -0.0649  0.8789
    5MOL   H228 1756   6.241   4.825   2.338 -0.9579 -0.5093 -1.8346
    5MOL   H229 1757   6.125   4.909   2.246  0.7897 -0.2818 -1.9611
    5MOL   C230 1758   6.286   4.696   1.893  1.1881 -0.3462  0.2821
    5MOL   C231 1759   6.324   4.545   1.918  0.0587  0.1033 -0.1145
    5MOL   C232 1760   6.425   4.512   1.800  0.7505  0.3592  0.5668
    5MOL   C233 1761   6.497   4.637   1.775  0.0641 -0.3255  0.2770
    5MOL   C234 1762   6.574   4.633   1.641  1.1625  0.6854 -0.9458
    5MOL   C235 1763   6.654   4.753   1.604 -0.0901 -0.6596 -0.2872
    5MOL   C236 1764   6.386   4.748   1.783 -0.8125  0.4360  0.4315
    5MOL   H237 1765   6.180   4.704   1.867  1.4099 -0.9551 -0.8716
    5MOL   H238 1766   6.372   4.530   2.014 -0.3172 -0.4196 -0.0057
    5MOL   H239 1767   6.233   4.485   1.918 -1.2252  1.9722  2.1114
    5MOL   H240 1768   6.364   4.476   1.717 -1.2379  0.1356  2.0903
    5MOL   H241 1769   6.487   4.424   1.819  1.0269  0.5606  0.6011
    5MOL   H242 1770   6.564   4.645   1.860 -1.0025  1.9428  0.9416
    5MOL   H243 1771   6.492   4.613   1.572 -0.8396  0.3184  1.4791
    5MOL   H244 1772   6.642   4.548   1.641  2.6063  1.8235 -0.5754
    5MOL   H245 1773   6.699   4.737   1.506  0.8605 -0.8497  0.1754
    5MOL   H246 1774   6.598   4.846   1.588  2.2291  0.4483 -2.4821
    5MOL   H247 1775   6.338   4.758   1.686  0.4085 -0.4381 -0.2790
    5MOL   H248 1776   6.436   4.842   1.804 -2.6835  1.4913  0.2220
    5MOL   C249 1777   6.767   4.786   1.706 -0.1082 -0.8980  0.4558
    5MOL   C250 1778   6.875   4.672   1.713 -0.1436 -0.2508  0.5442
    5MOL   C251 1779   6.999   4.740   1.768  0.4300 -0.2970  0.1938
    5MOL   C252 1780   7.006   4.876   1.696  0.0784  0.2313 -0.4094
    5MOL   C253 1781   7.066   4.992   1.779  0.4965 -0.0606  0.0553
    5MOL   C254 1782   7.094   5.125   1.706  1.2403 -0.1811  0.1850
    5MOL   C255 1783   6.853   4.905   1.661 -0.4537  1.5648 -1.2043
    5MOL   H256 1784   6.738   4.797   1.810 -0.9001 -1.3063  0.2815
    5MOL   H257 1785   6.837   4.584   1.764 -1.5475  1.1782  2.0169
    5MOL   H258 1786   6.904   4.636   1.614 -1.4006  2.0265 -0.6898
    5MOL   H259 1787   7.091   4.683   1.759 -0.6018 -2.0051  0.1970
    5MOL   H260 1788   6.983   4.754   1.875 -1.0678 -0.5135  0.0090
    5MOL   H261 1789   7.073   4.867   1.611 -0.9058  2.2264 -1.4143
    5MOL   H262 1790   7.162   4.952   1.810  0.9175 -0.4700 -1.7165
    5MOL   H263 1791   7.003   5.012   1.866  0.5133  0.2782 -0.0105
    5MOL   H264 1792   7.011   5.184   1.668  1.9142  2.3038  2.3865
    5MOL   H265 1793   7.150   5.094   1.618 -1.3545  0.4758 -1.7672
    5MOL   H266 1794   6.833   4.933   1.558 -0.1692  0.8924 -1.4461
    5MOL   H267 1795   6.820   4.988   1.724 -1.7564 -0.2102  0.5249
    5MOL   C268 1796   7.185   5.221   1.788 -0.1593  0.4369 -0.5296
    5MOL   C269 1797   7.118   5.282   1.916  0.6544  0.7986 -0.2718
    5MOL   C270 1798   7.179   5.423   1.941 -0.1882 -0.6885 -0.6324
    5MOL   C271 1799   7.276   5.444   1.823 -0.3735 -1.5243  0.6591
    5MOL   C272 1800   7.285   5.595   1.795  0.4269 -0.5218  0.5662
    5MOL   C273 1801   7.380   5.639   1.685  0.0175 -0.8885 -0.2235
    5MOL   C274 1802   7.216   5.353   1.713 -0.7300  0.6638 -0.2342
    5MOL   H275 1803   7.283   5.176   1.806 -0.2561  0.8314  1.0904
    5MOL   H276 1804   7.011   5.297   1.907  0.1466 -2.1142  0.6462
    5MOL   H277 1805   7.132   5.216   2.002 -1.8128  1.0040  0.3032
    5MOL   H278 1806   7.092   5.489   1.940  0.2898 -0.0721 -2.3033
    5MOL   H279 1807   7.233   5.413   2.035 -2.5042 -1.9576  0.6138
    5MOL   H280 1808   7.377   5.411   1.846  0.9633  2.8963  1.6557
    5MOL   H281 1809   7.304   5.642   1.892  0.3840  2.7834 -0.9286
    5MOL   H282 1810   7.192   5.640   1.761  1.4425  1.1535 -0.0681
    5MOL   H283 1811   7.481   5.602   1.697 -1.1998 -4.0054  1.0557
    5MOL   H284 1812   7.345   5.591   1.593 -1.4657 -1.3680  0.5724
    5MOL   H285 1813   7.123   5.394   1.676 -0.5356  1.4514  0.1572
    5MOL   H286 1814   7.273   5.348   1.620  0.1123 -0.4659  0.3184
    5MOL   C287 1815   7.386   5.789   1.660  0.1967 -0.4759  0.1496
    5MOL   C288 1816   7.452   5.876   1.771 -0.0984 -0.2404  0.1784
    5MOL   C289 1817   7.484   6.011   1.692  0.1284  0.0232 -0.5759
    5MOL   C290 1818   7.465   5.983   1.536  0.1606  0.2073 -0.0939
    5MOL   C291 1819   7.586   6.036   1.446 -0.0082  0.0706  0.3389
    5MOL   C292 1820   7.566   6.029   1.298 -0.3037  0.3922  0.3497
    5MOL   C293 1821   7.446   5.828   1.525 -0.2242  0.4807 -0.1298
    5MOL   H294 1822   7.286   5.831   1.662  0.3623 -0.0181 -1.1063
    5MOL   H295 1823   7.383   5.901   1.852 -1.1446 -1.0697 -0.4436
    5MOL   H296 1824   7.544   5.830   1.807  0.5367  0.0983 -1.0025
    5MOL   H297 1825   7.590   6.020   1.715 -0.0071 -1.2799  0.6934
    5MOL   H298 1826   7.427   6.090   1.740 -1.4049 -1.0310 -0.6335
    5MOL   H299 1827   7.371   6.032   1.511  1.0661  0.3993 -3.3055
    5MOL   H300 1828   0.030   5.980   1.463 -0.5443 -0.6349  0.8914
    5MOL   H301 1829   7.615   6.137   1.474  0.5934  0.1924 -0.7105
    5MOL   H302 1830   7.487   6.100   1.276 -0.6855 -0.0287  0.3446
    5MOL   H303 1831   7.537   5.929   1.265 -1.7257  0.1782  2.1551
    5MOL   H304 1832   7.546   5.785   1.515 -1.6101 -2.8037 -0.7230
    5MOL   H305 1833   7.393   5.807   1.431 -0.1459  2.4969 -0.6349
    5MOL   C306 1834   0.041   6.060   1.205 -1.0120  0.4279  0.1737
    5MOL   C307 1835   0.003   6.083   1.058  0.1226 -0.8861  0.1448
    5MOL   C308 1836   0.046   6.230   1.021  0.2133 -0.1204 -1.3518
    5MOL   C309 1837   0.164   6.260   1.113 -0.1057  0.3733 -0.5786
    5MOL   C310 1838   0.192   6.405   1.137 -0.2635  0.6020 -0.2337
    5MOL   C311 1839   0.314   6.435   1.233 -0.1351 -0.2393  0.6658
    5MOL   C312 1840   0.113   6.187   1.239  0.6716 -0.1913 -0.0825
    5MOL   H313 1841   0.113   5.979   1.209 -3.5588 -1.9296 -0.1799
    5MOL   H314 1842   0.058   6.011   0.997  0.4944  0.4577 -1.1393
    5MOL   H315 1843   7.543   6.068   1.043  0.3886 -2.4309 -0.3215
    5MOL   H316 1844   0.068   6.248   0.916 -1.4769  1.3404 -1.4890
    5MOL   H317 1845   7.611   6.299   1.041  1.0803  0.9522 -1.3889
    5MOL   H318 1846   0.256   6.210   1.084 -1.5864 -1.9705 -1.3430
    5MOL   H319 1847   0.198   6.450   1.038 -3.4672  0.0151 -0.7225
    5MOL   H320 1848   0.108   6.446   1.194 -0.0668 -2.0816  2.0984
    5MOL   H321 1849   0.384   6.355   1.209 -0.1879 -0.0476 -0.1345
    5MOL   H322 1850   0.291   6.435   1.340  1.1551  1.1919  0.9680
    5MOL   H323 1851   0.058   6.250   1.308  1.9422 -0.2888  1.0385
    5MOL   H324 1852   0.208   6.174   1.291  1.5652  0.7251 -1.4351
    5MOL   C325 1853   0.389   6.567   1.220  0.9636  0.1673  0.2688
    5MOL   C326 1854   0.301   6.687   1.255 -0.0466 -0.5218  0.8780
    5MOL   C327 1855   0.386   6.788   1.336  0.9843  0.7337  0.2195
    5MOL   C328 1856   0.489   6.696   1.407 -0.0835 -0.4964 -0.2063
    5MOL   C329 1857   0.613   6.767   1.459  0.6475 -0.3015  0.2012
    5MOL   C330 1858   0.667   6.683   1.576  0.0994 -0.1890  0.3544
    5MOL   C331 1859   0.519   6.583   1.309 -0.2200  0.2093 -0.3031
    5MOL   H332 1860   0.421   6.579   1.117  2.2901  1.4050  0.7927
    5MOL   H333 1861   0.221   6.658   1.324 -0.1017 -0.2216  0.9421
    5MOL   H334 1862   0.257   6.723   1.162  1.0751 -2.7303 -0.5417
    5MOL   H335 1863   0.428   6.853   1.259 -0.6826  0.4256 -0.9736
    5MOL   H336 1864   0.335   6.848   1.410  0.5793  0.8787 -0.1725
    5MOL   H337 1865   0.437   6.646   1.489  1.4286 -0.0695  1.0089
    5MOL   H338 1866   0.684   6.800   1.383  0.0061  1.7832  0.4576
    5MOL   H339 1867   0.589   6.868   1.494  4.2794  0.5901  0.3034
    5MOL   H340 1868   0.587   6.652   1.644  0.1079 -0.2532  0.3346
    5MOL   H341 1869   0.695   6.586   1.535  0.2833  0.4448 -1.0349
    5MOL   H342 1870   0.552   6.491   1.357  1.5308 -1.3970 -4.3405
    5MOL   H343 1871   0.602   6.614   1.246  0.7139  1.2028  1.3782
    5MOL   C344 1872   0.778   6.759   1.651 -0.3189  0.5747  0.2886
    5MOL   C345 1873   0.819   6.679   1.771 -0.8556  0.5816 -0.8058
    5MOL   C346 1874   0.906   6.771   1.857  0.5949 -0.4524 -0.3192
    5MOL   C347 1875   0.841   6.911   1.846 -0.1776  0.3359  0.2297
    5MOL   C348 1876   0.929   7.044   1.836 -0.6607 -0.3793 -0.3576
    5MOL   C349 1877   0.843   7.166   1.855  0.4600  0.1314 -0.3953
    5MOL   C350 1878   0.749   6.892   1.719  0.1004 -0.0711  0.1062
    5MOL   H351 1879   0.861   6.761   1.580 -0.0058  0.9006  0.6655
    5MOL   H352 1880   0.867   6.586   1.740 -0.0975  0.8467 -0.4487
    5MOL   H353 1881   0.730   6.646   1.825 -1.3033  2.9710 -0.0352
    5MOL   H354 1882   0.908   6.729   1.957  0.3258 -1.6969 -0.8244
    5MOL   H355 1883   1.008   6.776   1.819  1.3677  2.2936  1.9499
    5MOL   H356 1884   0.776   6.936   1.930  1.4853  1.5437  1.1916
    5MOL   H357 1885   0.999   7.050   1.919 -2.4250 -0.7898  1.1635
    5MOL   H358 1886   0.983   7.054   1.741  0.8529 -1.9129  0.3212
    5MOL   H359 1887   0.810   7.163   1.959 -1.4282 -1.8671 -1.0159
    5MOL   H360 1888   0.749   7.167   1.800 -1.0836  0.4129  2.1598
    5MOL   H361 1889   0.647   6.883   1.756 -0.1185 -2.3564 -0.9852
    5MOL   H362 1890   0.757   6.972   1.646  3.2357  0.1533  0.6307
    5MOL   C363 1891   0.912   7.299   1.837  0.0933  0.4235 -0.4700
    5MOL   C364 1892   0.836   7.420   1.887  0.4679 -0.1988  0.4310
    5MOL   C365 1893   0.838   7.522   1.775 -0.2652  0.7884  0.1889
    5MOL   C366 1894   0.957   7.487   1.690  0.1708  0.1726  0.0461
    5MOL   C367 1895   0.963   7.548   1.552  0.4739  0.6122 -0.1684
    5MOL   C368 1896   1.087   7.520   1.473  0.2586  0.0594  0.6044
    5MOL   C369 1897   0.960   7.337   1.696 -0.5461 -0.5665 -0.0033
    5MOL   H370 1898   1.003   7.293   1.896 -0.6584 -1.1919  0.5639
    5MOL   H371 1899   0.733   7.400   1.917  0.4890 -1.0189 -0.0480
    5MOL   H372 1900   0.880   7.458   1.980  0.0819  0.5718  0.3047
    5MOL   H373 1901   0.746   7.519   1.716  0.3423 -0.8915 -0.6862
    5MOL   H374 1902   0.851   7.622   1.817 -0.3263  1.9045 -2.3547
    5MOL   H375 1903   1.049   7.515   1.742  0.2929  0.9424 -0.5712
    5MOL   H376 1904   0.882   7.508   1.492  1.0333 -0.9071  0.0806
    5MOL   H377 1905   0.969   0.009   1.566  1.0183  0.5408  0.1736
    5MOL   H378 1906   1.100   7.416   1.442 -2.4870  0.1254 -0.8801
    5MOL   H379 1907   1.163   7.521   1.552  0.2887 -0.7711  0.5920
    5MOL   H380 1908   0.891   7.286   1.628 -1.3059  0.9362 -0.3888
    5MOL   H381 1909   1.058   7.291   1.686 -0.3922 -0.0111 -1.1160
    5MOL   H382 1910   1.110   7.592   1.395  1.0571 -0.9782 -0.1381
    6MOL     C1 1911   5.027   1.357   0.434 -0.3082  0.0100 -0.0355
    6MOL     C2 1912   5.159   1.354   0.353 -0.5577 -0.1153  0.0553
    6MOL     C3 1913   5.259   1.294   0.449  0.4402  0.0131  0.1340
    6MOL     C4 1914   5.174   1.190   0.535 -0.1733  0.0436  0.2483
    6MOL     C5 1915   5.212   1.170   0.685  0.3915 -0.0931 -0.4553
    6MOL     C6 1916   5.361   1.114   0.683 -0.3216  0.8834 -0.1432
    6MOL     C7 1917   5.028   1.231   0.513  1.1201  0.6595  0.0007
    6MOL     H8 1918   5.034   1.438   0.506 -1.7578  0.6824 -0.6378
    6MOL     H9 1919   5.193   1.448   0.308 -1.4002  0.4986  0.6977
    6MOL    H10 1920   5.149   1.291   0.265  0.7581 -0.7874  0.3729
    6MOL    H11 1921   5.341   1.251   0.391 -0.1822  1.9772 -2.2726
    6MOL    H12 1922   5.300   1.372   0.513  1.7413 -1.2746  0.9220
    6MOL    H13 1923   5.185   1.102   0.471 -0.4283  2.2339 -2.9739
    6MOL    H14 1924   5.210   1.273   0.723  1.3128 -0.2518  0.0374
    6MOL    H15 1925   5.150   1.110   0.750  0.8271 -0.4095 -0.3297
    6MOL    H16 1926   5.357   1.013   0.642  0.4578  1.1295 -0.8204
    6MOL    H17 1927   5.414   1.181   0.616  1.0520 -1.0378 -1.0087
    6MOL    H18 1928   4.975   1.154   0.458  1.2696 -0.6394  1.6468
    6MOL    H19 1929   4.978   1.258   0.606  1.9402  1.1027  0.3244
    6MOL    H20 1930   4.942   1.357   0.367 -0.6364 -1.5492  0.3446
    6MOL    C21 1931   5.430   1.116   0.832 -0.4429 -0.5190 -0.0226
    6MOL    C22 1932   5.577   1.070   0.814 -0.1772  0.3390 -0.5864
    6MOL    C23 1933   5.642   1.160   0.922 -0.4972  0.5874  0.8061
    6MOL    C24 1934   5.581   1.296   0.904  0.2186  0.2135 -0.7015
    6MOL    C25 1935   5.645   1.369   0.780  0.3989 -0.0922 -0.9569
    6MOL    C26 1936   5.618   1.524   0.781 -0.0395 -0.0341 -0.4263
    6MOL    C27 1937   5.432   1.263   0.884 -0.1143  0.5952 -0.6994
    6MOL    H28 1938   5.382   1.049   0.903 -1.6450  0.2227 -0.1269
    6MOL    H29 1939   5.590   0.963   0.827  2.1583  0.8434  1.7280
    6MOL    H30 1940   5.625   1.087   0.718  2.2787 -0.6338  0.4083
    6MOL    H31 1941   5.614   1.138   1.025  0.8298  0.1117  1.0670
    6MOL    H32 1942   5.750   1.157   0.912 -0.5276 -1.3558  0.9787
    6MOL    H33 1943   5.603   1.351   0.996  1.9902  0.5455 -1.3098
    6MOL    H34 1944   5.592   1.328   0.694 -1.2501  1.7249 -0.8321
    6MOL    H35 1945   5.753   1.354   0.771  0.3102 -0.3538 -1.5930
    6MOL    H36 1946   5.687   1.571   0.851 -2.6191  1.7987  1.0044
    6MOL    H37 1947   5.516   1.539   0.818 -0.6039 -1.2568 -1.4530
    6MOL    H38 1948   5.394   1.261   0.987  1.2122 -0.6063 -0.2255
    6MOL    H39 1949   5.375   1.340   0.832  1.8313  2.4397 -0.1769
    6MOL    C40 1950   5.624   1.585   0.642  0.7593 -0.0338  0.1945
    6MOL    C41 1951   5.503   1.532   0.556  0.6802 -0.2215 -0.3316
    6MOL    C42 1952   5.491   1.635   0.441 -0.3844  0.2277 -0.3904
    6MOL    C43 1953   5.537   1.773   0.507 -0.2668  0.4938  0.1775
    6MOL    C44 1954   5.607   1.873   0.405  0.1007  0.4421 -0.4979
    6MOL    C45 1955   5.521   1.932   0.289  0.3368 -0.5910  0.2019
    6MOL    C46 1956   5.610   1.736   0.643  0.4994  0.1968 -0.1551
    6MOL    H47 1957   5.720   1.561   0.596  0.8219  0.3790  0.1056
    6MOL    H48 1958   5.416   1.541   0.622  1.2518 -1.2116  0.5755
    6MOL    H49 1959   5.518   1.433   0.515 -1.3252 -0.8937  0.4573
    6MOL    H50 1960   5.565   1.607   0.366 -0.4109  2.4735 -1.3034
    6MOL    H51 1961   5.398   1.625   0.385 -1.3070  1.5112  0.8419
    6MOL    H52 1962   5.446   1.822   0.542  0.1014  1.5332 -0.3032
    6MOL    H53 1963   5.644   1.951   0.472 -2.2020  2.2408 -1.2588
    6MOL    H54 1964   5.697   1.818   0.376 -0.5575 -0.8748 -0.1055
    6MOL    H55 1965   5.433   1.974   0.338  0.0109  1.7835 -2.2733
    6MOL    H56 1966   5.490   1.853   0.219 -0.5190 -1.0427  1.0780
    6MOL    H57 1967   5.707   1.783   0.655 -0.5878  2.5631 -0.4987
    6MOL    H58 1968   5.545   1.769   0.724 -0.3091 -0.1560 -0.6488
    6MOL    C59 1969   5.603   2.045   0.216 -0.5545 -0.3556  0.3420
    6MOL    C60 1970   5.715   1.994   0.126  0.1077 -0.7900 -0.0573
    6MOL    C61 1971   5.666   2.006   7.626  1.0653 -0.1574 -1.0941
    6MOL    C62 1972   5.517   2.048   7.636 -0.3256 -0.2572 -0.3212
    6MOL    C63 1973   5.462   2.117   7.509 -0.1287 -0.4251 -0.2169
    6MOL    C64 1974   5.300   2.118   7.522  0.3126 -0.1908  0.8457
    6MOL    C65 1975   5.504   2.119   0.125  0.1814  0.0127  0.3468
    6MOL    H66 1976   5.653   2.112   0.285 -1.7122  1.8316 -0.8827
    6MOL    H67 1977   5.804   2.055   0.140  0.3223 -0.7959 -1.3565
    6MOL    H68 1978   5.733   1.888   0.149  1.2588 -0.4088  0.8390
    6MOL    H69 1979   5.726   2.081   7.575 -0.5246  2.1257  0.2741
    6MOL    H70 1980   5.668   1.914   7.568  0.0978  0.3176 -1.9022
    6MOL    H71 1981   5.457   1.958   7.641 -1.1724  0.3325  0.3472
    6MOL    H72 1982   5.484   2.044   7.432  2.2187  0.8743 -0.8153
    6MOL    H73 1983   5.510   2.213   7.495  0.8751 -0.8258  0.4374
    6MOL    H74 1984   5.259   2.033   7.576 -0.3985  0.1328  0.8151
    6MOL    H75 1985   5.269   2.195   7.593 -0.8574 -0.1962  0.3471
    6MOL    H76 1986   5.539   2.221   0.110  1.6962 -0.8319 -2.1178
    6MOL    H77 1987   5.401   2.118   0.162  0.3148  0.8468  0.7717
    6MOL    C78 1988   5.214   2.155   7.397  0.1879 -0.3225 -0.4433
    6MOL    C79 1989   5.229   2.050   7.288  0.9351  0.2021 -0.6874
    6MOL    C80 1990   5.101   1.969   7.298  0.1576  0.1097 -0.9290
    6MOL    C81 1991   4.993   2.067   7.342  0.2588  0.2696  0.4673
    6MOL    C82 1992   4.864   2.001   7.400 -0.6028 -0.0196 -0.1990
    6MOL    C83 1993   4.763   1.973   7.290  0.2515 -0.6699 -0.0778
    6MOL    C84 1994   5.062   2.154   7.441  0.1168  0.5456 -0.1555
    6MOL    H85 1995   5.240   2.256   7.365  0.2777 -0.6104 -1.2811
    6MOL    H86 1996   5.235   2.094   7.189  1.9638 -1.9665 -1.6284
    6MOL    H87 1997   5.317   1.986   7.295 -0.6246 -2.2009 -2.4077
    6MOL    H88 1998   5.073   1.913   7.209 -3.6501 -1.1767  0.9565
    6MOL    H89 1999   5.105   1.898   7.381 -0.4350  0.4783 -0.5795
    6MOL    H90 2000   4.969   2.134   7.259 -0.0298 -0.1314  0.2240
    6MOL    H91 2001   4.804   2.067   7.462  1.3653  0.2980  1.4284
    6MOL    H92 2002   4.893   1.917   7.462  1.2336  0.2590 -0.6228
    6MOL    H93 2003   4.810   1.936   7.199 -1.5961 -0.4694 -1.1559
    6MOL    H94 2004   4.716   2.069   7.269  2.8485  0.4324 -1.0378
    6MOL    H95 2005   5.071   2.108   7.540  0.6800 -0.0182 -0.4672
    6MOL    H96 2006   5.018   2.254   7.447 -0.1895  0.4297 -0.4970
    6MOL    C97 2007   4.652   1.873   7.331 -0.7856 -0.0270 -0.6332
    6MOL    C98 2008   4.583   1.816   7.206  0.1961  0.4728 -0.2921
    6MOL    C99 2009   4.451   1.756   7.259  0.0370 -0.8230 -0.4028
    6MOL   C100 2010   4.416   1.833   7.386  0.3206 -0.3636 -0.0854
    6MOL   C101 2011   4.275   1.900   7.390  0.4704 -0.0391  0.1060
    6MOL   C102 2012   4.162   1.796   7.360 -0.1958  0.3447  0.4239
    6MOL   C103 2013   4.531   1.929   7.416 -0.2698 -0.5474  0.1394
    6MOL   H104 2014   4.697   1.792   7.389  0.5092  1.1938  0.0780
    6MOL   H105 2015   4.548   1.894   7.139 -0.4506 -0.9362 -1.6351
    6MOL   H106 2016   4.635   1.736   7.154 -0.5398 -0.0519 -0.2283
    6MOL   H107 2017   4.369   1.769   7.189 -1.5982 -1.6234  1.3413
    6MOL   H108 2018   4.469   1.650   7.276  0.5552 -0.6983 -0.1527
    6MOL   H109 2019   4.419   1.761   7.467 -0.5424 -0.8522 -0.4794
    6MOL   H110 2020   4.247   1.953   7.481 -1.0553 -1.5988  0.5751
    6MOL   H111 2021   4.273   1.977   7.313 -1.3920  0.6599  0.8413
    6MOL   H112 2022   4.162   1.776   7.253 -1.3197  0.1310  0.4605
    6MOL   H113 2023   4.189   1.699   7.404 -1.7682  1.7166  4.6631
    6MOL   H114 2024   4.508   2.033   7.393  1.2593  0.5519  3.3023
    6MOL   H115 2025   4.547   1.939   7.524  2.6973 -0.3882 -0.2626
    6MOL   C116 2026   4.022   1.847   7.395 -1.4669  0.3411 -0.0085
    6MOL   C117 2027   3.919   1.735   7.370 -0.7347  0.4239  0.1057
    6MOL   C118 2028   3.824   1.736   7.491 -0.2560  0.1140  0.0071
    6MOL   C119 2029   3.862   1.857   7.574  0.0410 -0.1431  0.2296
    6MOL   C120 2030   3.821   1.848   0.079 -0.6201  0.1706  0.4006
    6MOL   C121 2031   3.881   1.954   0.167  0.3890  0.7030 -0.2475
    6MOL   C122 2032   4.006   1.864   7.541 -0.2014 -0.0277  0.1084
    6MOL   H123 2033   3.998   1.946   7.356 -2.3464 -0.8687 -2.7197
    6MOL   H124 2034   3.959   1.634   7.366 -1.1951  0.2171  0.6790
    6MOL   H125 2035   3.855   1.753   7.284  0.4821  3.3596 -0.2383
    6MOL   H126 2036   3.843   1.645   7.547 -1.5509 -0.2144 -0.0632
    6MOL   H127 2037   3.719   1.743   7.460 -0.6314 -1.9701  0.6982
    6MOL   H128 2038   3.809   1.944   7.536  1.0847  0.4297  0.0901
    6MOL   H129 2039   3.837   1.750   0.124 -2.0134 -0.5586 -0.6626
    6MOL   H130 2040   3.712   1.849   0.083 -0.5866  3.1960  1.1675
    6MOL   H131 2041   3.815   1.943   0.253 -1.2979 -0.7606 -1.6866
    6MOL   H132 2042   3.854   2.049   0.120 -1.3908 -0.2289 -1.1354
    6MOL   H133 2043   4.051   1.957   7.575  1.8374 -0.7306 -0.5908
    6MOL   H134 2044   4.052   1.779   7.591  0.4328 -1.2056 -2.3889
    6MOL   C135 2045   4.023   1.937   0.215  0.5806  0.2605  0.2499
    6MOL   C136 2046   4.066   2.048   0.314  0.5181  0.4610 -1.0058
    6MOL   C137 2047   4.176   1.988   0.409 -0.2034  0.1493 -0.0603
    6MOL   C138 2048   4.192   1.839   0.372  0.8623  0.4952 -0.3197
    6MOL   C139 2049   4.322   1.806   0.292  0.2484  0.8240  0.4446
    6MOL   C140 2050   4.354   1.654   0.276 -0.1838 -0.1483 -0.4850
    6MOL   C141 2051   4.063   1.803   0.289  0.5645  0.0310 -0.2862
    6MOL   H142 2052   4.092   1.947   0.132  1.3807 -0.7655  0.7839
    6MOL   H143 2053   4.099   2.142   0.270  2.3767 -0.4110 -1.5046
    6MOL   H144 2054   3.985   2.064   0.385  1.3769 -0.7708  0.2821
    6MOL   H145 2055   4.267   2.044   0.386 -0.4674  0.8548  0.5825
    6MOL   H146 2056   4.171   2.017   0.514  2.4174  0.5020  0.0230
    6MOL   H147 2057   4.185   1.780   0.464 -1.0499  0.6063 -0.3665
    6MOL   H148 2058   4.414   1.847   0.333 -0.9743  1.7409  2.3401
    6MOL   H149 2059   4.316   1.858   0.196  4.0891  1.4376  0.4563
    6MOL   H150 2060   4.334   1.612   0.374  1.9413 -1.4150 -0.5557
    6MOL   H151 2061   4.291   1.601   0.204 -0.9718 -0.1340  0.1868
    6MOL   H152 2062   3.983   1.790   0.363 -1.2469 -1.4680 -2.4411
    6MOL   H153 2063   4.077   1.715   0.226  0.9189 -0.9037  1.0575
    6MOL   C154 2064   4.499   1.632   0.228 -0.1354  0.1563 -0.6402
    6MOL   C155 2065   4.510   1.677   0.085  0.6117 -0.1928  0.5504
    6MOL   C156 2066   4.558   1.556   7.646  0.6849 -0.5145 -0.0110
    6MOL   C157 2067   4.627   1.467   0.101  0.0997 -0.6561 -0.4190
    6MOL   C158 2068   4.659   1.323   0.048 -0.4281 -0.5664 -0.3757
    6MOL   C159 2069   4.727   1.225   0.146 -0.7064 -0.1826 -0.0075
    6MOL   C160 2070   4.546   1.481   0.230  0.0904  0.6444 -0.1312
    6MOL   H161 2071   4.557   1.693   0.297 -0.7083 -1.2347  1.1250
    6MOL   H162 2072   4.417   1.720   0.050  0.3646 -0.2858  1.0906
    6MOL   H163 2073   4.584   1.757   0.079 -1.1973  1.3792 -1.9785
    6MOL   H164 2074   4.469   1.512   7.603 -1.7807  0.7338  3.5535
    6MOL   H165 2075   4.623   1.595   7.568  0.6879 -1.7594 -0.6448
    6MOL   H166 2076   4.723   1.517   0.115 -1.1394  1.8203 -0.5838
    6MOL   H167 2077   4.718   1.320   7.604 -1.6614 -0.5684 -1.1741
    6MOL   H168 2078   4.571   1.273   0.009 -2.1549  1.8614  0.2640
    6MOL   H169 2079   4.769   1.273   0.234 -0.1582 -0.5068 -0.0888
    6MOL   H170 2080   4.649   1.157   0.180 -1.2080  0.2759 -0.2319
    6MOL   H171 2081   4.606   1.444   0.313 -0.1748 -1.7311 -0.9686
    6MOL   H172 2082   4.461   1.413   0.223 -0.1690  0.8806  0.7299
    6MOL   C173 2083   4.835   1.133   0.079 -0.7255  0.0140  0.0055
    6MOL   C174 2084   4.953   1.211   0.031 -0.3169  0.2336  0.0622
    6MOL   C175 2085   5.074   1.119   0.013 -0.9073  0.0364  0.6109
    6MOL   C176 2086   5.040   0.998   0.105 -0.2445 -0.4089 -0.5533
    6MOL   C177 2087   5.154   0.982   0.202 -0.0469 -0.0451  0.5364
    6MOL   C178 2088   5.283   0.918   0.141  1.7262 -0.4322  0.1570
    6MOL   C179 2089   4.908   1.034   0.172 -0.7168 -0.1116  0.0589
    6MOL   H180 2090   4.792   1.073   7.646  0.1731 -0.6015 -0.0219
    6MOL   H181 2091   4.993   1.274   0.111  1.5003 -1.6002  0.6357
    6MOL   H182 2092   4.930   1.270   7.589 -1.8488 -0.1156  0.2144
    6MOL   H183 2093   5.092   1.072   7.564 -1.9943 -0.0441  0.4430
    6MOL   H184 2094   5.166   1.176   0.023 -1.0842  0.3145  0.6517
    6MOL   H185 2095   5.029   0.904   0.052  0.1691 -0.0480 -1.2841
    6MOL   H186 2096   5.124   0.908   0.276  0.8048  0.3917  1.3418
    6MOL   H187 2097   5.173   1.078   0.252 -0.3386 -0.0417  0.6450
    6MOL   H188 2098   5.322   0.992   0.071 -0.5508  0.8020  0.1564
    6MOL   H189 2099   5.269   0.830   0.078  0.3240  0.7166 -1.2041
    6MOL   H190 2100   4.934   1.077   0.268  0.2380  0.3261 -0.3872
    6MOL   H191 2101   4.858   0.939   0.192 -1.0349 -0.2359 -1.2675
    6MOL   C192 2102   5.385   0.874   0.254  0.3291 -0.5558 -0.1246
    6MOL   C193 2103   5.439   0.985   0.331 -0.0200  0.6300 -0.9079
    6MOL   C194 2104   5.587   0.958   0.351 -0.0494  0.0599 -0.2417
    6MOL   C195 2105   5.628   0.894   0.212  0.5805  0.0926 -0.5359
    6MOL   C196 2106   5.756   0.816   0.211 -0.5311 -0.0940 -0.2402
    6MOL   C197 2107   5.808   0.776   0.072  0.3529 -0.0445  0.1835
    6MOL   C198 2108   5.508   0.807   0.182 -0.8342 -0.7389 -0.0291
    6MOL   H199 2109   5.357   0.788   0.315 -0.1665 -0.4062 -0.1444
    6MOL   H200 2110   5.433   1.082   0.282  4.6302  0.9311 -1.0709
    6MOL   H201 2111   5.391   0.992   0.429  3.3005  1.9013  0.6918
    6MOL   H202 2112   5.590   0.887   0.434  1.2032 -0.2626 -0.5458
    6MOL   H203 2113   5.649   1.047   0.362  2.3699 -1.5725 -0.1925
    6MOL   H204 2114   5.632   0.971   0.134 -0.8514 -0.1517 -0.8680
    6MOL   H205 2115   5.756   0.739   0.289 -1.4460  0.8166  0.6818
    6MOL   H206 2116   5.830   0.886   0.248  0.1061 -0.6794 -0.4060
    6MOL   H207 2117   5.815   0.860   0.003  0.5687 -0.6274 -0.5111
    6MOL   H208 2118   5.732   0.717   0.021  0.6120 -0.6979  0.5472
    6MOL   H209 2119   5.530   0.709   0.225 -1.0768 -1.3325 -1.2275
    6MOL   H210 2120   5.499   0.798   0.074 -3.3855 -2.6568  0.3192
    6MOL   C211 2121   5.943   0.713   0.060  0.6454 -0.1682  0.7571
    6MOL   C212 2122   6.052   0.794   0.128  0.3664 -0.6459  0.1756
    6MOL   C213 2123   6.106   0.879   0.015  0.3478  0.1241  0.1499
    6MOL   C214 2124   6.091   0.808   7.532  0.5137 -0.0060  0.1679
    6MOL   C215 2125   6.041   0.906   7.424 -0.7113 -0.4214  0.1221
    6MOL   C216 2126   6.153   0.998   7.363 -0.6267 -0.1857 -0.0281
    6MOL   C217 2127   5.993   0.695   7.559 -0.2442  0.3870 -0.6156
    6MOL   H218 2128   5.935   0.614   0.106  0.7107 -0.6249 -0.1969
    6MOL   H219 2129   6.022   0.842   0.222 -0.4715  0.4156 -0.6134
    6MOL   H220 2130   6.137   0.732   0.158  0.9283  0.4000  0.8095
    6MOL   H221 2131   6.058   0.976   0.009 -1.3576 -0.6722  0.6580
    6MOL   H222 2132   6.207   0.914   0.037  0.5803  0.4119 -1.3286
    6MOL   H223 2133   6.183   0.758   7.503 -0.1796 -1.2230  0.0116
    6MOL   H224 2134   5.955   0.962   7.459 -0.3385 -0.3798  0.9987
    6MOL   H225 2135   6.001   0.840   7.347 -0.5475 -1.1526  0.6605
    6MOL   H226 2136   6.180   1.072   7.438 -0.3540 -0.0661 -0.2435
    6MOL   H227 2137   6.242   0.940   7.342 -1.1066 -0.9954  0.1531
    6MOL   H228 2138   6.059   0.608   7.565 -0.6683  0.0252 -1.1715
    6MOL   H229 2139   5.927   0.665   7.478 -0.4827 -0.9240  0.0435
    6MOL   C230 2140   6.105   1.071   7.240 -0.0572  0.9033 -0.2926
    6MOL   C231 2141   6.206   1.149   7.157  0.0558 -0.6314  0.0263
    6MOL   C232 2142   6.132   1.269   7.087  0.6415  0.8366 -0.3367
    6MOL   C233 2143   6.035   1.302   7.197 -0.0094 -0.2352  0.1949
    6MOL   C234 2144   5.928   1.398   7.148 -0.6942  0.0440  0.1910
    6MOL   C235 2145   5.837   1.456   7.252 -0.0948 -0.6940 -0.2158
    6MOL   C236 2146   5.992   1.171   7.265  0.1273 -0.0012  0.0144
    6MOL   H237 2147   6.066   0.994   7.173  1.0586 -1.5824  1.8008
    6MOL   H238 2148   6.289   1.180   7.221  0.4920 -1.6643 -0.0281
    6MOL   H239 2149   6.247   1.090   7.076 -2.6022 -2.3928 -0.1066
    6MOL   H240 2150   6.070   1.228   7.007 -0.0040 -1.7522  1.4274
    6MOL   H241 2151   6.195   1.354   7.059  0.2640  1.0129 -0.6673
    6MOL   H242 2152   6.093   1.349   7.277  0.4021  0.0073 -0.2450
    6MOL   H243 2153   5.870   1.346   7.072 -1.3558 -0.4021  0.9941
    6MOL   H244 2154   5.971   1.487   7.101 -2.4832  1.7165  1.6028
    6MOL   H245 2155   5.787   1.382   7.315 -1.1541  1.0220  1.0284
    6MOL   H246 2156   5.904   1.514   7.315  0.6168 -0.9369 -0.7498
    6MOL   H247 2157   5.892   1.140   7.235 -0.7767  1.5835  1.2967
    6MOL   H248 2158   5.976   1.178   7.373 -1.7497 -2.3559 -0.0707
    6MOL   C249 2159   5.729   1.544   7.196 -0.2689  0.2899 -0.2143
    6MOL   C250 2160   5.628   1.589   7.306 -0.8628 -0.7275 -1.4388
    6MOL   C251 2161   5.569   1.717   7.254  0.2885 -0.3943 -0.8306
    6MOL   C252 2162   5.692   1.787   7.184  0.0689  0.4795 -0.5844
    6MOL   C253 2163   5.671   1.912   7.096 -0.1471  0.6180  0.0995
    6MOL   C254 2164   5.597   2.027   7.168  0.0246 -0.5381 -0.8422
    6MOL   C255 2165   5.773   1.673   7.119 -0.1404 -0.8755 -0.2051
    6MOL   H256 2166   5.661   1.480   7.141  1.4869 -2.9008  1.1908
    6MOL   H257 2167   5.556   1.512   7.332 -0.3381 -1.1384 -1.2057
    6MOL   H258 2168   5.679   1.617   7.399 -0.4853  1.0184 -2.1373
    6MOL   H259 2169   5.538   1.773   7.342 -1.7025 -2.2132 -0.3345
    6MOL   H260 2170   5.483   1.713   7.188 -0.3828 -0.6272  0.0525
    6MOL   H261 2171   5.761   1.810   7.265  0.4422  0.6886 -0.9616
    6MOL   H262 2172   5.628   1.867   7.007 -2.1720 -0.5765  1.6580
    6MOL   H263 2173   5.769   1.947   7.064 -0.4666  0.2534 -1.3079
    6MOL   H264 2174   5.647   2.043   7.264  0.9749  0.4967 -1.4932
    6MOL   H265 2175   5.497   1.992   7.189  1.0168 -2.5859  0.6422
    6MOL   H266 2176   5.878   1.698   7.130 -0.9668  2.7914 -0.0833
    6MOL   H267 2177   5.755   1.664   7.012  0.7390 -1.0707 -0.3417
    6MOL   C268 2178   5.620   2.157   7.093 -0.2547  0.4319 -0.1234
    6MOL   C269 2179   5.542   2.268   7.157 -0.5960  0.0892 -0.4215
    6MOL   C270 2180   5.559   2.385   7.058  0.0467 -0.6327 -0.1139
    6MOL   C271 2181   5.563   2.313   6.919  0.0744 -0.1527 -0.6684
    6MOL   C272 2182   5.454   2.363   6.815 -0.2122 -0.1218 -0.0822
    6MOL   C273 2183   5.466   2.287   6.685  0.3002  0.4741 -0.5031
    6MOL   C274 2184   5.570   2.161   6.953  0.5862 -0.5404 -0.4770
    6MOL   H275 2185   5.721   2.196   7.103 -0.5540  1.1847  0.0101
    6MOL   H276 2186   5.435   2.248   7.154 -0.1931 -2.4803  0.7238
    6MOL   H277 2187   5.571   2.287   7.260 -5.8349 -1.4052  1.4862
    6MOL   H278 2188   5.473   2.452   7.057 -0.1471 -0.8608 -3.2690
    6MOL   H279 2189   5.647   2.443   7.082  0.3148 -0.6450 -1.0644
    6MOL   H280 2190   5.661   2.337   6.880  0.2785 -0.6907 -0.4957
    6MOL   H281 2191   5.459   2.471   6.798 -0.7726  0.0583  0.8834
    6MOL   H282 2192   5.351   2.349   6.847 -0.3226  1.6660  0.3844
    6MOL   H283 2193   5.540   2.340   6.625  2.9319 -1.2801  1.0754
    6MOL   H284 2194   5.509   2.189   6.708 -0.5587 -0.3212 -2.1385
    6MOL   H285 2195   5.477   2.107   6.941 -0.4975  0.5452  2.4212
    6MOL   H286 2196   5.649   2.114   6.896  1.3287 -0.5540  0.5362
    6MOL   C287 2197   5.329   2.283   6.617  0.2986  0.0034  0.8484
    6MOL   C288 2198   5.264   2.421   6.575  0.3164 -0.4221 -0.3006
    6MOL   C289 2199   5.162   2.387   6.465  0.6059  0.1911 -0.6626
    6MOL   C290 2200   5.203   2.250   6.409  0.1949 -0.0265 -0.0670
    6MOL   C291 2201   5.228   2.255   6.254  0.0379 -0.6109  0.4148
    6MOL   C292 2202   5.105   2.319   6.174  0.4180 -0.0372 -0.5832
    6MOL   C293 2203   5.324   2.198   6.494 -0.3288  0.1831  0.5831
    6MOL   H294 2204   5.253   2.225   6.669 -0.9301 -0.0967 -1.0455
    6MOL   H295 2205   5.223   2.473   6.661  0.4983 -2.3842  1.0060
    6MOL   H296 2206   5.332   2.488   6.524 -0.5840 -0.8240 -2.0915
    6MOL   H297 2207   5.167   2.454   6.380 -0.7743  2.0398  0.6635
    6MOL   H298 2208   5.064   2.382   6.514  0.9813  1.0961  0.2072
    6MOL   H299 2209   5.121   2.182   6.429 -0.0775  1.0587  2.6923
    6MOL   H300 2210   5.262   2.158   6.219 -1.8054 -1.0035 -0.3434
    6MOL   H301 2211   5.315   2.318   6.235 -0.6316  1.4722  3.8931
    6MOL   H302 2212   5.102   2.427   6.191 -0.3391 -0.4205  1.9063
    6MOL   H303 2213   5.003   2.291   6.199  0.6811 -1.2774 -0.8501
    6MOL   H304 2214   5.409   2.217   6.427 -1.2549  1.1885 -0.3301
    6MOL   H305 2215   5.328   2.092   6.518 -0.1960  0.2938  1.0524
    6MOL   C306 2216   5.121   2.307   6.023  0.8037 -0.2022  0.0395
    6MOL   C307 2217   5.098   2.168   5.965 -0.2597  0.4444 -0.5059
    6MOL   C308 2218   4.979   2.176   5.874  0.2050  0.3618 -0.4970
    6MOL   C309 2219   4.979   2.325   5.831  0.1174 -0.4925  0.0940
    6MOL   C310 2220   4.845   2.366   5.771 -0.3656  0.1373  0.2375
    6MOL   C311 2221   4.830   2.515   5.736 -0.0493  0.6780  0.6292
    6MOL   C312 2222   5.017   2.395   5.960  0.5672  0.1002  1.0450
    6MOL   H313 2223   5.223   2.333   5.996  0.7364 -0.9771 -0.9977
    6MOL   H314 2224   5.188   2.128   5.917  0.2472  0.2662  0.5900
    6MOL   H315 2225   5.078   2.094   6.042 -0.8453 -0.1477 -1.2195
    6MOL   H316 2226   4.977   2.097   5.800 -4.2641  1.7070 -1.9596
    6MOL   H317 2227   4.888   2.163   5.932  1.0835 -2.3451  0.3361
    6MOL   H318 2228   5.058   2.358   5.763 -2.5904 -1.1219 -3.5091
    6MOL   H319 2229   4.822   2.301   5.687  1.6021 -0.8436  0.4161
    6MOL   H320 2230   4.769   2.346   5.847  0.0433  1.0486  0.8988
    6MOL   H321 2231   4.901   2.546   5.658 -1.9053  1.6467 -0.7324
    6MOL   H322 2232   4.870   2.579   5.815  1.4720 -0.7942  1.0812
    6MOL   H323 2233   4.934   2.422   6.025  0.8578  1.4140  0.8970
    6MOL   H324 2234   5.069   2.486   5.929  1.1913 -0.2656  1.0173
    6MOL   C325 2235   4.682   2.547   5.712 -0.0235 -0.2251  0.3463
    6MOL   C326 2236   4.589   2.548   5.836  0.1390  0.1644 -0.7579
    6MOL   C327 2237   4.541   2.695   5.855  0.1560 -0.3245  0.5594
    6MOL   C328 2238   4.615   2.786   5.757 -0.5405  0.1468 -0.1360
    6MOL   C329 2239   4.525   2.898   5.696 -0.5831  0.3391  0.3239
    6MOL   C330 2240   4.459   2.996   5.790 -0.3096 -0.3454  0.0880
    6MOL   C331 2241   4.663   2.687   5.652 -0.0725 -0.5137  0.7546
    6MOL   H332 2242   4.641   2.475   5.642 -1.0707  0.8001 -0.1140
    6MOL   H333 2243   4.627   2.522   5.935 -0.3674 -2.8852 -1.3301
    6MOL   H334 2244   4.505   2.480   5.821  1.1674 -1.4527  0.6599
    6MOL   H335 2245   4.435   2.690   5.829  0.0846 -0.7487  0.9240
    6MOL   H336 2246   4.535   2.728   5.958  0.1073 -0.6486  0.6611
    6MOL   H337 2247   4.704   2.826   5.805 -0.5225 -2.6693  2.3533
    6MOL   H338 2248   4.584   2.959   5.628 -0.9564  2.4784  1.8790
    6MOL   H339 2249   4.444   2.849   5.642 -0.8943  0.6234  0.5340
    6MOL   H340 2250   4.373   3.044   5.741  0.4553 -0.5939 -1.5473
    6MOL   H341 2251   4.421   2.931   5.868  1.9427 -0.1266  1.4062
    6MOL   H342 2252   4.744   2.723   5.589 -1.6752 -0.6288 -1.4043
    6MOL   H343 2253   4.578   2.681   5.584  0.1708 -3.1052  0.6315
    6MOL   C344 2254   4.557   3.103   5.854  0.7007  0.0943  0.6549
    6MOL   C345 2255   4.534   3.147   5.998 -0.7263 -0.6642 -0.2561
    6MOL   C346 2256   4.611   3.275   5.997 -0.9520 -0.1077 -0.1021
    6MOL   C347 2257   4.571   3.353   5.875 -0.0657  0.0868 -0.7460
    6MOL   C348 2258   4.656   3.473   5.847  0.2298  0.2708 -0.4232
    6MOL   C349 2259   4.611   3.570   5.730 -0.0116  0.4172 -0.2340
    6MOL   C350 2260   4.554   3.244   5.768  0.1917 -0.0669 -0.7077
    6MOL   H351 2261   4.657   3.060   5.850  0.0703 -1.5013  1.8022
    6MOL   H352 2262   4.573   3.081   6.075 -0.4118 -0.0389  0.1279
    6MOL   H353 2263   4.427   3.166   6.013 -0.3352 -0.5885  2.8678
    6MOL   H354 2264   4.593   3.329   6.090 -1.1393  1.9443 -1.3065
    6MOL   H355 2265   4.717   3.254   5.991 -0.1064  3.5278  1.1913
    6MOL   H356 2266   4.467   3.383   5.890  0.1334 -0.5457  2.3345
    6MOL   H357 2267   4.665   3.521   5.944  0.1669  0.4048 -0.4849
    6MOL   H358 2268   4.757   3.441   5.820  0.9253  1.8895  0.1839
    6MOL   H359 2269   4.516   3.610   5.765 -0.5769 -0.2319 -0.9933
    6MOL   H360 2270   4.579   3.511   5.644 -0.5894 -0.7924  0.7974
    6MOL   H361 2271   4.461   3.262   5.715  1.5283  0.7377 -2.8228
    6MOL   H362 2272   4.636   3.240   5.696  0.0704 -0.2123 -0.8381
    6MOL   C363 2273   4.708   3.683   5.701 -0.2331  0.3123  0.7004
    6MOL   C364 2274   4.661   3.807   5.627 -0.3023  0.2293  0.1608
    6MOL   C365 2275   4.785   3.877   5.567 -0.4826 -1.0472 -0.1175
    6MOL   C366 2276   4.896   3.769   5.550  0.2779 -0.0245 -0.5711
    6MOL   C367 2277   4.931   3.746   5.400 -0.1814  0.0543 -0.8978
    6MOL   C368 2278   5.068   3.676   5.379  0.0784  0.3368 -0.7143
    6MOL   C369 2279   4.839   3.645   5.628  0.3520 -0.0727 -0.6488
    6MOL   H370 2280   4.740   3.727   5.796 -0.8050 -1.5793  1.7922
    6MOL   H371 2281   4.596   3.783   5.543  1.3906  0.5776 -1.3045
    6MOL   H372 2282   4.594   3.875   5.680 -1.3237 -0.2812 -0.4601
    6MOL   H373 2283   4.763   3.939   5.480  0.3185 -2.2720 -1.2182
    6MOL   H374 2284   4.823   3.955   5.632  1.5110 -1.6823 -0.4802
    6MOL   H375 2285   4.980   3.810   5.606 -0.8809  1.0082  0.4598
    6MOL   H376 2286   4.858   3.676   5.361 -0.4124 -0.1902 -0.0294
    6MOL   H377 2287   4.919   3.829   5.330  0.3211 -0.2682 -1.3708
    6MOL   H378 2288   5.079   3.600   5.301  0.3686  0.4488 -0.7852
    6MOL   H379 2289   5.102   3.631   5.472  1.9519  1.6926 -0.7059
    6MOL   H380 2290   4.832   3.561   5.559  2.0953 -0.6153 -0.2035
    6MOL   H381 2291   4.918   3.610   5.696  0.3149 -1.5917 -1.3733
    6MOL   H382 2292   5.151   3.745   5.359 -0.2054  0.7776 -0.3702
    7MOL     C1 2293   5.080   5.846   7.184 -0.0365  0.3703  0.6886
    7MOL     C2 2294   4.944   5.911   7.217 -0.1186 -0.3742 -0.4634
    7MOL     C3 2295   4.982   6.045   7.264  0.0699 -0.3885 -0.2232
    7MOL     C4 2296   5.086   6.089   7.157  0.0264 -0.2107  0.8392
    7MOL     C5 2297   5.184   6.202   7.207 -0.2531  0.6050 -0.5883
    7MOL     C6 2298   5.121   6.341   7.238  0.6318 -0.5794 -0.0405
    7MOL     C7 2299   5.157   5.960   7.117  0.4366  0.0288 -0.3239
    7MOL     H8 2300   5.133   5.803   7.269  0.4448 -1.6987 -0.6224
    7MOL     H9 2301   4.898   5.850   7.294  0.2679  0.7382  0.6622
    7MOL    H10 2302   4.877   5.925   7.132  0.6054 -0.8073 -1.1166
    7MOL    H11 2303   4.900   6.115   7.279  0.4406 -0.1361  0.6758
    7MOL    H12 2304   5.030   6.030   7.360  1.7445 -1.9213 -1.2616
    7MOL    H13 2305   5.029   6.133   7.075  1.0251 -0.2625  0.1129
    7MOL    H14 2306   5.227   6.159   7.297 -1.5775  0.3649 -0.0539
    7MOL    H15 2307   5.264   6.225   7.137  0.5064  3.9676  1.2965
    7MOL    H16 2308   5.045   6.328   7.316  1.0323  1.9508  0.8290
    7MOL    H17 2309   5.194   6.401   7.293 -0.6635  1.6108 -0.6538
    7MOL    H18 2310   5.165   5.946   7.010 -0.7969 -0.6447 -0.3407
    7MOL    H19 2311   5.256   5.959   7.163  0.5711  2.2161 -0.5174
    7MOL    H20 2312   5.062   5.764   7.115  0.2436  0.6123  0.3244
    7MOL    C21 2313   5.063   6.419   7.124  0.7407  0.8747 -0.1757
    7MOL    C22 2314   5.025   6.559   7.168 -0.9167  0.3419  0.5321
    7MOL    C23 2315   5.089   6.661   7.067 -0.5943 -0.2868 -0.5326
    7MOL    C24 2316   5.137   6.578   6.948  0.2713  0.2609  0.0175
    7MOL    C25 2317   5.251   6.651   6.886  0.0453  0.3012 -0.2879
    7MOL    C26 2318   5.181   6.763   6.802  0.4225 -0.3798  0.5100
    7MOL    C27 2319   5.173   6.442   7.015  0.4905  0.8550 -0.3809
    7MOL    H28 2320   4.977   6.371   7.078 -0.7607  0.7512  2.6470
    7MOL    H29 2321   4.916   6.566   7.167 -0.9444 -0.0916  0.4936
    7MOL    H30 2322   5.067   6.583   7.265 -0.9079  1.0829  0.3453
    7MOL    H31 2323   5.014   6.733   7.034 -0.0098  0.6217  0.0925
    7MOL    H32 2324   5.174   6.712   7.110  0.1586 -1.7064 -0.3014
    7MOL    H33 2325   5.061   6.550   6.874  0.3759  1.3626 -0.5087
    7MOL    H34 2326   5.314   6.590   6.822  0.5698  0.1062  0.4151
    7MOL    H35 2327   5.317   6.699   6.959  0.5069  0.8238 -1.0416
    7MOL    H36 2328   5.098   6.807   6.857 -1.2165 -1.4588 -1.0296
    7MOL    H37 2329   5.125   6.714   6.722 -1.9657 -0.6821  2.3251
    7MOL    H38 2330   5.172   6.357   6.947 -2.0144 -0.0211  0.6664
    7MOL    H39 2331   5.273   6.457   7.055 -0.0891  0.5841  1.2260
    7MOL    C40 2332   5.281   6.865   6.744 -0.5095  0.1501  0.3072
    7MOL    C41 2333   5.369   6.813   6.631 -0.4658  0.2681 -0.5656
    7MOL    C42 2334   5.374   6.928   6.524  0.3373 -0.2404  0.8064
    7MOL    C43 2335   5.238   6.987   6.538  0.5357 -0.1249  0.2696
    7MOL    C44 2336   5.238   7.134   6.484  0.2670  0.6107  0.7141
    7MOL    C45 2337   5.103   7.205   6.501 -0.3537  0.9016  0.3147
    7MOL    C46 2338   5.210   6.982   6.685  0.1284  0.4638 -0.1565
    7MOL    H47 2339   5.354   6.906   6.813 -1.7266  3.0202 -0.0533
    7MOL    H48 2340   5.312   6.738   6.576 -0.9116 -0.3569  0.7336
    7MOL    H49 2341   5.466   6.774   6.663 -0.2621  0.6159 -0.7562
    7MOL    H50 2342   5.441   7.009   6.553  1.8460 -1.1574 -0.0400
    7MOL    H51 2343   5.394   6.908   6.419 -1.5832  0.3485  0.3129
    7MOL    H52 2344   5.159   6.927   6.493 -0.7510  1.9087 -0.2494
    7MOL    H53 2345   5.317   7.194   6.528  1.8573  0.7655 -2.2315
    7MOL    H54 2346   5.271   7.133   6.380 -1.2099  2.0600  0.2225
    7MOL    H55 2347   5.075   7.231   6.603 -1.1765  1.6245 -0.0901
    7MOL    H56 2348   5.026   7.141   6.456 -0.1892  1.4920 -0.8257
    7MOL    H57 2349   5.249   7.074   6.728 -0.3322 -0.0161  1.3125
    7MOL    H58 2350   5.103   6.981   6.704  0.6003  0.3364  2.6657
    7MOL    C59 2351   5.094   7.330   6.421 -0.1694  0.2311 -0.2545
    7MOL    C60 2352   5.087   7.304   6.268 -0.8008 -0.3263  0.0423
    7MOL    C61 2353   5.026   7.441   6.224 -1.0194  0.0225 -0.1067
    7MOL    C62 2354   4.914   7.460   6.318  0.1772 -0.2467 -0.5377
    7MOL    C63 2355   4.865   7.611   6.305 -0.1966 -0.0790  0.0641
    7MOL    C64 2356   4.776   7.639   6.188 -0.1872 -0.0798  0.9944
    7MOL    C65 2357   4.970   7.420   6.457 -0.3511  0.0693  0.1421
    7MOL    H66 2358   5.185   7.384   6.444 -0.1456  0.4484 -0.8582
    7MOL    H67 2359   5.179   7.274   6.217 -0.5850 -0.1727  0.3388
    7MOL    H68 2360   5.013   7.228   6.247 -1.4254 -0.5647  2.9161
    7MOL    H69 2361   5.101   7.520   6.231 -1.7750  0.5728  2.4938
    7MOL    H70 2362   4.998   7.432   6.119  1.3380 -1.0166 -0.6936
    7MOL    H71 2363   4.838   7.391   6.279 -0.1913 -0.2519  0.1777
    7MOL    H72 2364   4.943   0.039   6.313 -0.7499  0.6198 -1.0508
    7MOL    H73 2365   4.810   7.627   6.398 -2.3793  0.1146 -1.2149
    7MOL    H74 2366   4.821   7.597   6.097  0.6920  4.6757 -0.8985
    7MOL    H75 2367   4.676   7.596   6.196 -0.2739  0.0788  0.7908
    7MOL    H76 2368   5.001   7.506   6.516  1.3657  0.7986 -1.7723
    7MOL    H77 2369   4.898   7.362   6.516 -0.8489  0.1196 -0.4130
    7MOL    C78 2370   4.768   0.139   6.155  0.4097  0.0823  0.0284
    7MOL    C79 2371   4.689   0.162   6.025  0.2686  0.9216  0.0928
    7MOL    C80 2372   4.574   0.268   6.048 -0.4796  0.0156  0.1322
    7MOL    C81 2373   4.625   0.337   6.176 -0.6502  0.5837  0.6310
    7MOL    C82 2374   4.513   0.426   6.235  0.4657  1.0388  0.2616
    7MOL    C83 2375   4.569   0.509   6.358 -0.3069 -0.0196 -0.0786
    7MOL    C84 2376   4.693   0.231   6.259  0.6566  1.0143  0.1936
    7MOL    H85 2377   4.868   0.181   6.146  0.0149  1.5113  1.9188
    7MOL    H86 2378   4.754   0.199   5.946  1.0014 -1.2423 -0.3483
    7MOL    H87 2379   4.635   0.072   5.997  1.1938  0.8282 -1.3828
    7MOL    H88 2380   4.570   0.337   5.964 -0.2761 -0.8906 -0.6411
    7MOL    H89 2381   4.474   0.226   6.059 -1.1568  0.8814 -2.3566
    7MOL    H90 2382   4.705   0.398   6.134 -1.1684  0.1955 -0.9482
    7MOL    H91 2383   4.427   0.365   6.265 -0.2219  2.1444  0.5774
    7MOL    H92 2384   4.476   0.497   6.161  1.5426 -0.0549 -1.3698
    7MOL    H93 2385   4.614   0.434   6.423 -2.0879 -1.3008 -0.2868
    7MOL    H94 2386   4.485   0.551   6.413  0.2054  1.3536 -0.3364
    7MOL    H95 2387   4.624   0.169   6.317  2.6644 -2.0838 -0.5492
    7MOL    H96 2388   4.766   0.252   6.337  0.8050 -2.1384  0.9981
    7MOL    C97 2389   4.682   0.607   6.307  0.3080 -0.8880  0.0255
    7MOL    C98 2390   4.823   0.554   6.332  0.6453  0.4516  0.6605
    7MOL    C99 2391   4.909   0.680   6.356 -0.0104 -0.7455  0.0718
    7MOL   C100 2392   4.809   0.802   6.354  0.5834  0.3382 -0.0252
    7MOL   C101 2393   4.834   0.921   6.450  0.3546 -0.2115  0.1695
    7MOL   C102 2394   4.961   1.003   6.423 -0.4811 -0.4012  0.9901
    7MOL   C103 2395   4.678   0.730   6.389 -0.6105 -0.6800  0.8376
    7MOL   H104 2396   4.663   0.630   6.202  1.4652 -1.9239 -0.4149
    7MOL   H105 2397   4.819   0.507   6.430 -1.5246 -0.1549  0.3163
    7MOL   H106 2398   4.850   0.490   6.249 -0.9357  0.6470 -0.0159
    7MOL   H107 2399   4.966   0.665   6.447 -1.2168 -1.3217  0.7368
    7MOL   H108 2400   4.979   0.694   6.273 -0.4154  0.7541 -0.0445
    7MOL   H109 2401   4.805   0.834   6.249  0.7713  1.1757  0.2192
    7MOL   H110 2402   4.747   0.986   6.452 -0.6924 -1.5745 -0.0036
    7MOL   H111 2403   4.834   0.882   6.552  1.4126  0.9701  0.6430
    7MOL   H112 2404   5.055   0.950   6.405  0.1801  1.3629 -0.9273
    7MOL   H113 2405   4.958   1.055   6.328  2.3508 -1.4843  0.2547
    7MOL   H114 2406   4.670   0.703   6.494 -1.1602  0.5073  1.1128
    7MOL   H115 2407   4.597   0.797   6.360 -0.3835 -0.9979 -0.5822
    7MOL   C116 2408   4.996   1.100   6.536  0.6967 -0.1089  0.5769
    7MOL   C117 2409   5.111   1.191   6.503  0.3719  0.0981 -0.5753
    7MOL   C118 2410   5.116   1.294   6.619  0.0345  0.2531  0.1051
    7MOL   C119 2411   4.969   1.314   6.659 -0.6153  0.2079  0.6190
    7MOL   C120 2412   4.918   1.455   6.634 -0.1080 -1.1188  0.1938
    7MOL   C121 2413   4.795   1.476   6.720 -0.6793  0.1773 -0.7311
    7MOL   C122 2414   4.889   1.194   6.593 -0.3128  0.1208  0.2455
    7MOL   H123 2415   5.025   1.035   6.618 -1.3854 -0.3257  1.1882
    7MOL   H124 2416   5.104   1.233   6.403 -1.2046  2.4423  0.4938
    7MOL   H125 2417   5.202   1.133   6.490 -0.5461 -1.5272  0.0821
    7MOL   H126 2418   5.159   1.386   6.580  2.9371 -0.3270  1.7895
    7MOL   H127 2419   5.183   1.255   6.695 -0.2979  1.6062  1.1243
    7MOL   H128 2420   4.961   1.294   6.766 -2.1360 -0.9009  0.3108
    7MOL   H129 2421   4.898   1.467   6.527 -1.4226  1.5337  0.6853
    7MOL   H130 2422   4.993   1.528   6.666  1.0384 -1.1822 -2.1926
    7MOL   H131 2423   4.832   1.463   6.822 -0.6498 -0.9714 -0.8816
    7MOL   H132 2424   4.729   1.390   6.709 -0.3576  0.1194 -2.2660
    7MOL   H133 2425   4.808   1.157   6.655 -0.3029 -0.0456  0.1596
    7MOL   H134 2426   4.829   1.225   6.507  0.4964 -1.8293 -1.0568
    7MOL   C135 2427   4.728   1.611   6.700  0.1074 -0.2187 -0.3416
    7MOL   C136 2428   4.658   1.640   6.567  0.9551 -0.1822 -0.0462
    7MOL   C137 2429   4.516   1.693   6.587 -0.1866 -0.0333  1.0273
    7MOL   C138 2430   4.477   1.636   6.722  0.4196  0.3152  0.0369
    7MOL   C139 2431   4.379   1.728   6.795  0.3958 -0.3400 -0.1810
    7MOL   C140 2432   4.232   1.720   6.755 -0.0450  0.2392  0.0016
    7MOL   C141 2433   4.612   1.621   6.807  0.3123 -0.1078 -0.1650
    7MOL   H142 2434   4.810   1.683   6.709 -0.5632  0.6393 -0.9879
    7MOL   H143 2435   4.718   1.705   6.503  0.4695  0.9587  0.6553
    7MOL   H144 2436   4.643   1.541   6.523 -0.9583  0.9370 -2.0225
    7MOL   H145 2437   4.484   1.797   6.577  1.9217  0.7796  2.3529
    7MOL   H146 2438   4.446   1.638   6.525 -0.4880  0.0007  1.3373
    7MOL   H147 2439   4.430   1.537   6.711  1.6827 -0.2853  0.0218
    7MOL   H148 2440   4.405   1.833   6.783  1.0803 -0.4435  0.3205
    7MOL   H149 2441   4.402   1.716   6.901  1.1080  1.9022 -0.0639
    7MOL   H150 2442   4.224   1.750   6.650  1.1191  1.3133  0.1992
    7MOL   H151 2443   4.193   1.619   6.757  2.9133 -0.9354  0.7370
    7MOL   H152 2444   4.616   1.536   6.876 -1.6040  0.1525  0.3024
    7MOL   H153 2445   4.635   1.708   6.868  1.1983 -0.6573  0.2930
    7MOL   C154 2446   4.156   1.819   6.836  0.5511 -0.4497 -0.3128
    7MOL   C155 2447   4.169   1.796   6.982  0.8437  0.4538 -0.4951
    7MOL   C156 2448   4.040   1.854   7.044 -0.4181 -0.1118  0.2764
    7MOL   C157 2449   3.955   1.908   6.924  0.1990 -0.3491 -0.4873
    7MOL   C158 2450   3.801   1.902   6.946 -0.2470  0.5345 -0.4894
    7MOL   C159 2451   3.753   2.011   7.042  0.1562  0.5719  0.3263
    7MOL   C160 2452   4.010   1.830   6.805 -0.2864  0.3543 -0.1376
    7MOL   H161 2453   4.212   1.912   6.823  1.5265 -1.0001 -0.1335
    7MOL   H162 2454   4.188   1.690   6.997  0.3753  0.4182 -0.1445
    7MOL   H163 2455   4.246   1.865   7.014 -0.5756  1.0117  1.8284
    7MOL   H164 2456   3.990   1.777   7.102  1.8957  0.6446  3.3896
    7MOL   H165 2457   4.051   1.936   7.115  1.3722  0.7550 -0.9393
    7MOL   H166 2458   3.972   2.014   6.911 -0.4342  0.1423  2.2912
    7MOL   H167 2459   3.775   1.804   6.986 -1.1501  1.1328  0.4117
    7MOL   H168 2460   3.756   1.920   6.849 -0.2211  1.2947 -0.3606
    7MOL   H169 2461   3.834   2.040   7.109  1.4665 -1.9373 -0.0910
    7MOL   H170 2462   3.749   2.099   6.978 -0.4469 -0.4725 -1.0931
    7MOL   H171 2463   3.991   1.883   6.712  2.7268  1.9085  0.1055
    7MOL   H172 2464   3.975   1.727   6.799 -0.0377  0.2641 -0.0508
    7MOL   C173 2465   3.624   1.995   7.120  0.0658 -0.0890  0.2355
    7MOL   C174 2466   3.629   1.907   7.239 -0.0285  0.3895  0.5870
    7MOL   C175 2467   3.532   1.956   7.345  0.3713 -0.9656 -0.0326
    7MOL   C176 2468   3.488   2.092   7.290 -0.3775  1.2205  0.0883
    7MOL   C177 2469   3.491   2.200   7.402 -0.5118  1.1071 -0.1236
    7MOL   C178 2470   3.388   2.179   7.506  0.5961  0.7506 -0.9305
    7MOL   C179 2471   3.577   2.127   7.175  0.0555  0.1109  0.8169
    7MOL   H180 2472   3.543   1.956   7.059  0.4377  0.0976 -0.3781
    7MOL   H181 2473   3.720   1.944   7.287  1.0167 -1.3236  0.0050
    7MOL   H182 2474   3.638   1.799   7.224 -0.0569  0.3314  0.9757
    7MOL   H183 2475   3.448   1.887   7.334 -1.3034  1.3064 -2.0634
    7MOL   H184 2476   3.578   1.955   7.444 -0.0750  0.4295  0.2068
    7MOL   H185 2477   3.387   2.092   7.249 -0.2707  1.3465 -0.1737
    7MOL   H186 2478   3.474   2.298   7.358 -0.9308  1.1603  0.1575
    7MOL   H187 2479   3.596   2.193   7.431 -0.8976  1.0671  1.2950
    7MOL   H188 2480   3.377   2.076   7.540  1.1056  1.3430  1.0687
    7MOL   H189 2481   3.290   2.214   7.472 -0.9267 -2.1867  0.2121
    7MOL   H190 2482   3.654   2.194   7.214  0.3325  0.7042 -0.7193
    7MOL   H191 2483   3.523   2.170   7.091 -1.0309 -1.8654  0.4719
    7MOL   C192 2484   3.432   2.258   7.634  0.4483 -0.6909  0.0192
    7MOL   C193 2485   3.561   2.195   0.053 -0.5139  0.0786  0.3344
    7MOL   C194 2486   3.521   2.162   0.200  0.3623  0.2783 -0.4895
    7MOL   C195 2487   3.370   2.141   0.198  0.4815 -0.7185  0.6809
    7MOL   C196 2488   3.290   2.153   0.331  0.4561  0.1192 -0.2566
    7MOL   C197 2489   3.316   2.040   0.441 -0.9477 -0.3561 -0.0828
    7MOL   C198 2490   3.324   2.247   0.101  0.7673 -0.4607 -0.0799
    7MOL   H199 2491   3.458   2.361   7.609  1.4998 -0.9477  0.0257
    7MOL   H200 2492   3.583   2.102   0.002  1.2559  1.0004 -0.6497
    7MOL   H201 2493   3.646   2.262   0.039 -0.7408  0.3067  0.0325
    7MOL   H202 2494   3.535   2.252   0.260 -0.3557  0.7864 -1.0686
    7MOL   H203 2495   3.575   2.078   0.243 -0.6240  1.0014  2.2930
    7MOL   H204 2496   3.365   2.043   0.150  1.0000 -1.8917  2.9838
    7MOL   H205 2497   3.185   2.172   0.307 -0.2610 -2.5813  0.5307
    7MOL   H206 2498   3.322   2.246   0.378 -0.8321 -0.9895  2.9800
    7MOL   H207 2499   3.423   2.022   0.436 -0.8723  0.5141 -2.1895
    7MOL   H208 2500   3.265   1.946   0.419  0.5684 -1.2906  0.3871
    7MOL   H209 2501   3.325   2.346   0.145 -1.2682 -0.7230  0.6095
    7MOL   H210 2502   3.222   2.237   0.064  1.5845 -1.4265 -2.1561
    7MOL   C211 2503   3.260   2.083   0.577 -0.1497 -0.2667 -0.0069
    7MOL   C212 2504   3.309   2.220   0.635 -0.2081  0.1730 -0.3435
    7MOL   C213 2505   3.315   2.207   0.793  0.1953  0.8004  0.2196
    7MOL   C214 2506   3.265   2.066   0.822 -0.5297  0.9898 -0.2814
    7MOL   C215 2507   3.324   1.998   0.945 -0.2441  0.5091 -0.2983
    7MOL   C216 2508   3.287   1.848   0.957  0.1563 -0.0425 -0.2381
    7MOL   C217 2509   3.288   1.982   0.692  0.4811 -0.1344 -0.4283
    7MOL   H218 2510   3.151   2.083   0.572 -0.0858  1.0713 -1.7407
    7MOL   H219 2511   3.410   2.245   0.604 -0.6096  2.6941  0.2278
    7MOL   H220 2512   3.249   2.301   0.594 -1.0253 -1.0016 -1.4958
    7MOL   H221 2513   3.418   2.227   0.823  0.1052  0.7865  0.5439
    7MOL   H222 2514   3.245   2.280   0.833 -0.7478  0.4669 -0.7901
    7MOL   H223 2515   3.158   2.083   0.834 -0.6481 -0.2724  0.5334
    7MOL   H224 2516   3.293   2.056   1.032  0.7716  0.7903 -0.1165
    7MOL   H225 2517   3.431   2.016   0.952  0.5345 -3.9872  1.5840
    7MOL   H226 2518   3.326   1.792   0.872 -1.2735  1.6509 -2.0740
    7MOL   H227 2519   3.327   1.804   1.048  2.2830 -1.1956 -1.7178
    7MOL   H228 2520   3.230   1.891   0.683  0.2051 -0.0113  0.0696
    7MOL   H229 2521   3.388   1.943   0.675  1.1314  0.4180  1.9351
    7MOL   C230 2522   3.132   1.811   0.959 -0.8310 -0.0553  0.3006
    7MOL   C231 2523   3.069   1.849   1.089  0.0145 -0.3740  0.4665
    7MOL   C232 2524   2.972   1.731   1.127 -0.7501  0.0561  0.4781
    7MOL   C233 2525   3.046   1.604   1.084 -0.0422  0.0320 -0.1245
    7MOL   C234 2526   2.951   1.480   1.074  0.4268 -0.4942 -0.2769
    7MOL   C235 2527   3.029   1.344   1.082  0.6685 -0.3543  0.0702
    7MOL   C236 2528   3.117   1.655   0.955 -0.7697  0.2420 -0.1747
    7MOL   H237 2529   3.070   1.858   0.882 -2.7557 -1.4543  0.9847
    7MOL   H238 2530   3.143   1.846   1.170 -2.1766  0.9000  2.5904
    7MOL   H239 2531   3.019   1.945   1.085  1.3066  0.2838  0.0439
    7MOL   H240 2532   2.889   1.754   1.060 -0.6374  3.4233  1.4029
    7MOL   H241 2533   2.946   1.730   1.232 -1.6621 -1.5872  0.2614
    7MOL   H242 2534   3.108   1.586   1.171 -0.6132 -0.4899  0.1774
    7MOL   H243 2535   2.882   1.480   0.989 -1.6796 -1.8357  1.3803
    7MOL   H244 2536   2.897   1.468   1.168  2.4806  0.0627  1.0149
    7MOL   H245 2537   3.108   1.344   1.006  0.4175  0.6279 -0.2088
    7MOL   H246 2538   3.083   1.341   1.176  1.4452  1.5867 -0.2822
    7MOL   H247 2539   3.052   1.623   0.874 -0.8458  1.7760 -0.7398
    7MOL   H248 2540   3.213   1.604   0.948  0.5052  2.3235  1.3763
    7MOL   C249 2541   2.955   1.215   1.062  0.4704 -0.2291  0.2065
    7MOL   C250 2542   3.051   1.096   1.077 -0.5477 -0.4201 -0.0624
    7MOL   C251 2543   2.983   0.984   1.156  0.2220 -0.0895 -0.2158
    7MOL   C252 2544   2.902   1.066   1.255 -0.0561 -0.6016 -0.0928
    7MOL   C253 2545   2.780   0.990   1.311  0.0901  0.7268 -0.2677
    7MOL   C254 2546   2.721   1.062   1.435  0.5970 -0.4846  0.1222
    7MOL   C255 2547   2.854   1.195   1.177  0.1728 -0.2624 -0.2126
    7MOL   H256 2548   2.904   1.215   0.966  1.8812  1.6862 -0.5804
    7MOL   H257 2549   3.087   1.066   0.979  1.3088  2.1744 -0.2396
    7MOL   H258 2550   3.137   1.127   1.138 -1.1654 -0.9536  1.0854
    7MOL   H259 2551   3.053   0.918   1.206  1.2059  1.4174  0.4283
    7MOL   H260 2552   2.922   0.939   1.078  0.7234 -1.4069  0.1371
    7MOL   H261 2553   2.972   1.092   1.334 -1.0485 -1.6912  1.1579
    7MOL   H262 2554   2.826   0.894   1.338 -2.7877  0.0779  2.7550
    7MOL   H263 2555   2.714   0.973   1.226  0.3765  2.3023 -0.8025
    7MOL   H264 2556   2.623   1.105   1.414  0.7016  0.3821  1.3599
    7MOL   H265 2557   2.791   1.145   1.448 -1.3065  0.9279  1.5181
    7MOL   H266 2558   2.835   1.283   1.237  3.0018  1.1784 -1.3562
    7MOL   H267 2559   2.758   1.170   1.131  0.0878  2.5610 -1.6498
    7MOL   C268 2560   2.726   0.970   1.561  0.4966  0.4238 -0.5667
    7MOL   C269 2561   2.632   0.853   1.549  0.4187 -0.5635  0.5119
    7MOL   C270 2562   2.493   0.907   1.594 -0.3724  0.8259  1.3496
    7MOL   C271 2563   2.521   1.015   1.698 -0.0849  0.0164 -0.2758
    7MOL   C272 2564   2.445   1.154   1.685  0.8211  0.2697 -0.1327
    7MOL   C273 2565   2.290   1.136   1.682  0.2038 -0.3173  0.5717
    7MOL   C274 2566   2.677   1.051   1.683  0.2958 -0.4020  0.0712
    7MOL   H275 2567   2.825   0.928   1.578  0.5746  1.1475  0.8581
    7MOL   H276 2568   2.632   0.820   1.445  3.3185  1.1549 -0.1113
    7MOL   H277 2569   2.647   0.768   1.616 -3.4277 -0.2358  1.8847
    7MOL   H278 2570   2.442   0.954   1.510  1.2456 -2.0354 -1.3498
    7MOL   H279 2571   2.432   0.825   1.633  0.8175 -0.6205  0.2427
    7MOL   H280 2572   2.505   0.968   1.795 -1.1982 -1.0862 -0.9820
    7MOL   H281 2573   2.481   1.213   1.601  1.2397  0.7142  0.3565
    7MOL   H282 2574   2.475   1.214   1.771  1.8651 -0.4074 -0.0139
    7MOL   H283 2575   2.257   1.117   1.580 -3.4680 -1.0540  1.8443
    7MOL   H284 2576   2.256   1.049   1.738 -1.4610  0.5287  0.8956
    7MOL   H285 2577   2.703   1.155   1.661  2.0262 -1.0400 -1.0331
    7MOL   H286 2578   2.746   1.032   1.765 -0.4004 -0.7649  0.5777
    7MOL   C287 2579   2.220   1.258   1.747  0.1838 -1.0701  0.4085
    7MOL   C288 2580   2.071   1.253   1.728 -0.6634  0.2925  0.4269
    7MOL   C289 2581   2.008   1.296   1.854  0.1444  0.2380  0.2834
    7MOL   C290 2582   2.121   1.349   1.939 -0.7152 -0.5636 -0.2997
    7MOL   C291 2583   2.092   1.346   2.089  0.3787 -0.5781  0.0923
    7MOL   C292 2584   1.981   1.441   2.143  0.4122  0.7791 -0.2118
    7MOL   C293 2585   2.244   1.267   1.896 -0.3770  0.2595  0.0223
    7MOL   H294 2586   2.246   1.352   1.697  1.4077 -1.0164  1.1225
    7MOL   H295 2587   2.055   1.320   1.643  1.4216 -1.1635 -1.1751
    7MOL   H296 2588   2.037   1.158   1.688  1.8359 -1.0454  1.3555
    7MOL   H297 2589   1.963   1.209   1.903  0.9615 -0.3562 -0.0207
    7MOL   H298 2590   1.929   1.368   1.831  1.4659  1.7784  0.5001
    7MOL   H299 2591   2.141   1.452   1.908 -0.8361 -1.1133 -2.3056
    7MOL   H300 2592   2.183   1.375   2.142  0.0864  1.5789 -0.5603
    7MOL   H301 2593   2.084   1.244   2.127  2.2057 -0.8045 -0.0597
    7MOL   H302 2594   1.897   1.425   2.077  0.2071 -1.8134  0.5960
    7MOL   H303 2595   2.018   1.543   2.145  0.1072  0.9487 -2.1999
    7MOL   H304 2596   2.256   1.167   1.936  0.5746 -0.4310 -1.8938
    7MOL   H305 2597   2.329   1.331   1.917  0.2908 -0.4026 -0.6623
    7MOL   C306 2598   1.935   1.417   2.293  0.2092  0.2115  0.6453
    7MOL   C307 2599   2.046   1.431   2.399 -0.0426  0.4695  0.6853
    7MOL   C308 2600   1.982   1.487   2.528 -0.8485 -1.0624 -0.6669
    7MOL   C309 2601   1.842   1.547   2.492  0.3782  0.4799  0.5858
    7MOL   C310 2602   1.833   1.696   2.523  0.0644  0.0301 -0.3965
    7MOL   C311 2603   1.692   1.746   2.500 -0.7417  0.4707  0.0128
    7MOL   C312 2604   1.827   1.516   2.332  0.1657 -0.1510  0.8277
    7MOL   H313 2605   1.906   1.312   2.300 -2.3648  0.8272 -0.2442
    7MOL   H314 2606   2.108   1.341   2.403  1.2501  1.2474 -0.9750
    7MOL   H315 2607   2.102   1.517   2.362  0.4155 -0.9700 -2.1286
    7MOL   H316 2608   1.977   1.409   2.604  0.9927 -2.1092 -1.5980
    7MOL   H317 2609   2.054   1.558   2.568 -2.1216  1.1748 -2.2294
    7MOL   H318 2610   1.762   1.492   2.540  0.5133 -0.7819 -0.5862
    7MOL   H319 2611   1.847   1.706   2.631 -0.2098  0.9830 -0.4437
    7MOL   H320 2612   1.900   1.761   2.467 -0.6752  1.0612 -0.1019
    7MOL   H321 2613   1.616   1.671   2.522  0.0572 -0.5728 -0.7752
    7MOL   H322 2614   1.696   1.752   2.392 -0.3040  0.0448  0.0058
    7MOL   H323 2615   1.838   1.604   2.269 -0.1211 -0.1708  0.7511
    7MOL   H324 2616   1.728   1.483   2.302  0.2232  2.2910 -2.2631
    7MOL   C325 2617   1.640   1.884   2.553  0.5777  0.1229 -0.5435
    7MOL   C326 2618   1.727   2.000   2.490  0.4032  0.5277 -0.4062
    7MOL   C327 2619   1.626   2.116   2.482  0.2378  0.0432 -0.0898
    7MOL   C328 2620   1.490   2.049   2.448  0.4970  0.1751  0.6502
    7MOL   C329 2621   1.364   2.132   2.486  0.2454  0.5304  0.2320
    7MOL   C330 2622   1.366   2.266   2.420 -0.2201 -0.2082 -0.0781
    7MOL   C331 2623   1.489   1.920   2.531 -0.0818  0.7522  0.4675
    7MOL   H332 2624   1.658   1.887   2.660  1.2192 -0.5522 -0.6284
    7MOL   H333 2625   1.772   1.964   2.397 -0.5619 -0.3644 -0.5350
    7MOL   H334 2626   1.802   2.038   2.559  1.3512 -0.5467 -0.8284
    7MOL   H335 2627   1.622   2.158   2.583  1.1242 -1.7925  0.7357
    7MOL   H336 2628   1.647   2.205   2.423  1.5877  0.3725  0.8698
    7MOL   H337 2629   1.491   2.019   2.343  0.4639 -2.6542  1.4313
    7MOL   H338 2630   1.278   2.070   2.462 -0.5062  1.6856 -0.0700
    7MOL   H339 2631   1.355   2.151   2.593 -0.8994 -0.1150  0.2549
    7MOL   H340 2632   1.442   2.329   2.466  0.3240 -0.9903  0.1017
    7MOL   H341 2633   1.390   2.256   2.314  1.2724  1.8837  0.0242
    7MOL   H342 2634   1.433   1.847   2.472 -0.0938 -0.1642  1.5794
    7MOL   H343 2635   1.434   1.926   2.625  0.0658  0.2366  0.5922
    7MOL   C344 2636   1.228   2.339   2.433 -0.3530  0.5467 -0.0106
    7MOL   C345 2637   1.225   2.468   2.352  0.3047  0.4546 -0.0317
    7MOL   C346 2638   1.214   2.588   2.458  0.5136 -0.4406  0.4883
    7MOL   C347 2639   1.246   2.526   2.594 -0.4709 -0.0250  0.4056
    7MOL   C348 2640   1.199   2.607   2.708  0.4747 -0.3241  0.3123
    7MOL   C349 2641   1.282   2.737   2.726 -0.0532  0.5657  0.3695
    7MOL   C350 2642   1.195   2.377   2.585  0.3094  0.1888 -0.0551
    7MOL   H351 2643   1.156   2.270   2.390 -1.1330  0.9485  0.6431
    7MOL   H352 2644   1.147   2.477   2.277  0.9918 -1.6845 -1.0346
    7MOL   H353 2645   1.317   2.475   2.293  1.1292  1.3198  1.3046
    7MOL   H354 2646   1.279   2.671   2.430 -3.5112  2.6199 -0.2426
    7MOL   H355 2647   1.113   2.630   2.460  1.0501  0.8271  1.5343
    7MOL   H356 2648   1.355   2.532   2.605 -0.3184  0.0408 -0.9889
    7MOL   H357 2649   1.094   2.624   2.686  0.6868  0.1940 -0.3443
    7MOL   H358 2650   1.206   2.545   2.797 -0.7448 -1.3615 -0.2923
    7MOL   H359 2651   1.285   2.788   2.630  1.5615 -2.7475 -1.3950
    7MOL   H360 2652   1.388   2.725   2.746 -0.2528  2.0630  2.4940
    7MOL   H361 2653   1.234   2.311   2.662 -0.8900  1.0481  1.3167
    7MOL   H362 2654   1.086   2.384   2.592  0.3295 -0.6443  1.3146
    7MOL   C363 2655   1.225   2.829   2.832 -0.0181  0.6658 -0.1495
    7MOL   C364 2656   1.292   2.969   2.823 -0.7374  0.1525  0.9701
    7MOL   C365 2657   1.421   2.950   2.898  0.1274 -0.8070  0.4450
    7MOL   C366 2658   1.382   2.862   3.022  0.1871 -0.6123  0.2424
    7MOL   C367 2659   1.502   2.774   3.083 -0.5320 -0.4310  0.0553
    7MOL   C368 2660   1.602   2.847   3.174  0.3039 -0.6699  0.7491
    7MOL   C369 2661   1.261   2.785   2.975 -0.7894  0.1760 -0.3126
    7MOL   H370 2662   1.117   2.842   2.823 -0.0788  2.0483  2.2968
    7MOL   H371 2663   1.306   3.011   2.724  0.5714 -2.0011  0.2131
    7MOL   H372 2664   1.226   3.044   2.867 -1.3400 -1.2739  2.5750
    7MOL   H373 2665   1.498   2.897   2.841 -0.8429 -2.9935  1.1232
    7MOL   H374 2666   1.448   3.053   2.921 -0.4737  0.2658 -3.3343
    7MOL   H375 2667   1.345   2.930   3.098  1.4239 -0.8555  1.0930
    7MOL   H376 2668   1.461   2.693   3.144 -0.1907 -1.2598 -0.7986
    7MOL   H377 2669   1.560   2.728   3.003 -0.0781  0.5651 -0.1855
    7MOL   H378 2670   1.547   2.904   3.249 -0.6490  0.0814 -0.5050
    7MOL   H379 2671   1.665   2.919   3.121 -0.9235 -0.0329  0.1265
    7MOL   H380 2672   1.282   2.678   2.971  1.7535  0.6114  0.7253
    7MOL   H381 2673   1.178   2.798   3.044  0.5031 -0.8387  1.4681
    7MOL   H382 2674   1.680   2.780   3.210  0.5889 -0.5592  0.3429
    8MOL     C1 2675   2.435   2.476   4.127 -0.4386 -0.3885 -0.2921
    8MOL     C2 2676   2.496   2.412   4.259 -0.0227  0.6779  0.4513
    8MOL     C3 2677   2.641   2.388   4.228 -0.7994  0.4972  0.3358
    8MOL     C4 2678   2.673   2.480   4.109 -0.4805 -0.0875 -0.0646
    8MOL     C5 2679   2.805   2.442   4.040 -0.1004  0.7621  0.0763
    8MOL     C6 2680   2.843   2.513   3.919  0.4499 -0.4111 -0.5014
    8MOL     C7 2681   2.545   2.473   4.023  0.0197 -0.0374 -0.4184
    8MOL     H8 2682   2.345   2.419   4.103 -0.7805 -0.1602  0.4091
    8MOL     H9 2683   2.435   2.328   4.292 -1.1909  2.2461  2.4513
    8MOL    H10 2684   2.485   2.476   4.347  0.6823 -0.0371  1.0602
    8MOL    H11 2685   2.706   2.400   4.314 -1.1698  1.2924  0.5057
    8MOL    H12 2686   2.648   2.283   4.198 -0.4120 -0.0355  2.2448
    8MOL    H13 2687   2.678   2.579   4.155 -0.6000  0.0638 -0.3761
    8MOL    H14 2688   2.880   2.464   4.115  0.9979  3.6688 -1.7814
    8MOL    H15 2689   2.800   2.334   4.030  2.6460  0.7926 -2.0627
    8MOL    H16 2690   2.763   2.482   3.852  0.5769 -1.4861 -0.1702
    8MOL    H17 2691   2.842   2.621   3.931 -1.7114 -0.5100  0.4096
    8MOL    H18 2692   2.539   2.565   3.966 -2.0184  0.9903  1.3553
    8MOL    H19 2693   2.539   2.382   3.965 -0.0422  0.6929 -1.5658
    8MOL    H20 2694   2.403   2.579   4.142 -1.1907 -0.9615  2.4703
    8MOL    C21 2695   2.984   2.487   3.864  0.5962 -0.3935 -0.1954
    8MOL    C22 2696   2.995   2.346   3.808 -0.0664 -0.0010  0.1502
    8MOL    C23 2697   3.116   2.342   3.717  0.3071 -0.0887  0.5656
    8MOL    C24 2698   3.147   2.491   3.689  0.1731 -0.2959  0.3832
    8MOL    C25 2699   3.190   2.518   3.544 -0.3795 -0.1625 -0.4876
    8MOL    C26 2700   3.247   2.659   3.542  0.2286  1.0717  0.0132
    8MOL    C27 2701   3.031   2.572   3.748 -0.6466 -0.1229  0.1004
    8MOL    H28 2702   3.046   2.510   3.951 -0.3489 -0.6624  0.5575
    8MOL    H29 2703   2.995   2.262   3.878  1.5872  0.2354  0.4682
    8MOL    H30 2704   2.903   2.337   3.751 -0.0722  0.4314  0.0966
    8MOL    H31 2705   3.199   2.303   3.776 -1.5577  0.9259  3.9731
    8MOL    H32 2706   3.107   2.286   3.624 -1.7578  0.3650  0.4602
    8MOL    H33 2707   3.229   2.517   3.756  0.1117  0.2309  0.2500
    8MOL    H34 2708   3.103   2.506   3.479 -0.5908  1.9247 -0.5986
    8MOL    H35 2709   3.269   2.456   3.501  1.1467  0.9445  0.6725
    8MOL    H36 2710   3.356   2.653   3.554 -0.0833  0.1931  2.7620
    8MOL    H37 2711   3.227   2.719   3.631  2.2536  1.1034  0.4868
    8MOL    H38 2712   3.057   2.673   3.779 -0.7082  0.2151 -0.9251
    8MOL    H39 2713   2.945   2.590   3.683 -0.3562  0.2059 -0.1924
    8MOL    C40 2714   3.203   2.742   3.414  0.0572 -0.5949 -0.0924
    8MOL    C41 2715   3.054   2.780   3.394  0.4220 -0.1775 -0.8515
    8MOL    C42 2716   3.054   2.903   3.298  0.2875 -0.3933  0.6580
    8MOL    C43 2717   3.173   2.986   3.346 -0.8647 -0.1250 -0.2465
    8MOL    C44 2718   3.226   3.071   3.226  0.0342  0.1469 -0.1904
    8MOL    C45 2719   3.137   3.187   3.179 -0.2679  0.4282  0.3218
    8MOL    C46 2720   3.273   2.884   3.408  0.0704  0.7433  0.5669
    8MOL    H47 2721   3.227   2.682   3.326  1.0560  0.2059 -0.3825
    8MOL    H48 2722   3.010   2.809   3.489 -0.0206 -0.2504 -1.0343
    8MOL    H49 2723   2.993   2.701   3.353  0.9598  0.4944 -3.0008
    8MOL    H50 2724   3.057   2.870   3.194 -1.8023 -0.1403  0.4942
    8MOL    H51 2725   2.969   2.970   3.286  0.8518 -0.0471 -1.5120
    8MOL    H52 2726   3.143   3.060   3.420  0.2524 -0.7619  0.8860
    8MOL    H53 2727   3.325   3.108   3.253 -0.5362 -0.2838  2.5653
    8MOL    H54 2728   3.236   3.002   3.141  1.0596 -1.4411  1.1825
    8MOL    H55 2729   3.127   3.259   3.260  2.5877  0.7627  0.4202
    8MOL    H56 2730   3.037   3.153   3.151 -0.0054  0.8841 -1.2665
    8MOL    H57 2731   3.363   2.882   3.346  1.5419 -1.6417  2.6909
    8MOL    H58 2732   3.296   2.923   3.507 -0.3466 -0.5879  1.1964
    8MOL    C59 2733   3.183   3.267   3.050 -0.1388  1.1975 -0.4896
    8MOL    C60 2734   3.331   3.277   3.030 -0.6052 -0.2468  0.4018
    8MOL    C61 2735   3.349   3.320   2.883  0.1018 -0.3660  0.1531
    8MOL    C62 2736   3.218   3.278   2.812  0.1810  0.0133 -0.1761
    8MOL    C63 2737   3.145   3.401   2.747 -0.0381 -0.2399 -0.0619
    8MOL    C64 2738   3.209   3.438   2.609 -0.5948  0.0953  0.2429
    8MOL    C65 2739   3.128   3.210   2.913 -0.4110 -0.0436 -0.1062
    8MOL    H66 2740   3.151   3.371   3.045  0.8520  1.4578 -1.3452
    8MOL    H67 2741   3.385   3.336   3.104 -0.1329  2.1299 -1.7635
    8MOL    H68 2742   3.375   3.179   3.046 -1.2828 -0.5252  0.6194
    8MOL    H69 2743   3.349   3.428   2.876 -0.5330 -0.4488 -1.4476
    8MOL    H70 2744   3.441   3.275   2.846  1.0087  2.4070 -1.0661
    8MOL    H71 2745   3.233   3.206   2.732 -1.8779 -2.6408  1.7715
    8MOL    H72 2746   3.144   3.490   2.810  1.4700  0.8450 -1.5126
    8MOL    H73 2747   3.047   3.362   2.722  0.1228 -0.5504 -0.2147
    8MOL    H74 2748   3.311   3.464   2.635 -1.1193 -1.0547  3.6527
    8MOL    H75 2749   3.199   3.349   2.547 -0.0907  1.8322 -2.4292
    8MOL    H76 2750   3.020   3.220   2.908 -0.3818  0.3323 -0.0321
    8MOL    H77 2751   3.140   3.102   2.908 -1.5897 -0.1852  0.0133
    8MOL    C78 2752   3.148   3.557   2.543  0.7965 -0.4451  0.4971
    8MOL    C79 2753   3.173   3.701   2.615 -0.5816 -0.1773  0.0838
    8MOL    C80 2754   3.206   3.798   2.504  0.0013 -0.0080 -0.3747
    8MOL    C81 2755   3.158   3.736   2.370 -0.4328  0.6209  0.3308
    8MOL    C82 2756   3.220   3.802   2.248  0.4356  0.0594  0.7846
    8MOL    C83 2757   3.164   3.744   2.120 -0.4651 -0.6905  0.7275
    8MOL    C84 2758   3.187   3.593   2.397  0.0970  0.0582  0.3192
    8MOL    H85 2759   3.041   3.539   2.538  0.8471 -0.6938  0.3084
    8MOL    H86 2760   3.083   3.738   2.664  0.5020  1.0333  1.2038
    8MOL    H87 2761   3.248   3.697   2.694  0.1667  2.4069 -0.4508
    8MOL    H88 2762   3.183   3.901   2.531  2.8733  0.3005  1.1128
    8MOL    H89 2763   3.315   3.797   2.499 -0.0489 -0.3246 -1.4927
    8MOL    H90 2764   3.051   3.739   2.352 -0.2722  1.0007 -0.5841
    8MOL    H91 2765   3.327   3.782   2.258  0.3320 -0.8815  0.1042
    8MOL    H92 2766   3.197   3.908   2.261 -2.0714 -0.3425 -0.1650
    8MOL    H93 2767   3.055   3.734   2.120 -0.6819  1.3242 -0.9895
    8MOL    H94 2768   3.184   3.637   2.112 -0.2064 -0.5560 -0.5091
    8MOL    H95 2769   3.295   3.581   2.390  0.0118  0.3489 -1.8280
    8MOL    H96 2770   3.139   3.531   2.321  0.2713  2.0569 -1.4781
    8MOL    C97 2771   3.211   3.816   1.989 -0.7356  0.0432 -0.1429
    8MOL    C98 2772   3.172   3.961   1.970 -0.1480  0.2553  0.1468
    8MOL    C99 2773   3.167   3.985   1.814  0.0334 -0.0114 -0.0016
    8MOL   C100 2774   3.185   3.846   1.748  0.3478 -1.4933  0.2557
    8MOL   C101 2775   3.098   3.835   1.619 -0.5757  0.1819  0.4385
    8MOL   C102 2776   3.123   3.924   1.495 -0.4485 -0.6662  0.1483
    8MOL   C103 2777   3.152   3.750   1.862 -0.0385  0.3164  0.3365
    8MOL   H104 2778   3.320   3.812   1.988 -0.7895 -1.6611 -0.2102
    8MOL   H105 2779   3.078   3.984   2.019 -0.8477  1.4230 -1.6785
    8MOL   H106 2780   3.247   4.027   2.014 -0.7961  1.7018 -0.8992
    8MOL   H107 2781   3.070   4.025   1.787  0.6615  1.0120 -0.7661
    8MOL   H108 2782   3.239   4.055   1.772 -1.3573  2.7472  2.0630
    8MOL   H109 2783   3.291   3.831   1.726  0.8845  0.3516  1.4794
    8MOL   H110 2784   3.112   3.731   1.589  1.5372  0.8418 -0.9094
    8MOL   H111 2785   2.991   3.839   1.643 -0.8249 -0.9530 -0.4159
    8MOL   H112 2786   3.097   4.028   1.512  1.4352 -0.3926  1.5311
    8MOL   H113 2787   3.228   3.920   1.468 -0.5065  0.5452 -0.2671
    8MOL   H114 2788   3.043   3.739   1.856  0.1318 -0.9059 -0.6032
    8MOL   H115 2789   3.178   3.645   1.848 -2.8535 -0.6773  2.0568
    8MOL   C116 2790   3.041   3.880   1.371  0.3599 -0.0230  0.5792
    8MOL   C117 2791   2.885   3.900   1.382  0.3563  0.2774  0.4305
    8MOL   C118 2792   2.847   3.970   1.248 -0.4121 -0.1189 -1.1584
    8MOL   C119 2793   2.953   3.933   1.154 -0.2410 -0.4628 -0.0910
    8MOL   C120 2794   2.958   4.029   1.037 -0.0645  0.7809  0.0509
    8MOL   C121 2795   2.841   4.004   0.939 -0.0999 -0.4544 -0.3619
    8MOL   C122 2796   3.082   3.935   1.237  0.4080  0.6736 -0.2527
    8MOL   H123 2797   3.056   3.772   1.360 -2.0180 -0.4484  1.2089
    8MOL   H124 2798   2.867   3.960   1.471 -0.5319 -0.6678  0.9084
    8MOL   H125 2799   2.834   3.804   1.393  1.8403 -0.4272  1.2660
    8MOL   H126 2800   2.840   4.077   1.263  0.5746 -0.4038  1.6115
    8MOL   H127 2801   2.743   3.945   1.223 -0.8203  2.3703 -2.0906
    8MOL   H128 2802   2.927   3.832   1.122  0.8961 -0.1625 -2.0290
    8MOL   H129 2803   3.049   4.014   0.981 -0.3397  0.3027 -0.2722
    8MOL   H130 2804   2.961   4.134   1.068  1.6978  0.1050  2.3577
    8MOL   H131 2805   2.746   4.019   0.989  0.2531  0.8818 -0.0755
    8MOL   H132 2806   2.842   3.906   0.890 -0.1087 -0.5525 -0.1660
    8MOL   H133 2807   3.168   3.887   1.190  0.7164  0.9594  0.0233
    8MOL   H134 2808   3.112   4.038   1.257  1.1781  0.2154  1.0104
    8MOL   C135 2809   2.843   4.109   0.830 -0.1738 -0.6127  0.2833
    8MOL   C136 2810   2.967   4.103   0.736  0.0575 -0.2773  0.1503
    8MOL   C137 2811   2.909   4.149   0.599  0.0427  0.0593 -0.3899
    8MOL   C138 2812   2.763   4.095   0.596 -0.3184  0.2021 -0.2588
    8MOL   C139 2813   2.676   4.174   0.492  0.0730 -0.3418  0.2300
    8MOL   C140 2814   2.531   4.111   0.486  0.1715 -0.2709 -0.7911
    8MOL   C141 2815   2.718   4.082   0.743  0.2962  0.2414  0.8902
    8MOL   H142 2816   2.835   4.212   0.864  1.6393  0.5676 -2.6036
    8MOL   H143 2817   3.044   4.172   0.770 -0.7490 -0.6703  2.8244
    8MOL   H144 2818   3.006   4.003   0.722  0.9749  0.1688 -0.5383
    8MOL   H145 2819   2.920   4.258   0.592 -1.9077  0.3798  1.0101
    8MOL   H146 2820   2.965   4.105   0.517  1.0507 -1.3942  1.0495
    8MOL   H147 2821   2.771   3.988   0.574 -1.5716 -0.5392  2.6517
    8MOL   H148 2822   2.717   4.169   0.392 -2.7170  0.1767 -0.9728
    8MOL   H149 2823   2.683   4.279   0.522  0.8264  0.6234 -3.1360
    8MOL   H150 2824   2.528   4.020   0.426 -1.6409 -0.3165 -0.6450
    8MOL   H151 2825   2.498   4.059   0.576  0.0488  1.0075 -0.0726
    8MOL   H152 2826   2.657   3.993   0.762  0.1019  0.1633 -0.0986
    8MOL   H153 2827   2.648   4.164   0.756  0.3037  0.6969 -1.6989
    8MOL   C154 2828   2.422   4.221   0.459  0.7205 -0.3807  0.5276
    8MOL   C155 2829   2.283   4.152   0.462  0.2518  0.1328  0.6907
    8MOL   C156 2830   2.221   4.193   0.326 -0.7463  0.3037  0.0954
    8MOL   C157 2831   2.294   4.312   0.276  0.2798  0.0205 -0.0776
    8MOL   C158 2832   2.270   4.349   0.123  0.2198  0.4380  0.0082
    8MOL   C159 2833   2.115   4.368   0.092 -0.1932 -0.1467  0.4116
    8MOL   C160 2834   2.430   4.289   0.319  0.0217  0.5843 -0.1060
    8MOL   H161 2835   2.415   4.283   0.548  0.1386  0.7415 -0.2757
    8MOL   H162 2836   2.307   4.046   0.463  0.7895  0.1143 -3.4056
    8MOL   H163 2837   2.224   4.183   0.547  0.1459  0.3643  0.5327
    8MOL   H164 2838   2.241   4.114   0.253 -2.0616  0.8585 -0.8804
    8MOL   H165 2839   2.113   4.210   0.334 -1.0329 -0.7044 -1.4692
    8MOL   H166 2840   2.254   4.392   0.339  1.1451  0.5571 -0.2062
    8MOL   H167 2841   2.312   4.262   0.073  2.0649  1.0175  0.5096
    8MOL   H168 2842   2.320   4.440   0.092 -3.0325  1.2302 -3.1502
    8MOL   H169 2843   2.050   4.283   0.113 -0.7778 -0.3208 -1.9917
    8MOL   H170 2844   2.073   4.445   0.158  0.1933  0.4738 -0.0621
    8MOL   H171 2845   2.467   4.391   0.324 -1.9311  1.2456  1.2295
    8MOL   H172 2846   2.491   4.224   0.256  0.1760 -0.0071  0.6509
    8MOL   C173 2847   2.103   4.409   7.591 -0.0366 -0.2732 -0.4578
    8MOL   C174 2848   2.129   4.288   7.496 -0.2423 -0.3782 -0.3739
    8MOL   C175 2849   2.071   4.331   7.362 -0.0704  0.4197 -0.5901
    8MOL   C176 2850   1.992   4.462   7.389  0.0066  0.4953 -0.6277
    8MOL   C177 2851   1.864   4.476   7.304 -0.5508  0.1342  0.2329
    8MOL   C178 2852   1.777   4.604   7.331 -1.1046  0.5305 -0.2534
    8MOL   C179 2853   1.965   4.461   7.544 -0.5785 -0.0844  0.9206
    8MOL   H180 2854   2.172   4.490   7.570 -0.6234  0.3978  0.1597
    8MOL   H181 2855   2.075   4.201   7.533 -1.5497  0.9332  0.9007
    8MOL   H182 2856   2.233   4.257   7.499  0.2045  0.8974 -1.7827
    8MOL   H183 2857   2.143   4.355   7.284  0.8302  2.0273  0.7035
    8MOL   H184 2858   2.007   4.255   7.316  0.8939 -1.7953  1.6596
    8MOL   H185 2859   2.063   4.543   7.373  1.2958 -0.4044  0.4819
    8MOL   H186 2860   1.804   4.387   7.321 -0.4794 -0.0450 -0.4192
    8MOL   H187 2861   1.892   4.471   7.199  0.8667 -0.7901  0.6384
    8MOL   H188 2862   1.850   4.685   7.330  0.1895 -0.6105 -3.1363
    8MOL   H189 2863   1.743   4.601   7.435  2.2858  0.0510  0.9098
    8MOL   H190 2864   1.877   4.397   7.556  0.0179 -1.1720 -0.4535
    8MOL   H191 2865   1.947   4.556   7.595  0.2234  0.9460 -0.6873
    8MOL   C192 2866   1.665   4.632   7.230 -0.4505 -0.1968 -0.6665
    8MOL   C193 2867   1.599   4.772   7.236  0.1558  0.2490 -0.7773
    8MOL   C194 2868   1.449   4.753   7.284  0.8232  1.0904  0.5509
    8MOL   C195 2869   1.432   4.602   7.321 -0.5528  0.4568 -0.7431
    8MOL   C196 2870   1.295   4.537   7.287 -0.6980 -0.0998  0.0852
    8MOL   C197 2871   1.281   4.401   7.353  0.2111  0.4988 -0.5278
    8MOL   C198 2872   1.545   4.535   7.245 -0.5124  0.0981 -0.0817
    8MOL   H199 2873   1.710   4.620   7.132  0.3913  0.7023 -0.3972
    8MOL   H200 2874   1.657   4.845   7.293 -0.0146 -0.5023  0.3897
    8MOL   H201 2875   1.571   4.815   7.140 -0.6043 -0.0377 -0.6890
    8MOL   H202 2876   1.388   4.767   7.195  0.1734 -3.1284  0.2315
    8MOL   H203 2877   1.410   4.816   7.364 -0.1166 -0.7975  1.6198
    8MOL   H204 2878   1.433   4.602   7.430 -0.2852 -2.6649 -0.6972
    8MOL   H205 2879   1.293   4.516   7.180  0.6485  2.8413 -0.5380
    8MOL   H206 2880   1.210   4.596   7.320 -1.0594 -2.1905  3.1300
    8MOL   H207 2881   1.294   4.424   7.458  0.6291 -0.2072 -0.4238
    8MOL   H208 2882   1.363   4.336   7.322  1.1177 -0.3501  3.4375
    8MOL   H209 2883   1.521   4.509   7.142 -1.7770 -0.9695  0.4622
    8MOL   H210 2884   1.580   4.442   7.292 -0.4628 -0.5334 -1.3609
    8MOL   C211 2885   1.148   4.334   7.306 -0.2762  0.4494 -0.6290
    8MOL   C212 2886   1.030   4.342   7.400 -0.4310  0.4952  0.3429
    8MOL   C213 2887   0.964   4.208   7.402 -0.1680 -0.0916 -0.3621
    8MOL   C214 2888   1.015   4.128   7.281 -0.7169 -0.3939 -0.3048
    8MOL   C215 2889   1.002   3.975   7.304  0.1216  0.0690  0.5006
    8MOL   C216 2890   1.070   3.893   7.198  0.1456  0.2659 -0.1420
    8MOL   C217 2891   1.156   4.185   7.275  0.2277 -0.0086 -0.3147
    8MOL   H218 2892   1.110   4.382   7.216 -1.3312  1.3646  0.2952
    8MOL   H219 2893   1.067   4.365   7.500  0.9459 -1.2368  0.2576
    8MOL   H220 2894   0.953   4.414   7.371  1.0125  2.1218  0.4564
    8MOL   H221 2895   0.986   4.171   7.502  1.4687  2.1888  0.1685
    8MOL   H222 2896   0.855   4.216   7.396 -0.0783  0.3557 -1.6362
    8MOL   H223 2897   0.952   4.152   7.195  1.1737 -0.7677 -1.8284
    8MOL   H224 2898   0.895   3.957   7.316  0.0969  1.2477  2.2513
    8MOL   H225 2899   1.054   3.941   7.393 -1.0793 -0.6069  0.9585
    8MOL   H226 2900   1.054   3.920   7.094 -0.4670 -2.2277 -0.7208
    8MOL   H227 2901   1.178   3.886   7.211  0.1925  0.8640 -0.1857
    8MOL   H228 2902   1.185   4.155   7.174 -0.5978  2.6022 -1.3684
    8MOL   H229 2903   1.223   4.124   7.335 -0.6114  1.5033  2.2007
    8MOL   C230 2904   1.024   3.744   7.202 -1.4451  0.6777  0.1433
    8MOL   C231 2905   1.119   3.638   7.143  0.2218  0.2367 -0.3774
    8MOL   C232 2906   1.032   3.520   7.144 -0.9286  0.0539 -1.0859
    8MOL   C233 2907   0.897   3.574   7.099 -0.1022 -0.4102 -0.3509
    8MOL   C234 2908   0.785   3.472   7.136  0.3021  0.4005 -0.5978
    8MOL   C235 2909   0.769   3.346   7.051 -0.0427  0.1934  0.1069
    8MOL   C236 2910   0.885   3.718   7.152 -0.4120 -0.2488 -0.3981
    8MOL   H237 2911   1.024   3.714   7.307  2.3807 -0.4375 -0.0967
    8MOL   H238 2912   1.154   3.652   7.040 -2.9681  1.0985 -1.4039
    8MOL   H239 2913   1.210   3.621   7.201  0.6582  0.6605 -0.9253
    8MOL   H240 2914   1.021   3.480   7.245 -1.6910  0.8872 -0.8352
    8MOL   H241 2915   1.062   3.426   7.098  2.7468 -1.1764  3.3807
    8MOL   H242 2916   0.906   3.584   6.991 -0.9103  2.2466 -0.1907
    8MOL   H243 2917   0.687   3.519   7.130  0.9906  2.0383  0.5410
    8MOL   H244 2918   0.793   3.444   7.242  0.3915  0.5451 -0.5653
    8MOL   H245 2919   0.736   3.377   6.952  0.2365  2.0731  0.5897
    8MOL   H246 2920   0.869   3.302   7.050 -0.1120  0.0004  1.0598
    8MOL   H247 2921   0.813   3.724   7.234  1.6603 -1.0610  1.5206
    8MOL   H248 2922   0.860   3.790   7.074 -0.0600 -0.5016 -0.7427
    8MOL   C249 2923   0.672   3.239   7.088 -0.0200  0.7489  0.3635
    8MOL   C250 2924   0.519   3.270   7.095  0.5796 -0.0046  0.0468
    8MOL   C251 2925   0.447   3.157   7.016  0.1202 -0.2992  0.1255
    8MOL   C252 2926   0.547   3.038   7.006  0.1325 -0.3783  0.2265
    8MOL   C253 2927   0.549   2.926   7.116  0.3607  0.1116 -0.5822
    8MOL   C254 2928   0.612   2.790   7.068 -0.1221  0.3542 -0.0220
    8MOL   C255 2929   0.677   3.110   6.994 -0.5103 -0.1919 -0.4041
    8MOL   H256 2930   0.693   3.194   7.185 -0.3304 -0.9762 -0.3492
    8MOL   H257 2931   0.490   3.264   7.199 -1.4410  1.3131 -0.4220
    8MOL   H258 2932   0.483   3.372   7.086 -1.4588 -0.8093 -1.4149
    8MOL   H259 2933   0.426   3.199   6.918  2.4605 -2.2951 -1.3165
    8MOL   H260 2934   0.359   3.133   7.076 -0.1376  1.2525  0.3742
    8MOL   H261 2935   0.527   2.981   6.916  0.4715 -0.2505  0.0721
    8MOL   H262 2936   0.452   2.915   7.164  0.0678  1.2542 -0.8844
    8MOL   H263 2937   0.605   2.964   7.201  0.7853  1.1075 -1.2913
    8MOL   H264 2938   0.715   2.802   7.101 -0.4158  0.7903  0.7321
    8MOL   H265 2939   0.605   2.780   6.959  0.7477  0.2228 -0.0714
    8MOL   H266 2940   0.675   3.162   6.897 -0.9420 -0.7499 -0.6986
    8MOL   H267 2941   0.760   3.040   6.996  0.2566  0.7690  2.1852
    8MOL   C268 2942   0.564   2.666   7.148 -0.4345  0.9940  0.2416
    8MOL   C269 2943   0.411   2.628   7.130  0.1128  0.0405  0.6768
    8MOL   C270 2944   0.356   2.611   7.271  0.0568  0.2834  0.0840
    8MOL   C271 2945   0.476   2.579   7.364  0.0017 -0.3943  0.7751
    8MOL   C272 2946   0.458   2.610   7.511  0.3388  0.2432  0.1146
    8MOL   C273 2947   0.375   2.509   7.587 -0.2261 -0.7394  0.3885
    8MOL   C274 2948   0.585   2.668   7.304  0.4705  0.3597  0.7365
    8MOL   H275 2949   0.624   2.580   7.118  1.4908  2.7707 -1.1598
    8MOL   H276 2950   0.361   2.709   7.076 -0.1598  0.3663  1.4114
    8MOL   H277 2951   0.402   2.537   7.071  0.9234  1.2382 -1.3743
    8MOL   H278 2952   0.314   2.707   7.301  0.2976 -0.4888  3.0027
    8MOL   H279 2953   0.288   2.527   7.277  1.5766 -1.1196 -1.5405
    8MOL   H280 2954   0.508   2.478   7.340  1.2232  0.3869 -1.0144
    8MOL   H281 2955   0.422   2.711   7.532  0.1987 -0.2019  2.1896
    8MOL   H282 2956   0.560   2.619   7.550 -0.7427  0.7103  2.9973
    8MOL   H283 2957   0.275   2.500   7.544 -0.0755 -0.3508 -0.0414
    8MOL   H284 2958   0.421   2.411   7.572 -0.1393 -0.4774 -1.1150
    8MOL   H285 2959   0.565   2.769   7.339  1.4520  0.7107  0.3033
    8MOL   H286 2960   0.688   2.640   7.328  0.6419  0.8941  0.6226
    8MOL   C287 2961   0.360   2.539   0.096 -0.2629 -0.2911 -0.3963
    8MOL   C288 2962   0.331   2.679   0.138 -0.6574 -0.0763 -0.2284
    8MOL   C289 2963   0.248   2.668   0.268 -0.4099 -0.3668  0.3517
    8MOL   C290 2964   0.233   2.514   0.298 -0.6218  0.0760 -0.7242
    8MOL   C291 2965   0.106   2.456   0.362 -1.0545  0.2004  0.0428
    8MOL   C292 2966   0.055   2.525   0.494 -0.8711  0.3377  0.1287
    8MOL   C293 2967   0.263   2.446   0.168 -0.5535  0.0078 -0.0623
    8MOL   H294 2968   0.455   2.513   0.142 -1.0979  0.0926  1.5634
    8MOL   H295 2969   0.424   2.732   0.154  0.3837 -1.0954 -2.6429
    8MOL   H296 2970   0.278   2.745   0.068  1.2947 -0.0710 -1.7525
    8MOL   H297 2971   0.148   2.709   0.255 -0.9631 -2.1731 -1.2408
    8MOL   H298 2972   0.307   2.729   0.336 -0.9105 -0.4669  0.8847
    8MOL   H299 2973   0.312   2.489   0.369 -1.9744 -0.0794  0.7527
    8MOL   H300 2974   0.141   2.358   0.392  0.8752  0.8624  0.0296
    8MOL   H301 2975   0.027   2.445   0.288  1.3489 -0.4414 -2.5322
    8MOL   H302 2976   0.011   2.624   0.492 -0.8557  0.4237  2.8876
    8MOL   H303 2977   0.130   2.543   0.570 -1.2262  0.9691  0.3312
    8MOL   H304 2978   0.173   2.436   0.107 -1.3694 -0.4304  1.2060
    8MOL   H305 2979   0.286   2.340   0.172  0.6810  0.3195  2.0096
    8MOL   C306 2980   7.606   2.437   0.574 -0.4616 -0.2874  0.5132
    8MOL   C307 2981   7.562   2.497   0.707  0.4188 -0.3899 -0.6375
    8MOL   C308 2982   7.422   2.428   0.740 -0.2386 -0.1530  0.0178
    8MOL   C309 2983   7.381   2.362   0.609 -0.3481  0.5290 -0.0927
    8MOL   C310 2984   7.229   2.373   0.584 -0.2705 -1.0136 -0.4180
    8MOL   C311 2985   7.146   2.294   0.687  0.4346  0.2636 -0.5431
    8MOL   C312 2986   7.466   2.411   0.499 -0.5066  0.2005  0.6788
    8MOL   H313 2987   0.001   2.338   0.592  0.0153 -0.3145 -0.6965
    8MOL   H314 2988   7.631   2.498   0.792  0.5151 -1.1766 -0.6970
    8MOL   H315 2989   7.529   2.600   0.695  0.9319 -0.1777 -0.2344
    8MOL   H316 2990   7.435   2.347   0.812  1.4986  1.6032  1.7681
    8MOL   H317 2991   7.363   2.506   0.789  1.4390  0.3425  1.2920
    8MOL   H318 2992   7.415   2.261   0.631 -0.7919  0.7311  1.6191
    8MOL   H319 2993   7.203   2.479   0.581  0.7866 -0.6783  1.4661
    8MOL   H320 2994   7.222   2.335   0.482 -0.8591 -1.4074 -0.2346
    8MOL   H321 2995   7.150   2.352   0.779  0.2128  1.4763 -1.2741
    8MOL   H322 2996   7.182   2.192   0.697 -1.7191 -0.5595 -0.9667
    8MOL   H323 2997   7.425   2.503   0.459 -2.3114 -0.1079  1.7644
    8MOL   H324 2998   7.468   2.337   0.419  2.8092 -0.5028  1.3242
    8MOL   C325 2999   6.996   2.308   0.665 -0.5610 -0.0931  0.1219
    8MOL   C326 3000   6.956   2.254   0.531  0.2696 -0.4762 -0.8391
    8MOL   C327 3001   6.805   2.236   0.539 -0.1950 -0.3660  0.1699
    8MOL   C328 3002   6.790   2.173   0.674  0.0324  0.7576  0.0465
    8MOL   C329 3003   6.647   2.180   0.737  0.4156  0.6356 -0.8791
    8MOL   C330 3004   6.535   2.094   0.672  0.2783 -0.1646 -0.4777
    8MOL   C331 3005   6.902   2.234   0.762 -0.0429 -0.6146 -0.0987
    8MOL   H332 3006   6.966   2.410   0.691 -1.8666 -0.4596  0.0730
    8MOL   H333 3007   7.001   2.158   0.504 -0.5560 -2.1262  3.2460
    8MOL   H334 3008   6.970   2.327   0.452 -0.4578  0.1400 -0.4073
    8MOL   H335 3009   6.750   2.330   0.551  2.0638  1.4995 -3.1086
    8MOL   H336 3010   6.764   2.177   0.456  0.2895  0.1789 -0.4648
    8MOL   H337 3011   6.823   2.072   0.652  2.4031  1.5368 -0.0475
    8MOL   H338 3012   6.639   2.146   0.840  1.2465 -0.9263 -1.3277
    8MOL   H339 3013   6.608   2.282   0.735 -0.7290  0.2020 -1.5891
    8MOL   H340 3014   6.528   2.096   0.563  1.0264  0.0799 -0.5242
    8MOL   H341 3015   6.578   1.997   0.694  1.9746  0.9242  1.1722
    8MOL   H342 3016   6.949   2.169   0.837 -1.0820  1.2109  2.1789
    8MOL   H343 3017   6.855   2.313   0.820  1.4425  0.2458 -0.0559
    8MOL   C344 3018   6.391   2.115   0.719  0.1569 -0.2989  0.1656
    8MOL   C345 3019   6.269   2.052   0.641  0.1546  0.4948  0.0838
    8MOL   C346 3020   6.143   2.135   0.660 -0.1791 -0.2421 -0.1955
    8MOL   C347 3021   6.202   2.274   0.686  0.1227  0.1836 -0.5517
    8MOL   C348 3022   6.116   2.349   0.784 -0.3097 -0.4737 -1.3023
    8MOL   C349 3023   6.146   2.502   0.800 -0.8605  0.4185  0.0157
    8MOL   C350 3024   6.351   2.264   0.724 -0.2078 -0.0062  0.1426
    8MOL   H351 3025   6.376   2.093   0.824  1.7042  2.0006  0.9075
    8MOL   H352 3026   6.260   1.948   0.671 -0.5191  1.3733  3.1130
    8MOL   H353 3027   6.299   2.062   0.537  0.4471  1.9724  0.2989
    8MOL   H354 3028   6.084   2.128   0.569 -1.7940  0.1310  0.7817
    8MOL   H355 3029   6.085   2.097   0.745  0.8319  0.6588  0.9223
    8MOL   H356 3030   6.207   2.324   0.589 -1.3301 -1.4809 -1.5411
    8MOL   H357 3031   6.016   2.334   0.742 -0.6135 -2.5303  0.0596
    8MOL   H358 3032   6.115   2.298   0.880 -1.2619  2.8506  0.5546
    8MOL   H359 3033   6.122   2.534   0.699 -2.9330 -3.5424 -0.8187
    8MOL   H360 3034   6.249   2.536   0.815 -1.1935  2.2429 -1.6266
    8MOL   H361 3035   6.405   2.324   0.650 -2.0267  1.2107 -0.2069
    8MOL   H362 3036   6.362   2.309   0.822  0.4343  1.7373 -0.7107
    8MOL   C363 3037   6.055   2.563   0.905  0.5658  1.1961  0.4072
    8MOL   C364 3038   6.057   2.720   0.904  0.2264 -0.1344 -0.1381
    8MOL   C365 3039   6.067   2.768   1.057  0.3117  0.0020  0.2105
    8MOL   C366 3040   6.038   2.635   1.130  0.7954 -0.6431 -0.8237
    8MOL   C367 3041   6.075   2.624   1.279  0.7099  0.3583  1.0351
    8MOL   C368 3042   6.011   2.725   1.374  0.2383 -0.2524 -0.2208
    8MOL   C369 3043   6.101   2.531   1.046  0.6275 -1.0337  0.2907
    8MOL   H370 3044   5.950   2.536   0.897  1.1646 -1.4643  0.9535
    8MOL   H371 3045   6.140   2.760   0.845 -2.3511 -0.4399 -4.1551
    8MOL   H372 3046   5.964   2.748   0.856 -0.9936  1.9445  3.2116
    8MOL   H373 3047   6.169   2.801   1.075 -0.4372  1.9660  0.9808
    8MOL   H374 3048   6.009   2.855   1.088  0.5517  0.0404  0.5484
    8MOL   H375 3049   5.929   2.637   1.127  0.7888 -0.8871 -0.7051
    8MOL   H376 3050   6.034   2.526   1.302 -3.5763  1.5771 -1.0346
    8MOL   H377 3051   6.183   2.619   1.296  0.7018 -0.0988  0.9627
    8MOL   H378 3052   5.904   2.725   1.356  0.3924 -0.0441 -1.1795
    8MOL   H379 3053   6.049   2.826   1.355  0.0280  0.0582  0.9432
    8MOL   H380 3054   6.208   2.542   1.058  0.2996 -0.3793  3.1275
    8MOL   H381 3055   6.068   2.433   1.082 -0.8935 -1.1396 -1.2956
    8MOL   H382 3056   6.035   2.702   1.478 -0.5894  0.9056  0.2363
    9MOL     C1 3057   0.229   6.349   3.187 -0.0051  0.1611  0.1101
    9MOL     C2 3058   0.244   6.192   3.164 -0.4971 -0.3436  0.2789
    9MOL     C3 3059   0.312   6.180   3.026  0.0865 -0.0552 -0.2576
    9MOL     C4 3060   0.374   6.322   2.995 -0.4961 -0.2584  0.4497
    9MOL     C5 3061   0.401   6.337   2.848  0.2776 -0.0106 -0.6836
    9MOL     C6 3062   0.507   6.234   2.802 -0.0083 -0.8291 -0.1121
    9MOL     C7 3063   0.272   6.419   3.055 -0.1372 -0.4427 -0.1689
    9MOL     H8 3064   0.124   6.365   3.213 -0.2148 -0.2850 -0.4608
    9MOL     H9 3065   0.151   6.135   3.166 -1.5203  1.2974  0.0817
    9MOL    H10 3066   0.307   6.147   3.242 -0.4320 -1.2307 -0.2796
    9MOL    H11 3067   0.381   6.097   3.041 -1.2636 -0.8893  1.4881
    9MOL    H12 3068   0.231   6.152   2.960 -1.0812 -0.1828  1.2022
    9MOL    H13 3069   0.469   6.330   3.047 -0.8924 -0.1958  1.1807
    9MOL    H14 3070   0.311   6.311   2.793  0.9068 -0.2766 -1.5858
    9MOL    H15 3071   0.432   6.441   2.833  1.7258  0.4118  4.3889
    9MOL    H16 3072   0.591   6.239   2.871 -0.6459  0.6187  0.5778
    9MOL    H17 3073   0.468   6.132   2.808  2.3359 -2.0194 -3.5085
    9MOL    H18 3074   0.303   6.522   3.073 -0.5624 -0.2470 -0.5398
    9MOL    H19 3075   0.193   6.436   2.982  0.3279 -0.0808 -0.5876
    9MOL    H20 3076   0.281   6.389   3.274  1.4806 -0.0118 -0.6795
    9MOL    C21 3077   0.559   6.258   2.658  0.1432 -0.1417  0.3832
    9MOL    C22 3078   0.660   6.150   2.610  0.7281 -0.7461  0.1368
    9MOL    C23 3079   0.579   6.056   2.523  0.6383 -0.1847 -0.4486
    9MOL    C24 3080   0.479   6.143   2.447 -0.5884  0.7878  0.7574
    9MOL    C25 3081   0.372   6.061   2.375 -0.2718 -0.1037 -0.3243
    9MOL    C26 3082   0.292   6.150   2.269  1.1483  0.4048 -0.6529
    9MOL    C27 3083   0.439   6.245   2.552  0.0870  0.3340  0.1994
    9MOL    H28 3084   0.598   6.358   2.645 -0.2608 -0.2553 -2.0245
    9MOL    H29 3085   0.733   6.198   2.545  0.5096 -0.6672 -0.0487
    9MOL    H30 3086   0.710   6.098   2.692  0.5182  0.4766  1.0517
    9MOL    H31 3087   0.637   5.988   2.462  2.8687  0.7701  0.5532
    9MOL    H32 3088   0.534   5.985   2.593  0.1656 -1.2469 -1.8088
    9MOL    H33 3089   0.534   6.198   2.370  1.9910 -0.3864  1.7186
    9MOL    H34 3090   0.299   6.025   2.446 -0.4236 -1.2723 -1.0462
    9MOL    H35 3091   0.414   5.978   2.317  1.4510  0.6838 -0.2587
    9MOL    H36 3092   0.359   6.188   2.191  1.5693  2.4563  0.6724
    9MOL    H37 3093   0.250   6.225   2.335  0.3490  0.3628 -1.1053
    9MOL    H38 3094   0.419   6.340   2.501  0.9808  0.9251  0.9450
    9MOL    H39 3095   0.346   6.216   2.601  0.0988 -0.4196 -0.2143
    9MOL    C40 3096   0.187   6.071   2.184 -0.5311  0.1134  0.2545
    9MOL    C41 3097   0.091   6.152   2.101  0.0379  0.3088 -0.6605
    9MOL    C42 3098   0.021   6.054   2.002  0.4240  0.7796  0.1176
    9MOL    C43 3099   0.119   5.929   1.999 -0.6064 -0.4020  0.3770
    9MOL    C44 3100   0.051   5.803   2.058  0.4400 -0.0636  0.2087
    9MOL    C45 3101   0.099   5.675   1.991  0.1161  0.0441  1.1665
    9MOL    C46 3102   0.244   5.965   2.090 -0.2102  0.1078 -0.3992
    9MOL    H47 3103   0.118   6.018   2.249  0.1665 -2.0341 -0.7201
    9MOL    H48 3104   0.140   6.232   2.045  0.8320  0.3820  0.1063
    9MOL    H49 3105   0.033   6.213   2.170  2.1025  0.4430  1.0407
    9MOL    H50 3106   7.564   6.040   2.029  0.9093  2.8366  3.4007
    9MOL    H51 3107   0.009   6.105   1.907  2.7375 -0.1021 -0.6922
    9MOL    H52 3108   0.170   5.908   1.905  0.7906 -0.7503  1.1936
    9MOL    H53 3109   0.055   5.798   2.167  0.5498  1.0505  0.2591
    9MOL    H54 3110   7.591   5.805   2.035  0.1694  0.0878  1.4088
    9MOL    H55 3111   0.204   5.667   2.020  0.2137 -0.0530  0.7882
    9MOL    H56 3112   0.090   5.670   1.882 -1.6947 -1.0256  1.3457
    9MOL    H57 3113   0.287   5.874   2.133 -0.7328  0.0132 -0.0672
    9MOL    H58 3114   0.324   6.006   2.030 -1.0938  2.1668 -0.2035
    9MOL    C59 3115   0.032   5.550   2.050  0.0525  0.4750 -0.4718
    9MOL    C60 3116   0.056   5.428   1.970 -0.0849  0.4724  0.3626
    9MOL    C61 3117   0.050   5.312   2.061  1.2344 -0.3171  0.0670
    9MOL    C62 3118   0.101   5.363   2.193 -0.5488  0.1978  0.7936
    9MOL    C63 3119   0.031   5.306   2.327  0.0514 -0.0009  0.4661
    9MOL    C64 3120   0.056   5.160   2.354  0.3827 -0.6846 -0.0486
    9MOL    C65 3121   0.078   5.514   2.195  0.4191 -0.1348  0.6282
    9MOL    H66 3122   7.572   5.571   2.051 -0.1808 -0.6193  2.3153
    9MOL    H67 3123   7.631   5.427   1.888  0.2193  0.9992  0.0810
    9MOL    H68 3124   0.160   5.427   1.935  0.0869  1.4301  0.8579
    9MOL    H69 3125   7.596   5.272   2.067  1.1752 -0.1047  0.5222
    9MOL    H70 3126   0.116   5.231   2.032  1.5472  0.3607 -1.1117
    9MOL    H71 3127   0.208   5.346   2.186 -0.0361  3.1287  1.1535
    9MOL    H72 3128   7.570   5.318   2.333  0.1387  1.4852 -0.5254
    9MOL    H73 3129   0.071   5.354   2.417 -0.7346  0.9996  0.2961
    9MOL    H74 3130   0.004   5.141   2.448  2.1933  1.1988  1.3866
    9MOL    H75 3131   0.011   5.098   2.277 -0.2454  1.3204 -1.3288
    9MOL    H76 3132   7.643   5.561   2.249 -0.4045  2.2285 -2.5705
    9MOL    H77 3133   0.162   5.571   2.233 -0.7726  1.5393  0.8034
    9MOL    C78 3134   0.213   5.129   2.362 -0.2534  0.8176 -0.5815
    9MOL    C79 3135   0.292   5.203   2.469 -0.1644 -0.7369  0.7470
    9MOL    C80 3136   0.369   5.100   2.545 -0.4552  0.5285  0.0895
    9MOL    C81 3137   0.392   4.989   2.438 -0.0919 -0.0922  1.0296
    9MOL    C82 3138   0.452   4.855   2.480  0.0517 -0.2588 -0.4047
    9MOL    C83 3139   0.601   4.859   2.528  0.4678 -0.6744  0.1217
    9MOL    C84 3140   0.249   4.981   2.370 -0.3155  0.4855  0.2313
    9MOL    H85 3141   0.258   5.153   2.265 -1.6546  1.7269 -1.0196
    9MOL    H86 3142   0.361   5.274   2.423  0.4288 -0.9033  1.3700
    9MOL    H87 3143   0.224   5.255   2.537 -2.2796  1.2451 -2.7087
    9MOL    H88 3144   0.467   5.131   2.582 -1.7405  3.6132  1.0575
    9MOL    H89 3145   0.324   5.061   2.636 -0.9912  0.0148 -0.3996
    9MOL    H90 3146   0.458   5.023   2.357  0.0108 -0.6416  0.8820
    9MOL    H91 3147   0.454   4.795   2.389  0.5944  0.9513 -1.2059
    9MOL    H92 3148   0.392   4.804   2.554  2.0953  0.3063  1.6987
    9MOL    H93 3149   0.620   4.922   2.615 -0.4289 -0.4803  0.1885
    9MOL    H94 3150   0.661   4.900   2.446  0.3322  0.4998  0.6000
    9MOL    H95 3151   0.176   4.919   2.422  0.4525 -0.0528  0.6984
    9MOL    H96 3152   0.260   4.933   2.273  0.2664  0.1022  0.4799
    9MOL    C97 3153   0.658   4.725   2.569  0.2102 -0.1026 -0.1141
    9MOL    C98 3154   0.613   4.683   2.710 -0.2915  0.4336 -0.2709
    9MOL    C99 3155   0.727   4.587   2.758 -0.4172  0.6250 -0.1944
    9MOL   C100 3156   0.838   4.594   2.659  0.5138 -0.3518 -0.1608
    9MOL   C101 3157   0.975   4.602   2.726  0.0088 -0.4081 -0.0864
    9MOL   C102 3158   1.027   4.461   2.762 -0.5543  0.4724  0.2452
    9MOL   C103 3159   0.814   4.715   2.571 -0.1261 -0.1994 -0.5229
    9MOL   H104 3160   0.622   4.654   2.494 -0.5397  0.6736 -0.4975
    9MOL   H105 3161   0.613   4.764   2.784  2.6189  1.0144 -0.8213
    9MOL   H106 3162   0.512   4.643   2.714  0.9418 -2.7023  0.8078
    9MOL   H107 3163   0.766   4.632   2.850 -2.1600  0.5090  0.6099
    9MOL   H108 3164   0.700   4.483   2.776  1.3732 -0.1776 -1.9472
    9MOL   H109 3165   0.838   4.507   2.593  0.1138 -0.1045 -0.4944
    9MOL   H110 3166   1.049   4.655   2.666  2.6798 -3.0185  0.7969
    9MOL   H111 3167   0.972   4.657   2.820 -4.6644  1.9549 -1.4787
    9MOL   H112 3168   0.975   4.434   2.854 -2.1591 -1.2673 -1.1463
    9MOL   H113 3169   0.990   4.391   2.688 -2.0786  0.7111  0.7612
    9MOL   H114 3170   0.847   4.808   2.618  2.6083 -0.9673 -0.8657
    9MOL   H115 3171   0.855   4.722   2.471 -0.2180 -0.2807 -0.5666
    9MOL   C116 3172   1.178   4.455   2.781 -1.3254  0.4821 -0.3676
    9MOL   C117 3173   1.238   4.530   2.903 -0.3418 -0.3627 -0.2396
    9MOL   C118 3174   1.331   4.432   2.974 -0.2455 -0.2644  0.4812
    9MOL   C119 3175   1.361   4.336   2.856  0.0193 -0.4591 -0.0793
    9MOL   C120 3176   1.420   4.209   2.908 -0.0209  0.9605 -0.7451
    9MOL   C121 3177   1.540   4.228   3.006  0.0567  0.3775  0.4032
    9MOL   C122 3178   1.237   4.314   2.787  0.4754  0.2232  0.1168
    9MOL   H123 3179   1.221   4.503   2.694  0.3721 -1.5632 -0.6815
    9MOL   H124 3180   1.155   4.557   2.969  1.5728  0.3638  1.9257
    9MOL   H125 3181   1.294   4.620   2.878  0.6958 -0.8344  0.3500
    9MOL   H126 3182   1.290   4.385   3.063 -1.4207  0.6096  0.4093
    9MOL   H127 3183   1.424   4.480   3.005 -0.3237 -0.1165  0.4882
    9MOL   H128 3184   1.422   4.387   2.782  1.3597 -2.6390 -0.5333
    9MOL   H129 3185   1.461   4.152   2.825  1.6384  2.2916 -0.8630
    9MOL   H130 3186   1.344   4.151   2.960  0.8486  0.3653 -0.1332
    9MOL   H131 3187   1.500   4.265   3.101  0.2210  1.8439 -0.0772
    9MOL   H132 3188   1.603   4.312   2.977 -0.8612  0.9636  0.0723
    9MOL   H133 3189   1.238   4.251   2.698  1.0319 -0.7295  0.7861
    9MOL   H134 3190   1.164   4.264   2.851  0.4647 -1.0876 -0.8960
    9MOL   C135 3191   1.638   4.106   3.025 -0.2775  0.8891  0.4345
    9MOL   C136 3192   1.748   4.142   3.132  0.2143  0.0772  0.4533
    9MOL   C137 3193   1.750   4.019   3.223 -0.3011 -0.3808 -0.9313
    9MOL   C138 3194   1.611   3.946   3.218  0.0753  0.0073  0.1963
    9MOL   C139 3195   1.609   3.795   3.251 -0.4472 -0.5650 -0.1843
    9MOL   C140 3196   1.473   3.714   3.244 -0.2336 -0.5039 -0.2304
    9MOL   C141 3197   1.567   3.974   3.079  1.0686 -0.7460  0.4923
    9MOL   H142 3198   1.673   4.089   2.923 -2.0504 -0.3696  0.0071
    9MOL   H143 3199   1.845   4.155   3.085 -0.7337  1.7548 -1.0735
    9MOL   H144 3200   1.725   4.230   3.191 -1.0202 -1.2768  2.0637
    9MOL   H145 3201   1.834   3.956   3.194  3.2466  2.5979  2.2220
    9MOL   H146 3202   1.777   4.058   3.322 -1.6737  1.7322 -1.3600
    9MOL   H147 3203   1.536   3.991   3.284 -1.9310 -1.8728 -0.7423
    9MOL   H148 3204   1.646   3.781   3.353 -0.1424  1.3271 -0.0170
    9MOL   H149 3205   1.690   3.750   3.194  0.1112  1.5776 -1.1051
    9MOL   H150 3206   1.397   3.766   3.301 -0.7688 -1.7275  0.1811
    9MOL   H151 3207   1.439   3.721   3.140 -0.4050 -3.0174 -0.3898
    9MOL   H152 3208   1.461   3.961   3.058  1.7655 -0.1056 -3.8221
    9MOL   H153 3209   1.604   3.897   3.012 -0.3056 -1.2294  0.2742
    9MOL   C154 3210   1.486   3.569   3.287  0.0224 -0.2193  0.5441
    9MOL   C155 3211   1.574   3.485   3.187 -0.1820  0.5663 -0.5073
    9MOL   C156 3212   1.493   3.358   3.170  0.1476 -0.1244  0.2630
    9MOL   C157 3213   1.390   3.349   3.285  0.1293 -0.6953  0.0535
    9MOL   C158 3214   1.268   3.263   3.241 -0.7615  0.4751 -0.4254
    9MOL   C159 3215   1.155   3.249   3.342  0.4332 -0.0319  0.3930
    9MOL   C160 3216   1.358   3.494   3.318  0.3307  0.3156  0.0425
    9MOL   H161 3217   1.549   3.580   3.375  1.7372  1.8244 -0.8946
    9MOL   H162 3218   1.587   3.538   3.092 -0.1711  1.8318  0.1912
    9MOL   H163 3219   1.675   3.470   3.225 -0.6587 -3.7121 -0.6822
    9MOL   H164 3220   1.432   3.365   3.079  0.1556  0.0336  0.2700
    9MOL   H165 3221   1.555   3.269   3.165  0.7313  0.3007 -0.1020
    9MOL   H166 3222   1.439   3.298   3.368  1.2921  1.1537  0.5293
    9MOL   H167 3223   1.313   3.164   3.233  2.4140  1.8884 -0.7516
    9MOL   H168 3224   1.232   3.310   3.149 -3.9447  1.6047  1.3045
    9MOL   H169 3225   1.197   3.226   3.439 -0.5756 -0.5168  0.7241
    9MOL   H170 3226   1.098   3.342   3.350 -0.4319 -0.3683 -1.5401
    9MOL   H171 3227   1.319   3.505   3.419  2.7747  1.5019  0.9090
    9MOL   H172 3228   1.286   3.533   3.246 -1.3288 -2.0871  0.3332
    9MOL   C173 3229   1.053   3.147   3.298  0.2102 -0.1720  0.9042
    9MOL   C174 3230   1.101   3.010   3.244  0.8382 -0.4089 -0.1842
    9MOL   C175 3231   0.986   2.908   3.272  0.4032 -0.6743  0.2297
    9MOL   C176 3232   0.898   2.974   3.378 -0.4932  0.6443 -0.3451
    9MOL   C177 3233   0.866   2.898   3.515  0.2495 -0.1707 -0.1108
    9MOL   C178 3234   0.802   2.767   3.497  0.5847  0.8555 -0.8308
    9MOL   C179 3235   0.965   3.107   3.417  0.0817 -0.3308  0.3794
    9MOL   H180 3236   0.986   3.188   3.222  1.9890  0.3938 -0.3962
    9MOL   H181 3237   1.178   2.963   3.306  0.4638  0.3952  0.9086
    9MOL   H182 3238   1.128   3.007   3.138  0.1057  1.2483 -0.4386
    9MOL   H183 3239   0.921   2.887   3.187  0.0691 -1.5547  0.6918
    9MOL   H184 3240   1.036   2.816   3.302  0.4974 -0.9601 -0.7911
    9MOL   H185 3241   0.801   3.008   3.342 -0.8990  0.8543  0.9091
    9MOL   H186 3242   0.815   2.963   3.586  0.5109 -1.6588  1.4930
    9MOL   H187 3243   0.959   2.874   3.567 -0.1670 -1.0695  0.2322
    9MOL   H188 3244   0.821   2.710   3.587 -1.6981  0.9669 -0.2489
    9MOL   H189 3245   0.846   2.718   3.410 -1.1386 -1.2157 -0.5764
    9MOL   H190 3246   1.039   3.082   3.492 -0.0853  1.3228  1.1065
    9MOL   H191 3247   0.890   3.184   3.433  1.0724  0.7758 -0.2049
    9MOL   C192 3248   0.645   2.757   3.482 -0.7000 -0.4096 -0.1265
    9MOL   C193 3249   0.564   2.858   3.574 -0.3665  0.0979 -0.4202
    9MOL   C194 3250   0.424   2.794   3.578 -0.3749 -0.4655 -0.6211
    9MOL   C195 3251   0.458   2.645   3.591  0.4578 -0.8569 -0.0169
    9MOL   C196 3252   0.339   2.553   3.543  0.7491  0.5065 -0.0190
    9MOL   C197 3253   0.387   2.407   3.549 -0.1258  0.4358 -0.2273
    9MOL   C198 3254   0.588   2.620   3.507 -0.0625 -0.5824  0.2696
    9MOL   H199 3255   0.621   2.780   3.378  0.3912 -0.8290 -0.4802
    9MOL   H200 3256   0.609   2.871   3.673 -1.6261  0.9477  0.0502
    9MOL   H201 3257   0.556   2.959   3.535 -1.5723  0.8671  1.7172
    9MOL   H202 3258   0.359   2.817   3.493 -3.6165  0.5196  1.9992
    9MOL   H203 3259   0.369   2.830   3.665 -1.4404 -2.0473 -0.6077
    9MOL   H204 3260   0.473   2.632   3.698 -0.9778  2.0029  0.5843
    9MOL   H205 3261   0.306   2.576   3.442 -1.6267  0.6266  0.7408
    9MOL   H206 3262   0.251   2.559   3.607  0.6123 -0.2168 -0.1337
    9MOL   H207 3263   0.332   2.350   3.624  0.2712 -0.5859 -0.7067
    9MOL   H208 3264   0.493   2.394   3.572 -0.1090  0.8450 -0.0549
    9MOL   H209 3265   0.570   2.571   3.411  1.5214 -0.3616 -0.1644
    9MOL   H210 3266   0.657   2.561   3.567  1.2071  1.8942  1.3111
    9MOL   C211 3267   0.349   2.332   3.417 -0.3500  0.5828  0.1218
    9MOL   C212 3268   0.333   2.187   3.433  0.5529 -0.2993  0.0376
    9MOL   C213 3269   0.330   2.128   3.287 -0.6587 -0.2740  0.1365
    9MOL   C214 3270   0.384   2.243   3.193 -0.6266 -0.3095  0.4244
    9MOL   C215 3271   0.483   2.204   3.085  1.0516  0.5010  0.4075
    9MOL   C216 3272   0.489   2.321   2.985 -0.6722  0.5097 -0.4261
    9MOL   C217 3273   0.432   2.343   3.297 -0.3194  0.3510  0.5702
    9MOL   H218 3274   0.252   2.368   3.382 -0.0161  0.1674 -1.2779
    9MOL   H219 3275   0.414   2.144   3.492  1.2951  1.4011  0.2795
    9MOL   H220 3276   0.232   2.170   3.471  0.6204 -0.3552  0.1957
    9MOL   H221 3277   0.381   2.032   3.283 -2.8184 -1.7406  4.3052
    9MOL   H222 3278   0.229   2.107   3.253 -0.3905  2.2264 -2.3997
    9MOL   H223 3279   0.297   2.288   3.143  0.6701  0.2721 -1.3635
    9MOL   H224 3280   0.453   2.109   3.040 -2.1714 -0.0007  3.4639
    9MOL   H225 3281   0.584   2.213   3.127  1.4137  2.3035 -0.7852
    9MOL   H226 3282   0.475   2.413   3.042  1.5289  1.8253 -1.9241
    9MOL   H227 3283   0.592   2.322   2.950 -0.3458  2.4556  0.5155
    9MOL   H228 3284   0.421   2.447   3.266 -0.3061 -0.6351 -2.9576
    9MOL   H229 3285   0.539   2.326   3.312  0.0846  0.8143 -1.6805
    9MOL   C230 3286   0.383   2.312   2.866 -0.1432 -0.1055  0.1062
    9MOL   C231 3287   0.428   2.211   2.761 -0.2782 -0.4527  0.3096
    9MOL   C232 3288   0.357   2.261   2.633  0.0096 -0.7725  0.0032
    9MOL   C233 3289   0.371   2.413   2.638  0.1173  0.2812  0.2439
    9MOL   C234 3290   0.273   2.493   2.546  0.8529 -0.1887  0.8259
    9MOL   C235 3291   0.308   2.499   2.397  0.5562 -0.0813  1.0405
    9MOL   C236 3292   0.369   2.444   2.786 -0.9133 -0.1821 -0.3595
    9MOL   H237 3293   0.283   2.290   2.905 -1.7568  3.0170 -2.0284
    9MOL   H238 3294   0.536   2.224   2.759 -0.2324 -0.9545 -3.2386
    9MOL   H239 3295   0.413   2.104   2.779  0.9572 -0.9297 -1.3760
    9MOL   H240 3296   0.252   2.233   2.636 -0.6125  1.4897  0.5331
    9MOL   H241 3297   0.395   2.212   2.543  2.8266  0.5011  0.4504
    9MOL   H242 3298   0.472   2.433   2.604  0.3957  0.0259  0.9047
    9MOL   H243 3299   0.270   2.596   2.581 -0.0826  0.2964 -0.6596
    9MOL   H244 3300   0.171   2.455   2.552  0.5228  0.3462 -1.0968
    9MOL   H245 3301   0.396   2.562   2.391  0.2866  0.4077  2.0209
    9MOL   H246 3302   0.336   2.400   2.361 -1.1803 -1.4859  3.3646
    9MOL   H247 3303   0.273   2.481   2.822 -0.0233  0.0839  1.8528
    9MOL   H248 3304   0.448   2.510   2.823 -2.4953  1.3040  0.3825
    9MOL   C249 3305   0.192   2.566   2.316  0.3298  0.1610 -0.2170
    9MOL   C250 3306   0.241   2.603   2.173 -0.4442 -0.4665 -0.1290
    9MOL   C251 3307   0.130   2.557   2.080  0.3978  0.3659  0.3797
    9MOL   C252 3308   0.065   2.432   2.144 -0.2000  0.2323 -0.7281
    9MOL   C253 3309   7.566   2.393   2.097 -0.1973  0.4856 -0.0446
    9MOL   C254 3310   7.535   2.390   1.947  0.6631  0.5371  0.1855
    9MOL   C255 3311   0.067   2.481   2.295  0.4857 -0.4633  0.0140
    9MOL   H256 3312   0.176   2.659   2.371  0.4266 -0.1970  0.4166
    9MOL   H257 3313   0.249   2.710   2.153 -0.8591 -0.4015  0.0387
    9MOL   H258 3314   0.339   2.566   2.144 -1.0490 -0.2399 -2.5210
    9MOL   H259 3315   0.159   2.538   1.977  1.3200  3.6485 -0.0144
    9MOL   H260 3316   0.056   2.636   2.096 -2.1324 -1.7579 -0.4388
    9MOL   H261 3317   0.133   2.348   2.130 -0.2019  0.2465 -0.8195
    9MOL   H262 3318   7.505   2.457   2.162  0.6274  0.2037  1.0214
    9MOL   H263 3319   7.555   2.295   2.144  0.6160  0.2165 -0.4044
    9MOL   H264 3320   7.565   2.299   1.896  1.2410  0.8442 -0.0293
    9MOL   H265 3321   7.592   2.472   1.902  2.0035 -0.7355 -0.4922
    9MOL   H266 3322   0.073   2.387   2.351 -0.5668 -1.9578 -2.2937
    9MOL   H267 3323   7.624   2.535   2.322  1.9127  2.1079 -0.1980
    9MOL   C268 3324   7.387   2.407   1.925  0.5435  0.6980  0.1881
    9MOL   C269 3325   7.292   2.317   2.017  0.6771  0.3813 -0.8017
    9MOL   C270 3326   7.182   2.261   1.921 -0.6642 -0.3537 -0.2697
    9MOL   C271 3327   7.192   2.342   1.791  0.1396  0.1116  0.6346
    9MOL   C272 3328   7.144   2.267   1.667 -0.6027  0.5413  0.2276
    9MOL   C273 3329   6.993   2.233   1.679  0.9405  0.0908 -0.0896
    9MOL   C274 3330   7.338   2.389   1.783 -0.3122  0.1073 -0.2251
    9MOL   H275 3331   7.360   2.510   1.949 -0.4171  0.2036  1.2706
    9MOL   H276 3332   7.342   2.236   2.070  0.0267  0.5504  0.0910
    9MOL   H277 3333   7.232   2.373   2.089  1.0615  1.6713 -1.4669
    9MOL   H278 3334   7.182   2.152   1.912 -0.0823 -0.2987 -0.9614
    9MOL   H279 3335   7.083   2.279   1.961 -0.9193 -2.1302 -0.0417
    9MOL   H280 3336   7.129   2.430   1.801 -0.1296  0.2673 -2.1060
    9MOL   H281 3337   7.198   2.173   1.673 -0.7384  0.3021 -2.1272
    9MOL   H282 3338   7.157   2.329   1.578  0.4793 -1.2737 -0.8918
    9MOL   H283 3339   6.985   2.159   1.759  1.5264 -0.6463 -0.7107
    9MOL   H284 3340   6.942   2.326   1.705 -0.2845 -0.8906  1.0945
    9MOL   H285 3341   7.393   2.311   1.730 -0.7693  1.0086 -2.0649
    9MOL   H286 3342   7.356   2.479   1.725  0.6418  0.2671  0.3093
    9MOL   C287 3343   6.929   2.167   1.543 -0.3482 -0.1615 -0.0618
    9MOL   C288 3344   6.971   2.025   1.529  0.2310  0.4956  0.1846
    9MOL   C289 3345   6.860   1.948   1.603 -0.3607 -0.4743  0.4842
    9MOL   C290 3346   6.731   2.017   1.556  0.1787  0.4150  0.2532
    9MOL   C291 3347   6.629   2.006   1.668  0.0473  0.6459 -0.1070
    9MOL   C292 3348   6.480   2.016   1.621  1.0669  0.4578 -0.0137
    9MOL   C293 3349   6.775   2.160   1.520  0.9341 -0.1947  0.4623
    9MOL   H294 3350   6.974   2.221   1.459  0.3518 -0.7964 -0.0888
    9MOL   H295 3351   6.974   2.006   1.422  0.7161 -1.6078  0.5518
    9MOL   H296 3352   7.072   2.009   1.567 -0.4744 -1.3887  1.3547
    9MOL   H297 3353   6.869   1.965   1.711  3.6246  0.1343  0.1395
    9MOL   H298 3354   6.856   1.840   1.597 -2.0635 -0.3766 -0.4757
    9MOL   H299 3355   6.683   1.960   1.477 -0.1838  0.5633  0.3661
    9MOL   H300 3356   6.664   2.066   1.751  1.0071  0.1398 -0.1310
    9MOL   H301 3357   6.635   1.902   1.701  0.0028  0.7659  0.2789
    9MOL   H302 3358   6.472   2.120   1.592  0.0327  0.6777  1.0275
    9MOL   H303 3359   6.417   2.008   1.710 -1.1456 -1.0733 -1.6539
    9MOL   H304 3360   6.724   2.230   1.587 -0.0128  0.4094 -0.8736
    9MOL   H305 3361   6.737   2.185   1.421 -0.8337 -0.4768  1.0384
    9MOL   C306 3362   6.425   1.915   1.517 -0.5426  0.0993 -0.3703
    9MOL   C307 3363   6.426   1.772   1.551  0.4779  1.2159 -0.3230
    9MOL   C308 3364   6.330   1.700   1.467 -0.0097  0.8384 -0.3415
    9MOL   C309 3365   6.236   1.812   1.403 -0.1063  0.0269 -0.1834
    9MOL   C310 3366   6.087   1.774   1.419  0.5612 -0.0745  0.4358
    9MOL   C311 3367   6.036   1.659   1.328  0.6187  0.3448 -0.1782
    9MOL   C312 3368   6.272   1.938   1.485 -0.2746 -0.4915 -0.1609
    9MOL   H313 3369   6.475   1.930   1.421  0.0820 -0.1749 -0.0884
    9MOL   H314 3370   6.519   1.716   1.546 -0.1934  0.0914 -0.4200
    9MOL   H315 3371   6.403   1.761   1.657  1.7511 -0.7633 -0.2295
    9MOL   H316 3372   6.377   1.634   1.394 -0.6327 -0.8874  0.8028
    9MOL   H317 3373   6.274   1.630   1.529  2.0291  2.4700  3.5464
    9MOL   H318 3374   6.272   1.827   1.301  0.6506 -0.3747  0.0176
    9MOL   H319 3375   6.055   1.763   1.523  0.2171  1.2021  0.4705
    9MOL   H320 3376   6.023   1.856   1.386 -2.2220 -2.6529 -0.8707
    9MOL   H321 3377   6.086   1.566   1.352  1.1527  0.3271 -1.3814
    9MOL   H322 3378   6.070   1.693   1.231 -0.6918 -0.8191 -1.0650
    9MOL   H323 3379   6.217   1.938   1.579  0.7010 -1.9801  0.4320
    9MOL   H324 3380   6.252   2.017   1.413  0.1796 -1.7165 -1.6529
    9MOL   C325 3381   5.884   1.647   1.325 -0.0151  0.1829 -0.5125
    9MOL   C326 3382   5.827   1.611   1.191 -0.0602 -1.0205  0.9501
    9MOL   C327 3383   5.720   1.507   1.220 -0.3329 -0.4856  0.0735
    9MOL   C328 3384   5.750   1.450   1.362  0.0175  0.4355 -0.1094
    9MOL   C329 3385   5.626   1.387   1.445  1.0603  0.4794 -0.0833
    9MOL   C330 3386   5.539   1.292   1.357 -0.1257 -0.0125 -0.8882
    9MOL   C331 3387   5.817   1.569   1.436 -0.2179  0.3457  0.0813
    9MOL   H332 3388   5.845   1.748   1.336 -2.7939 -1.0470  1.3838
    9MOL   H333 3389   5.907   1.578   1.124 -0.6351 -0.7401  0.1128
    9MOL   H334 3390   5.791   1.705   1.150 -0.7844 -0.5607  2.6175
    9MOL   H335 3391   5.621   1.551   1.219  1.0899  2.9070  1.5309
    9MOL   H336 3392   5.711   1.432   1.141 -1.9205  0.9453 -1.1284
    9MOL   H337 3393   5.820   1.371   1.337  0.9361  1.3034 -0.3321
    9MOL   H338 3394   5.668   1.345   1.536  1.8654  1.2033 -0.1214
    9MOL   H339 3395   5.559   1.468   1.472 -1.0412 -0.8756 -1.0264
    9MOL   H340 3396   5.482   1.361   1.296 -2.8092 -0.5639  0.8822
    9MOL   H341 3397   5.602   1.236   1.288 -0.0293 -0.1991 -0.6493
    9MOL   H342 3398   5.892   1.534   1.508 -0.7004  0.7452  0.7810
    9MOL   H343 3399   5.749   1.633   1.491  0.2589  0.1437  0.9157
    9MOL   C344 3400   5.450   1.204   1.437  0.7900 -0.8746  0.4998
    9MOL   C345 3401   5.346   1.139   1.352 -0.0261  0.5157  0.0230
    9MOL   C346 3402   5.256   1.066   1.455  0.0679  0.1550  0.5050
    9MOL   C347 3403   5.240   1.169   1.561  0.8335  0.4047  0.0970
    9MOL   C348 3404   5.253   1.102   1.697  0.7084 -0.1218 -0.5978
    9MOL   C349 3405   5.228   1.193   1.819  0.5168 -0.1280  0.3689
    9MOL   C350 3406   5.356   1.273   1.538  0.4896 -0.4164 -0.2368
    9MOL   H351 3407   5.505   1.120   1.478  0.5066 -0.4393  1.7947
    9MOL   H352 3408   5.382   1.072   1.275 -1.7018  1.4381 -1.6090
    9MOL   H353 3409   5.285   1.212   1.299 -1.6128 -0.4700  0.4605
    9MOL   H354 3410   5.164   1.040   1.403  1.6792  0.6901 -2.7881
    9MOL   H355 3411   5.309   0.979   1.496  0.6403 -0.5806 -1.7057
    9MOL   H356 3412   5.149   1.227   1.550 -0.0115 -1.3089 -2.2698
    9MOL   H357 3413   5.179   1.022   1.703  0.7157  0.0081  1.9301
    9MOL   H358 3414   5.349   1.056   1.723  0.1745 -3.3259 -3.9701
    9MOL   H359 3415   5.138   1.249   1.793  0.6666 -0.4098 -0.7970
    9MOL   H360 3416   5.316   1.257   1.824  0.1431  0.3872  0.5151
    9MOL   H361 3417   5.320   1.366   1.495 -0.2537 -0.1261  0.9922
    9MOL   H362 3418   5.404   1.298   1.633  0.8582 -4.0565  0.6379
    9MOL   C363 3419   5.223   1.130   1.962 -0.9542  0.4386  0.8778
    9MOL   C364 3420   5.093   1.055   1.991  0.4063  0.1801 -0.0140
    9MOL   C365 3421   5.010   1.153   2.078 -0.1882 -0.1060 -0.2374
    9MOL   C366 3422   5.117   1.224   2.160 -0.2184  0.7793  0.1848
    9MOL   C367 3423   5.078   1.341   2.250  0.4792 -0.1996  0.7665
    9MOL   C368 3424   5.172   1.370   2.368 -0.0933  0.7102  0.7484
    9MOL   C369 3425   5.227   1.250   2.057 -0.1413 -0.0568  0.1033
    9MOL   H370 3426   5.306   1.060   1.965 -0.2345  1.2006 -0.7875
    9MOL   H371 3427   5.037   1.030   1.900 -0.7287  0.1551  0.6792
    9MOL   H372 3428   5.113   0.961   2.042 -2.5337 -0.0445  0.8110
    9MOL   H373 3429   4.963   1.239   2.030  0.7496  0.3699 -0.3082
    9MOL   H374 3430   4.934   1.098   2.134 -2.1916  0.7421 -2.0470
    9MOL   H375 3431   5.163   1.140   2.212  0.0421  0.3651 -0.7224
    9MOL   H376 3432   5.076   1.421   2.176 -0.3322  0.0207  1.0214
    9MOL   H377 3433   4.971   1.337   2.275 -0.1529 -1.7408 -1.9478
    9MOL   H378 3434   5.123   1.437   2.440 -0.9167 -0.1229  0.9693
    9MOL   H379 3435   5.269   1.413   2.344  0.5727 -1.0378  0.2259
    9MOL   H380 3436   5.201   1.338   1.997  1.5241 -1.1963 -2.3846
    9MOL   H381 3437   5.322   1.265   2.107 -1.1531 -0.1852  2.1098
    9MOL   H382 3438   5.192   1.275   2.418  0.8314  0.4440 -0.1289
   10MOL     C1 3439   4.991   3.109   6.922  0.0526 -0.6559  0.8284
   10MOL     C2 3440   5.043   3.172   6.793 -0.5710 -1.0124  0.5391
   10MOL     C3 3441   4.977   3.316   6.784  0.4587 -0.3787  0.5592
   10MOL     C4 3442   4.902   3.333   6.914  0.2910  0.0207  0.0265
   10MOL     C5 3443   4.778   3.430   6.906 -0.1858 -0.1313 -0.6539
   10MOL     C6 3444   4.723   3.446   7.050 -0.2620  0.4736 -0.5532
   10MOL     C7 3445   4.864   3.193   6.940  0.1113  0.2560  0.5917
   10MOL     H8 3446   4.979   3.001   6.928  1.1528 -0.8806 -0.5022
   10MOL     H9 3447   5.018   3.118   6.701  0.5369 -0.4901 -0.0858
   10MOL    H10 3448   5.151   3.182   6.803 -0.5456  0.1327 -0.7870
   10MOL    H11 3449   5.045   3.398   6.761 -0.3511  0.9383  2.6556
   10MOL    H12 3450   4.918   3.325   6.693  2.7436 -1.7002 -1.1007
   10MOL    H13 3451   4.970   3.379   6.986 -1.4869  1.9849  0.4957
   10MOL    H14 3452   4.805   3.533   6.881 -1.3756  0.0631 -1.2119
   10MOL    H15 3453   4.709   3.405   6.825  0.2630  0.4561 -1.2226
   10MOL    H16 3454   4.669   3.352   7.063  0.2385  0.2266 -0.2614
   10MOL    H17 3455   4.812   3.449   7.112  1.9671 -0.3252 -3.5960
   10MOL    H18 3456   4.838   3.185   7.046  1.5326  1.6517  1.0621
   10MOL    H19 3457   4.792   3.163   6.864  0.1116 -0.0566  0.7166
   10MOL    H20 3458   5.064   3.126   7.001 -0.1007 -2.4225  1.3883
   10MOL    C21 3459   4.622   3.557   7.068 -0.5241  0.2366 -0.0336
   10MOL    C22 3460   4.475   3.542   7.016  0.1661  0.0197 -0.0145
   10MOL    C23 3461   4.384   3.611   7.118 -0.0499  0.4172  0.3451
   10MOL    C24 3462   4.472   3.668   7.226  0.1494 -0.6602  0.9726
   10MOL    C25 3463   4.404   3.687   7.359 -0.1968  0.1843  0.1832
   10MOL    C26 3464   4.379   3.831   7.390 -0.0150  0.1009 -0.3759
   10MOL    C27 3465   4.597   3.580   7.221 -0.0629  0.1018  0.5485
   10MOL    H28 3466   4.651   3.658   7.041  1.2538  0.4233  2.4036
   10MOL    H29 3467   4.473   3.580   6.914 -0.7125  2.3152  0.8374
   10MOL    H30 3468   4.450   3.436   7.004 -2.5143  0.8759 -2.6935
   10MOL    H31 3469   4.319   3.684   7.070  0.4566  0.3173 -0.5028
   10MOL    H32 3470   4.327   3.525   7.153  1.5269 -2.7149 -4.2633
   10MOL    H33 3471   4.510   3.763   7.188  0.2656 -1.2489 -0.4339
   10MOL    H34 3472   4.463   3.640   7.438 -1.1696 -0.9276  0.2730
   10MOL    H35 3473   4.312   3.628   7.362 -0.2540  0.3069  0.9908
   10MOL    H36 3474   4.324   3.860   7.300  1.5920 -1.4560 -1.9107
   10MOL    H37 3475   4.472   3.887   7.401  1.0887 -1.7511 -0.0993
   10MOL    H38 3476   4.686   3.623   7.267  1.1098  0.9541 -2.3880
   10MOL    H39 3477   4.581   3.480   7.262 -0.8716  0.1864  0.4415
   10MOL    C40 3478   4.292   3.861   7.513  1.1386 -0.0506 -0.1105
   10MOL    C41 3479   4.298   4.000   7.567  0.2460 -0.1623 -0.4476
   10MOL    C42 3480   4.176   4.024   0.006  0.3001 -0.5709 -0.0170
   10MOL    C43 3481   4.087   3.904   7.632  0.0059  0.2040 -0.1912
   10MOL    C44 3482   4.071   3.810   0.102  1.0171  0.0862  0.4905
   10MOL    C45 3483   3.965   3.862   0.208  0.6165 -0.0352  0.0046
   10MOL    C46 3484   4.146   3.832   7.505 -0.4470  0.2228 -0.5846
   10MOL    H47 3485   4.324   3.797   7.595  0.9134  1.2714  1.0291
   10MOL    H48 3486   4.312   4.070   7.484  0.8717 -0.7252 -0.8217
   10MOL    H49 3487   4.385   4.018   7.630  0.7646 -1.0844 -0.8992
   10MOL    H50 3488   4.185   4.043   0.114 -1.9021  0.8859 -0.0567
   10MOL    H51 3489   4.122   4.116   7.630 -3.3971 -2.8394 -0.6113
   10MOL    H52 3490   3.988   3.933   7.596 -0.0976  0.1575  0.0542
   10MOL    H53 3491   4.040   3.711   0.070 -0.4538  0.4040  0.8864
   10MOL    H54 3492   4.168   3.790   0.147  1.2478  1.0839  0.4409
   10MOL    H55 3493   3.955   3.970   0.203  1.0430  0.1065  1.7895
   10MOL    H56 3494   4.008   3.861   0.308  0.7658  3.3048  0.0099
   10MOL    H57 3495   4.112   3.729   7.504 -0.6742  0.3027 -3.0501
   10MOL    H58 3496   4.118   3.875   7.409 -0.4178  0.5928 -0.4310
   10MOL    C59 3497   3.831   3.783   0.204  0.0992 -0.0323 -0.1327
   10MOL    C60 3498   3.734   3.833   0.319 -0.2908  0.9043 -0.1076
   10MOL    C61 3499   3.612   3.897   0.251 -0.9169  0.1176 -0.1092
   10MOL    C62 3500   3.646   3.911   0.103 -0.1300 -0.0248  0.4821
   10MOL    C63 3501   3.510   3.907   0.023  0.4870  0.3706 -0.0137
   10MOL    C64 3502   3.528   3.921   7.514 -0.7571  0.0183  0.0815
   10MOL    C65 3503   3.745   3.800   0.076 -0.2572  0.5988 -0.2254
   10MOL    H66 3504   3.849   3.678   0.227  1.8856  0.4193  0.5896
   10MOL    H67 3505   3.698   3.761   0.392 -2.7054  0.8819 -1.2852
   10MOL    H68 3506   3.780   3.908   0.383  1.1646 -1.2044  1.3629
   10MOL    H69 3507   3.529   3.830   0.273  0.7453 -2.1858 -0.7748
   10MOL    H70 3508   3.588   3.995   0.294  1.9203  1.4574 -1.4338
   10MOL    H71 3509   3.695   4.009   0.099 -0.2731 -0.0093 -3.2571
   10MOL    H72 3510   3.445   3.982   0.067  1.3531  1.3920 -0.4622
   10MOL    H73 3511   3.459   3.812   0.036  3.5799 -1.3598  0.0866
   10MOL    H74 3512   3.607   3.991   7.484 -0.5096  0.6874  2.2010
   10MOL    H75 3513   3.558   3.825   7.472  0.0583  0.1101  0.4322
   10MOL    H76 3514   3.690   3.706   0.072 -0.6975  0.8007  1.0012
   10MOL    H77 3515   3.809   3.809   7.635  0.7451  0.1974  0.4464
   10MOL    C78 3516   3.397   3.952   7.435 -0.1819 -0.1480 -0.6611
   10MOL    C79 3517   3.348   4.090   7.471 -1.0779 -0.0112  0.0504
   10MOL    C80 3518   3.348   4.170   7.336 -0.3258  0.0299 -0.2679
   10MOL    C81 3519   3.336   4.063   7.230 -0.1912  0.4688 -0.2235
   10MOL    C82 3520   3.376   4.106   7.092  0.3059  0.6826  0.3069
   10MOL    C83 3521   3.347   3.995   6.988  0.2932 -0.2717 -0.4563
   10MOL    C84 3522   3.423   3.949   7.286  1.0225  1.3987 -0.6496
   10MOL    H85 3523   3.319   3.881   7.463  0.0410 -0.3956 -0.6692
   10MOL    H86 3524   3.248   4.078   7.513 -1.6315 -0.4021 -1.3678
   10MOL    H87 3525   3.407   4.136   7.551 -0.4781 -2.1417  0.8894
   10MOL    H88 3526   3.281   4.254   7.320 -0.8259 -0.6276 -1.7596
   10MOL    H89 3527   3.447   4.212   7.320 -0.0211 -0.9705 -1.1196
   10MOL    H90 3528   3.231   4.035   7.234  0.5696 -2.7260 -1.1460
   10MOL    H91 3529   3.483   4.126   7.092  0.5289 -0.4310  0.9444
   10MOL    H92 3530   3.320   4.195   7.066  2.6866  1.4988 -2.2456
   10MOL    H93 3531   3.242   3.966   6.983  0.0419  1.0202 -3.2048
   10MOL    H94 3532   3.417   3.914   7.011 -0.1701  0.0661  2.3627
   10MOL    H95 3533   3.526   3.963   7.253  1.2007 -1.8460 -1.6215
   10MOL    H96 3534   3.390   3.858   7.236  0.5689  0.8639  0.6169
   10MOL    C97 3535   3.377   4.031   6.846 -0.2221  0.2887  0.3601
   10MOL    C98 3536   3.307   3.932   6.747 -0.8484 -0.3527  0.1951
   10MOL    C99 3537   3.386   3.973   6.622 -0.4083  0.4625  0.9372
   10MOL   C100 3538   3.531   3.987   6.654  1.1738 -0.3289 -0.5270
   10MOL   C101 3539   3.605   3.846   6.654  0.3046  0.3716 -0.0559
   10MOL   C102 3540   3.639   3.800   6.515  0.6078  0.2782  0.4021
   10MOL   C103 3541   3.517   4.035   6.802  0.1349  0.1029  0.0110
   10MOL   H104 3542   3.338   4.133   6.837 -0.3497  0.1866 -0.2843
   10MOL   H105 3543   3.338   3.830   6.771 -0.3205 -0.8095 -2.2579
   10MOL   H106 3544   3.200   3.946   6.737 -0.4047  2.5802 -1.0821
   10MOL   H107 3545   3.369   3.904   6.539 -0.2905 -0.2979  1.5445
   10MOL   H108 3546   3.341   4.058   6.570 -0.1673 -0.5688 -1.0063
   10MOL   H109 3547   3.597   4.049   6.593  0.7452 -0.1879 -0.8496
   10MOL   H110 3548   3.699   3.847   6.708 -0.3339 -0.2953  1.0921
   10MOL   H111 3549   3.554   3.769   6.712  0.5516  0.6299  0.5064
   10MOL   H112 3550   3.547   3.804   6.457 -0.2164 -1.4544  1.5279
   10MOL   H113 3551   3.713   3.868   6.474  1.1471 -0.6586 -0.1986
   10MOL   H114 3552   3.589   3.978   6.861  0.7743  0.3407 -0.5227
   10MOL   H115 3553   3.542   4.141   6.814  2.2791 -0.4833  1.0238
   10MOL   C116 3554   3.710   3.660   6.505 -0.3826 -0.7811 -0.2524
   10MOL   C117 3555   3.657   3.549   6.591  0.3730  1.3808  0.0021
   10MOL   C118 3556   3.687   3.416   6.507  0.1931 -0.4589  0.9332
   10MOL   C119 3557   3.739   3.454   6.364 -0.2711 -0.0062  0.1241
   10MOL   C120 3558   3.683   3.368   6.246 -0.3295 -0.0735  0.0987
   10MOL   C121 3559   3.737   3.407   6.103 -0.1870 -0.4750 -0.5526
   10MOL   C122 3560   3.694   3.604   6.360 -0.0310  0.7154  0.0939
   10MOL   H123 3561   3.817   3.675   6.518 -0.3590 -2.6105  2.0046
   10MOL   H124 3562   3.550   3.553   6.614  0.2274  2.1307 -0.7942
   10MOL   H125 3563   3.715   3.538   6.683 -0.5940 -0.9066  0.3912
   10MOL   H126 3564   3.587   3.373   6.512 -0.1556 -0.5871 -4.2661
   10MOL   H127 3565   3.754   3.349   6.560  2.6570  0.5110 -0.8397
   10MOL   H128 3566   3.848   3.463   6.355 -0.0811 -0.9791  1.3038
   10MOL   H129 3567   3.574   3.376   6.239 -0.0947  0.0297 -5.1285
   10MOL   H130 3568   3.697   3.261   6.261  1.7087 -0.0713 -1.6078
   10MOL   H131 3569   3.845   3.392   6.100 -0.1195 -1.9161  4.4543
   10MOL   H132 3570   3.715   3.513   6.101 -0.1014 -0.4563 -0.4972
   10MOL   H133 3571   3.756   3.651   6.283  0.4638  1.7235  1.0957
   10MOL   H134 3572   3.588   3.617   6.338 -0.1694 -0.0527  0.3013
   10MOL   C135 3573   3.665   3.335   5.994  0.4298  0.0783 -0.1008
   10MOL   C136 3574   3.705   3.382   5.847  0.2905  0.2673 -0.2867
   10MOL   C137 3575   3.650   3.260   5.763 -0.0919 -0.8549 -0.4726
   10MOL   C138 3576   3.687   3.138   5.846 -0.5071 -0.8905  0.5298
   10MOL   C139 3577   3.602   3.008   5.845 -0.5741  0.6853 -0.2798
   10MOL   C140 3578   3.599   2.931   5.712  0.7012  0.0792  0.0348
   10MOL   C141 3579   3.692   3.190   5.991 -0.4694 -0.3946 -0.2237
   10MOL   H142 3580   3.558   3.348   6.009  0.2343  0.0268 -1.3902
   10MOL   H143 3581   3.657   3.475   5.817 -1.1445 -0.6378 -0.8231
   10MOL   H144 3582   3.809   3.413   5.836  0.0548  1.7310  1.3988
   10MOL   H145 3583   3.541   3.269   5.761  0.0027  0.9919  1.1819
   10MOL   H146 3584   3.687   3.251   5.661  0.2038 -0.8557 -0.3643
   10MOL   H147 3585   3.791   3.120   5.817 -0.4925  1.3432 -0.8825
   10MOL   H148 3586   3.502   3.029   5.881 -0.8354 -1.3742  0.2323
   10MOL   H149 3587   3.638   2.944   5.925  0.6052  0.9253 -0.6047
   10MOL   H150 3588   3.569   2.999   5.631 -0.4996  0.1681  0.5509
   10MOL   H151 3589   3.702   2.901   5.692  0.0237 -1.5193 -1.1437
   10MOL   H152 3590   3.790   3.166   6.032 -1.4846 -0.2206  2.4359
   10MOL   H153 3591   3.616   3.151   6.059  0.1677 -1.9876 -0.4091
   10MOL   C154 3592   3.506   2.810   5.714 -0.2366  0.2473  0.9493
   10MOL   C155 3593   3.519   2.720   5.588  0.2186 -0.2357 -0.1243
   10MOL   C156 3594   3.377   2.665   5.566  1.2635  0.1451  0.1380
   10MOL   C157 3595   3.291   2.710   5.683  0.4399 -0.6828 -0.3456
   10MOL   C158 3596   3.135   2.735   5.662 -0.4409 -0.2258  0.1546
   10MOL   C159 3597   3.063   2.602   5.633  0.1119 -0.2227 -0.0502
   10MOL   C160 3598   3.354   2.841   5.723  0.3730 -0.3696  0.7145
   10MOL   H161 3599   3.526   2.754   5.805 -0.8970  1.7894  2.0588
   10MOL   H162 3600   3.554   2.779   5.504  2.1805 -0.3382  0.6049
   10MOL   H163 3601   3.600   2.648   5.595 -0.5265 -1.0163  0.5738
   10MOL   H164 3602   3.345   2.713   5.473  0.4847  0.4553  0.5593
   10MOL   H165 3603   3.369   2.557   5.553  1.1006  0.1642  0.0765
   10MOL   H166 3604   3.307   2.638   5.764  1.2206 -0.7748 -0.5772
   10MOL   H167 3605   3.118   2.800   5.576  0.0975  0.3131  0.4511
   10MOL   H168 3606   3.095   2.783   5.751 -2.0488  1.1805 -1.2766
   10MOL   H169 3607   3.126   2.548   5.562  0.6823 -1.1744  1.1640
   10MOL   H170 3608   3.052   2.536   5.719 -1.4142 -1.5340 -1.2069
   10MOL   H171 3609   3.325   2.872   5.824 -1.2048 -0.4917  0.3097
   10MOL   H172 3610   3.326   2.918   5.651 -1.9040 -2.7428 -1.0597
   10MOL   C173 3611   2.918   2.630   5.586 -0.1632  0.4683  0.0745
   10MOL   C174 3612   2.836   2.500   5.572  0.6580  0.8305 -0.0030
   10MOL   C175 3613   2.692   2.545   5.589  0.2466  0.0115 -0.3394
   10MOL   C176 3614   2.696   2.669   5.680 -0.1736 -0.1537 -0.4400
   10MOL   C177 3615   2.606   2.642   5.808  0.2472 -0.1180 -0.0239
   10MOL   C178 3616   2.591   2.753   5.916 -0.0653  0.5747 -0.0027
   10MOL   C179 3617   2.839   2.697   5.709 -0.3074  0.6392 -0.5326
   10MOL   H180 3618   2.911   2.695   5.499  0.8545  1.8638  1.0148
   10MOL   H181 3619   2.863   2.423   5.644  1.5074 -0.0825 -1.2783
   10MOL   H182 3620   2.835   2.452   5.474  1.8583  1.0780 -0.1517
   10MOL   H183 3621   2.638   2.578   5.500 -0.3011 -2.5781 -0.9948
   10MOL   H184 3622   2.627   2.462   5.616 -0.9653  1.2165  0.5122
   10MOL   H185 3623   2.654   2.745   5.614 -2.0584  0.1001  1.0218
   10MOL   H186 3624   2.647   2.549   5.848 -0.6128 -0.2592  0.5416
   10MOL   H187 3625   2.505   2.612   5.779  0.8110 -0.2345 -1.9802
   10MOL   H188 3626   2.525   2.831   5.877 -1.0956 -0.4352 -0.3055
   10MOL   H189 3627   2.686   2.803   5.932 -0.7150  0.6730  4.0986
   10MOL   H190 3628   2.863   2.644   5.801  0.3451 -1.7699 -2.0513
   10MOL   H191 3629   2.861   2.803   5.722  2.2751  0.2622 -1.5076
   10MOL   C192 3630   2.525   2.699   6.045 -0.1183  0.1576 -0.3587
   10MOL   C193 3631   2.475   2.810   6.132  0.4986  0.3741  0.6717
   10MOL   C194 3632   2.454   2.742   6.265 -0.0827 -0.0723  0.4745
   10MOL   C195 3633   2.570   2.644   6.286 -0.1834  0.3884  0.1195
   10MOL   C196 3634   2.530   2.514   6.360 -0.4002  0.1402 -0.4622
   10MOL   C197 3635   2.648   2.407   6.392  0.4035 -1.0281  0.0136
   10MOL   C198 3636   2.615   2.616   6.138  0.7534 -0.6202 -0.4489
   10MOL   H199 3637   2.443   2.631   6.022  0.8795 -0.7165 -1.4097
   10MOL   H200 3638   2.555   2.879   6.158  1.3612 -1.3168  2.6318
   10MOL   H201 3639   2.383   2.859   6.100 -0.6846 -1.9645  0.3434
   10MOL   H202 3640   2.361   2.687   6.254 -1.2453  1.9260  0.3079
   10MOL   H203 3641   2.447   2.811   6.349  0.2543  1.4075 -0.6992
   10MOL   H204 3642   2.661   2.686   6.328 -0.1696  0.6911 -0.2089
   10MOL   H205 3643   2.441   2.475   6.311 -0.2829  2.2562 -2.4558
   10MOL   H206 3644   2.485   2.543   6.455 -0.9686  1.2399 -1.0606
   10MOL   H207 3645   2.700   2.387   6.298 -1.4899  2.3639 -1.8649
   10MOL   H208 3646   2.609   2.307   6.409  0.3231 -0.7410  1.5899
   10MOL   H209 3647   2.620   2.510   6.114 -0.1675 -0.4170 -1.5694
   10MOL   H210 3648   2.716   2.657   6.134  0.4355  0.0901 -1.4235
   10MOL   C211 3649   2.744   2.456   6.492 -0.0139 -0.6750 -0.5873
   10MOL   C212 3650   2.883   2.403   6.494 -0.2268  0.3648 -0.7964
   10MOL   C213 3651   2.929   2.432   6.636 -0.2454  0.1464  0.1926
   10MOL   C214 3652   2.806   2.450   6.726 -0.1470  0.6913  0.8130
   10MOL   C215 3653   2.826   2.355   6.842  0.1033 -0.3333 -0.2100
   10MOL   C216 3654   2.712   2.361   6.941 -0.0224  0.3736 -0.1417
   10MOL   C217 3655   2.688   2.427   6.632 -0.6735  0.2639 -0.0111
   10MOL   H218 3656   2.745   2.565   6.479 -1.2871 -0.7954 -1.7765
   10MOL   H219 3657   2.894   2.296   6.477 -0.1959  0.3358 -0.5938
   10MOL   H220 3658   2.941   2.457   6.420 -0.4248  0.6721 -0.7295
   10MOL   H221 3659   2.985   2.341   6.656 -0.9572 -0.2635  0.3090
   10MOL   H222 3660   2.992   2.521   6.641  1.1771 -0.8542  0.1755
   10MOL   H223 3661   2.802   2.552   6.763 -1.6901  0.7548  0.4945
   10MOL   H224 3662   2.928   2.367   6.879 -0.3335  0.9632  0.5871
   10MOL   H225 3663   2.832   2.251   6.810  0.3731 -0.3287 -0.1758
   10MOL   H226 3664   2.721   2.464   6.976  0.6481 -0.1170  1.1501
   10MOL   H227 3665   2.619   2.343   6.887 -0.3634  0.0399  0.5408
   10MOL   H228 3666   2.594   2.475   6.660 -0.3400 -0.3069  2.2045
   10MOL   H229 3667   2.658   2.322   6.636 -1.8050  0.6001  1.0045
   10MOL   C230 3668   2.724   2.264   7.058 -0.2636  0.4434  0.0690
   10MOL   C231 3669   2.704   2.122   7.022  0.1004 -0.6345 -0.1570
   10MOL   C232 3670   2.651   2.051   7.145 -0.0128 -0.2814  0.5989
   10MOL   C233 3671   2.624   2.160   7.250  0.1580 -0.9171  0.1851
   10MOL   C234 3672   2.718   2.170   7.370 -1.0430  0.2746 -0.2398
   10MOL   C235 3673   2.721   2.042   7.466 -0.6130  0.0137  0.7275
   10MOL   C236 3674   2.618   2.284   7.166 -0.3224 -0.2658 -0.2603
   10MOL   H237 3675   2.825   2.269   7.100  0.6709 -3.7690 -1.3782
   10MOL   H238 3676   2.637   2.112   6.937 -0.2756  0.4990 -0.0112
   10MOL   H239 3677   2.793   2.077   6.979  0.4941 -0.0818  0.0731
   10MOL   H240 3678   2.733   1.992   7.188  1.8697  1.2798 -0.7564
   10MOL   H241 3679   2.567   1.992   7.109 -0.7438  1.4375 -0.5573
   10MOL   H242 3680   2.521   2.147   7.283  0.7558 -0.2431  2.3825
   10MOL   H243 3681   2.697   2.260   7.429 -1.5643  0.1246 -0.2001
   10MOL   H244 3682   2.817   2.207   7.341 -1.2150  1.3072  0.4495
   10MOL   H245 3683   2.618   2.023   7.494 -1.5773 -1.8780 -3.6547
   10MOL   H246 3684   2.754   1.950   7.417 -0.1741  0.9594 -0.7829
   10MOL   H247 3685   2.629   2.372   7.230  0.9150 -0.5725 -0.0392
   10MOL   H248 3686   2.520   2.297   7.120 -1.7444  0.9024  2.9592
   10MOL   C249 3687   2.810   2.073   7.588  0.8744  0.3632  0.4101
   10MOL   C250 3688   2.771   1.967   0.051  0.4495 -0.1526 -0.2968
   10MOL   C251 3689   2.879   1.864   0.058  0.2308  0.0571  0.0295
   10MOL   C252 3690   2.975   1.900   7.599 -0.6659 -0.0011  0.4478
   10MOL   C253 3691   3.132   1.859   7.625  0.0023 -0.1340 -0.3734
   10MOL   C254 3692   3.155   1.719   0.002 -0.0845  0.1751  0.6220
   10MOL   C255 3693   2.962   2.053   7.552 -0.1030 -0.3065 -0.8977
   10MOL   H256 3694   2.794   2.175   7.622 -0.2310 -0.1393  1.4440
   10MOL   H257 3695   2.751   2.004   0.152  1.4236  0.1905 -0.2293
   10MOL   H258 3696   2.678   1.917   0.025 -1.0750  2.1132  0.6003
   10MOL   H259 3697   2.843   1.762   0.046 -2.7370  1.1041 -0.4842
   10MOL   H260 3698   2.929   1.859   0.155 -0.6921 -1.3228  0.4526
   10MOL   H261 3699   2.944   1.857   7.504 -2.7319  0.0213  1.0902
   10MOL   H262 3700   3.173   1.924   0.055 -0.6982 -0.8557  0.6185
   10MOL   H263 3701   3.188   1.887   7.535 -0.8564  0.8893 -0.5985
   10MOL   H264 3702   3.122   1.660   7.565  1.1846  0.5074 -0.1229
   10MOL   H265 3703   3.081   1.681   0.072 -1.5322  1.1522 -0.3437
   10MOL   H266 3704   2.984   2.077   7.448  0.0927 -0.0116 -0.7869
   10MOL   H267 3705   3.014   2.120   7.620 -0.0070 -1.3371  0.0710
   10MOL   C268 3706   3.300   1.688   0.045  0.2027 -0.4153  0.0787
   10MOL   C269 3707   3.396   1.676   7.580  0.3504  0.8759  0.3352
   10MOL   C270 3708   3.514   1.587   7.628  0.4285 -0.1727 -0.0745
   10MOL   C271 3709   3.456   1.519   0.105  0.6970 -0.1923  0.2311
   10MOL   C272 3710   3.496   1.368   0.111  0.3873 -0.1686 -0.0191
   10MOL   C273 3711   3.439   1.299   0.238  0.0830  0.2126  0.8924
   10MOL   C274 3712   3.309   1.550   0.111 -0.1284 -0.6236  0.2746
   10MOL   H275 3713   3.332   1.760   0.120  0.3454  1.2360 -1.5227
   10MOL   H276 3714   3.367   1.616   7.494  1.6187  0.3996  0.2251
   10MOL   H277 3715   3.446   1.767   7.547 -2.2117  1.3632 -2.3910
   10MOL   H278 3716   3.537   1.515   7.549  0.1397  2.3397 -2.5014
   10MOL   H279 3717   3.611   1.634   7.640  1.0767 -0.6386 -2.9634
   10MOL   H280 3718   3.510   1.565   0.187 -0.4384  1.2828  0.1697
   10MOL   H281 3719   3.604   1.357   0.102  0.3669  0.0609 -0.5718
   10MOL   H282 3720   3.448   1.308   0.034  0.4090 -0.3140  0.0808
   10MOL   H283 3721   3.490   1.353   0.318  0.9878  2.9822 -1.4648
   10MOL   H284 3722   3.332   1.314   0.249 -0.4741 -1.4356 -1.7421
   10MOL   H285 3723   3.257   1.473   0.055 -0.0675  0.6660 -1.6034
   10MOL   H286 3724   3.265   1.530   0.209  0.3751 -1.3324  0.3630
   10MOL   C287 3725   3.470   1.148   0.250  0.2294  0.6619 -0.2501
   10MOL   C288 3726   3.426   1.102   0.390 -0.7533 -0.5700 -0.6112
   10MOL   C289 3727   3.386   0.959   0.376  0.2441  0.4205  0.1169
   10MOL   C290 3728   3.407   0.918   0.231  0.8716 -0.5011  0.0558
   10MOL   C291 3729   3.307   0.810   0.175  0.2155  0.4767  0.1744
   10MOL   C292 3730   3.352   0.663   0.204 -0.2417  0.0697 -0.3350
   10MOL   C293 3731   3.395   1.052   0.154 -1.1175  0.2644 -0.0938
   10MOL   H294 3732   3.578   1.135   0.251  0.4980  2.7497 -0.5168
   10MOL   H295 3733   3.494   1.109   0.474 -2.4205 -3.2405  1.0499
   10MOL   H296 3734   3.336   1.159   0.414 -0.6386 -0.9468  0.7479
   10MOL   H297 3735   3.281   0.939   0.397  0.1644 -0.2161 -0.8503
   10MOL   H298 3736   3.447   0.902   0.445 -0.4494 -1.2591 -0.6390
   10MOL   H299 3737   3.507   0.880   0.215 -0.4377 -3.3648 -1.6401
   10MOL   H300 3738   3.286   0.825   0.069 -0.4321 -1.6058 -0.0247
   10MOL   H301 3739   3.209   0.831   0.217  0.2163  1.7354 -0.4306
   10MOL   H302 3740   3.357   0.650   0.312  1.8234  0.1502 -0.3945
   10MOL   H303 3741   3.456   0.638   0.180  0.1326 -0.1516  1.4627
   10MOL   H304 3742   3.291   1.083   0.151 -1.1707  0.0564 -0.4408
   10MOL   H305 3743   3.451   1.042   0.061 -2.2252 -0.4999 -0.6881
   10MOL   C306 3744   3.240   0.563   0.152 -0.0438 -0.1455  0.8585
   10MOL   C307 3745   3.199   0.583   0.008 -0.3057 -0.2158 -0.2801
   10MOL   C308 3746   3.132   0.459   7.608  0.2351 -0.5254 -0.0660
   10MOL   C309 3747   3.180   0.350   0.061 -0.9729 -0.2406  0.2793
   10MOL   C310 3748   3.257   0.239   7.637 -0.0867  0.6442  0.2613
   10MOL   C311 3749   3.286   0.125   0.090 -0.2615  0.5356 -0.2460
   10MOL   C312 3750   3.278   0.418   0.160  0.2298  0.5656  0.2733
   10MOL   H313 3751   3.152   0.573   0.216 -1.3530  0.5713 -1.0237
   10MOL   H314 3752   3.122   0.660   7.646  0.7967  0.9134 -0.2577
   10MOL   H315 3753   3.284   0.597   7.589 -0.2336  0.9359  0.0435
   10MOL   H316 3754   3.026   0.486   7.618  0.5734  0.6712  0.3900
   10MOL   H317 3755   3.153   0.429   7.505  0.0754 -1.4431  0.1629
   10MOL   H318 3756   3.100   0.307   0.122 -1.5475  2.0585  1.1988
   10MOL   H319 3757   3.212   0.210   7.542 -1.7689  1.3227  0.8357
   10MOL   H320 3758   3.350   0.283   7.600  0.4514 -2.0403 -1.7873
   10MOL   H321 3759   3.190   0.080   0.117 -0.4346  0.1667 -1.4709
   10MOL   H322 3760   3.328   0.168   0.181  0.6618  0.3408 -0.5804
   10MOL   H323 3761   3.374   0.401   0.111 -0.2012  0.7864 -0.6683
   10MOL   H324 3762   3.271   0.371   0.258 -1.9530 -3.4959 -1.7006
   10MOL   C325 3763   3.383   0.015   0.034 -0.0490 -0.8577  0.5736
   10MOL   C326 3764   3.398   7.540   0.123  0.2961 -0.2218  0.4545
   10MOL   C327 3765   3.455   7.427   0.036  0.0452  0.0601 -0.4308
   10MOL   C328 3766   3.419   7.470   7.535 -0.3603  0.3174  0.7253
   10MOL   C329 3767   3.531   7.465   7.429 -0.1705  0.0546 -0.3024
   10MOL   C330 3768   3.559   7.318   7.391  0.4200 -0.9224 -0.2979
   10MOL   C331 3769   3.346   7.599   7.546 -0.0368  0.3375 -0.1577
   10MOL   H332 3770   3.480   0.064   0.026 -1.0102  1.0792  0.6913
   10MOL   H333 3771   3.305   7.510   0.171 -0.1013 -1.4130 -1.0141
   10MOL   H334 3772   3.467   7.561   0.205 -0.4430  2.5081  0.4477
   10MOL   H335 3773   3.560   7.407   0.054  0.8098  2.3134 -2.1857
   10MOL   H336 3774   3.395   7.339   0.059  0.1873  0.1417  0.2510
   10MOL   H337 3775   3.350   7.395   7.498 -0.7926  0.2143  1.7143
   10MOL   H338 3776   3.488   7.509   7.339 -0.1496 -0.0962 -0.3869
   10MOL   H339 3777   3.616   7.523   7.464  1.2564 -1.6180 -0.9282
   10MOL   H340 3778   3.588   7.266   7.483 -0.7951 -0.9089  0.0940
   10MOL   H341 3779   3.465   7.273   7.359  0.6864 -1.7437  0.0696
   10MOL   H342 3780   3.238   7.584   7.538 -0.0342  0.3110 -0.1439
   10MOL   H343 3781   3.375   0.027   7.472  1.3305  0.6962  0.7381
   10MOL   C344 3782   3.667   7.293   7.283  0.2284  0.6243  0.1072
   10MOL   C345 3783   3.646   7.375   7.148 -0.0209  0.2041  0.1340
   10MOL   C346 3784   3.704   7.275   7.039  0.1411 -0.6675 -0.6380
   10MOL   C347 3785   3.713   7.124   7.095  1.1537 -0.0448  0.4186
   10MOL   C348 3786   3.846   7.054   7.071  0.3639 -0.2094 -0.2699
   10MOL   C349 3787   3.888   7.050   6.921 -0.1235 -0.1295  1.1511
   10MOL   C350 3788   3.667   7.142   7.243 -0.0158  0.2000  0.6734
   10MOL   H351 3789   3.765   7.326   7.320 -0.6392  3.4951 -0.0031
   10MOL   H352 3790   3.693   7.473   7.144 -1.8795  1.0777 -0.7822
   10MOL   H353 3791   3.540   7.399   7.137 -0.1746  0.3535  1.7726
   10MOL   H354 3792   3.644   7.281   6.948 -0.1923  0.1530 -0.3722
   10MOL   H355 3793   3.803   7.314   7.015 -0.8420 -0.1752 -4.0794
   10MOL   H356 3794   3.647   7.057   7.041  0.8625  0.0732  0.6285
   10MOL   H357 3795   3.920   7.094   7.140  0.4725 -0.9016  0.0239
   10MOL   H358 3796   3.843   6.953   7.113  0.3480  1.2724  3.4608
   10MOL   H359 3797   3.917   7.150   6.889 -0.8042  0.1802  1.5001
   10MOL   H360 3798   3.806   7.023   6.855  2.3013 -0.4122 -1.8339
   10MOL   H361 3799   3.563   7.109   7.245 -0.8432  2.5599 -1.4451
   10MOL   H362 3800   3.724   7.077   7.310  1.3479  0.2015 -0.4529
   10MOL   C363 3801   3.994   6.944   6.903  0.2008  0.6795 -0.6056
   10MOL   C364 3802   4.140   6.981   6.927  0.1696 -0.3899 -0.6163
   10MOL   C365 3803   4.217   6.907   6.817 -0.2225  0.2613 -0.0140
   10MOL   C366 3804   4.124   6.797   6.760  0.0058 -0.8410 -0.0713
   10MOL   C367 3805   4.159   6.732   6.632  0.4834  0.7821 -0.3802
   10MOL   C368 3806   4.295   6.661   6.629 -0.3239  0.1302  0.3488
   10MOL   C369 3807   3.999   6.879   6.765  0.1389  0.1645 -0.2590
   10MOL   H370 3808   3.969   6.861   6.968  0.3395  2.0842  1.2829
   10MOL   H371 3809   4.150   7.090   6.928 -1.8720 -0.1875  0.5773
   10MOL   H372 3810   4.176   6.942   7.022 -0.3146 -2.2588 -1.1769
   10MOL   H373 3811   4.232   6.986   6.743  0.3971  0.2317  0.0857
   10MOL   H374 3812   4.318   6.875   6.842 -0.9484 -1.5877  0.6458
   10MOL   H375 3813   4.125   6.711   6.827  0.1965 -1.6707 -1.1352
   10MOL   H376 3814   4.076   6.676   6.589 -0.4882  0.5117  1.7970
   10MOL   H377 3815   4.161   6.805   6.551  0.1307 -0.1009 -1.2086
   10MOL   H378 3816   4.377   6.732   6.613  1.0239 -1.1623  1.3616
   10MOL   H379 3817   4.292   6.585   6.551 -1.6923  1.0824 -0.5449
   10MOL   H380 3818   3.995   6.964   6.697 -0.9833 -0.0800 -0.5237
   10MOL   H381 3819   3.906   6.827   6.741  0.6271 -0.6680 -0.3755
   10MOL   H382 3820   4.334   6.623   6.723 -0.3770  0.6453  0.5803
   11MOL     C1 3821   2.276   3.990   2.737  0.0304  0.4274 -0.7360
   11MOL     C2 3822   2.358   3.862   2.740 -0.3504  0.2418  0.8120
   11MOL     C3 3823   2.257   3.751   2.721 -0.4366 -0.0024  0.0466
   11MOL     C4 3824   2.122   3.812   2.681 -0.0803  0.2336  0.3430
   11MOL     C5 3825   1.993   3.731   2.717 -0.1887 -0.2275  0.4676
   11MOL     C6 3826   1.979   3.582   2.660 -0.2769 -0.5052  0.4028
   11MOL     C7 3827   2.132   3.943   2.756 -0.0696 -0.2039  0.1499
   11MOL     H8 3828   2.311   4.070   2.802  1.0553 -1.0389  0.5336
   11MOL     H9 3829   2.409   3.846   2.835  1.3334 -0.6689 -0.2240
   11MOL    H10 3830   2.434   3.862   2.662 -0.3367  0.4132  0.8236
   11MOL    H11 3831   2.286   3.691   2.635 -0.8726 -0.5898  0.3009
   11MOL    H12 3832   2.237   3.698   2.814 -0.5263 -0.9115 -0.4783
   11MOL    H13 3833   2.119   3.833   2.574  0.1261 -1.6592 -0.0486
   11MOL    H14 3834   1.995   3.717   2.825 -1.2031 -1.9192  0.2831
   11MOL    H15 3835   1.903   3.788   2.696  1.3381  1.3149 -2.1897
   11MOL    H16 3836   1.964   3.571   2.553  1.0653 -1.2372  0.2767
   11MOL    H17 3837   2.078   3.539   2.676 -1.1765 -3.0810 -0.7442
   11MOL    H18 3838   2.059   4.012   2.713 -2.7909 -0.9190  3.3974
   11MOL    H19 3839   2.113   3.931   2.863 -1.4543 -0.3554 -0.0997
   11MOL    H20 3840   2.269   4.018   2.632  1.1632 -1.7945 -1.4431
   11MOL    C21 3841   1.885   3.484   2.739 -0.0928  0.8245  0.0817
   11MOL    C22 3842   1.747   3.537   2.760  0.5983 -0.1120 -0.2335
   11MOL    C23 3843   1.644   3.420   2.765  0.1278 -0.3296  0.0566
   11MOL    C24 3844   1.728   3.298   2.755 -0.0150  0.4837 -0.2084
   11MOL    C25 3845   1.662   3.167   2.698 -0.2138  0.1680  0.3078
   11MOL    C26 3846   1.754   3.045   2.726  0.0890 -0.3647 -0.3123
   11MOL    C27 3847   1.855   3.346   2.678  0.5893 -0.2119  0.1669
   11MOL    H28 3848   1.920   3.484   2.842 -3.9190 -0.0394  1.4931
   11MOL    H29 3849   1.736   3.610   2.840 -0.8972 -0.4993 -0.0820
   11MOL    H30 3850   1.729   3.593   2.668  0.5781 -2.0899 -1.4592
   11MOL    H31 3851   1.577   3.435   2.849  0.0457  3.7710 -0.6259
   11MOL    H32 3852   1.581   3.436   2.677 -1.1113 -0.9161  0.8346
   11MOL    H33 3853   1.751   3.284   2.861  1.5800  0.5968 -0.5258
   11MOL    H34 3854   1.636   3.179   2.593 -1.9181 -1.6489  0.5038
   11MOL    H35 3855   1.566   3.136   2.739  0.0693 -2.0265 -0.6746
   11MOL    H36 3856   1.709   2.970   2.790 -0.9758  0.8616  0.4009
   11MOL    H37 3857   1.843   3.085   2.775 -1.7695  2.2790  1.0419
   11MOL    H38 3858   1.941   3.282   2.700  0.1260 -0.3740  1.5639
   11MOL    H39 3859   1.852   3.355   2.569 -2.1558  0.6616  0.2905
   11MOL    C40 3860   1.797   2.993   2.582 -0.1510 -0.0282  0.1259
   11MOL    C41 3861   1.909   2.890   2.583  0.2648  0.6258  0.5537
   11MOL    C42 3862   1.877   2.795   2.467 -0.1908 -0.1639 -0.1810
   11MOL    C43 3863   1.727   2.775   2.477 -0.3560  0.0983  0.3698
   11MOL    C44 3864   1.655   2.725   2.347  0.5018 -0.2498 -0.4022
   11MOL    C45 3865   1.694   2.576   2.314  0.4573 -0.2339  0.1076
   11MOL    C46 3866   1.679   2.912   2.526  0.0801 -0.5755  0.5132
   11MOL    H47 3867   1.817   3.087   2.530  0.3446  0.5356  1.3179
   11MOL    H48 3868   1.911   2.835   2.677 -1.9264 -0.1523  0.1664
   11MOL    H49 3869   2.008   2.936   2.581  0.5522 -0.0384 -0.6062
   11MOL    H50 3870   1.909   2.834   2.371 -2.1303  0.7548 -0.4784
   11MOL    H51 3871   1.918   2.694   2.459 -1.4261 -0.6789 -0.1129
   11MOL    H52 3872   1.702   2.711   2.562 -1.6445 -0.5592 -0.4810
   11MOL    H53 3873   1.548   2.724   2.368  0.2753 -0.9979 -1.5470
   11MOL    H54 3874   1.664   2.795   2.264 -0.7214  0.6716  0.2292
   11MOL    H55 3875   1.600   2.527   2.287  0.0535  1.0240 -0.8461
   11MOL    H56 3876   1.730   2.520   2.400  3.2038 -3.0616 -2.7546
   11MOL    H57 3877   1.638   2.976   2.448 -0.8531 -0.5987  0.9791
   11MOL    H58 3878   1.600   2.904   2.601  1.0259 -1.0555  1.4633
   11MOL    C59 3879   1.794   2.559   2.203 -0.1207 -0.6802 -0.5942
   11MOL    C60 3880   1.815   2.410   2.165 -0.5339  0.1073  0.3658
   11MOL    C61 3881   1.887   2.414   2.030  0.3906 -0.0827 -0.8198
   11MOL    C62 3882   1.839   2.543   1.962  0.3460 -0.5986  0.7228
   11MOL    C63 3883   1.967   2.619   1.904  0.1777  0.2933  0.3798
   11MOL    C64 3884   2.052   2.536   1.806 -0.4126  0.0467  0.2573
   11MOL    C65 3885   1.758   2.628   2.062 -0.2584 -0.1827  0.3703
   11MOL    H66 3886   1.896   2.592   2.225 -0.2855 -0.8748  0.4732
   11MOL    H67 3887   1.875   2.353   2.237  0.4658  1.7025  0.8149
   11MOL    H68 3888   1.722   2.359   2.143 -0.4731  0.0908  0.1413
   11MOL    H69 3889   1.994   2.417   2.050 -0.1146  2.9701  1.7594
   11MOL    H70 3890   1.868   2.335   1.957  1.6516 -0.4721 -0.7300
   11MOL    H71 3891   1.769   2.513   1.884  1.8801 -0.5308 -0.7228
   11MOL    H72 3892   2.030   2.658   1.985  2.9643  0.4743 -1.7891
   11MOL    H73 3893   1.937   2.705   1.845 -0.7683 -0.6597 -0.5278
   11MOL    H74 3894   2.067   2.434   1.840 -1.8756  0.4791  2.2992
   11MOL    H75 3895   1.989   2.515   1.719 -1.8776  1.0045  1.0631
   11MOL    H76 3896   1.790   2.732   2.063 -2.3729  0.4863  0.1375
   11MOL    H77 3897   1.653   2.628   2.035 -0.1019 -0.2745 -0.2490
   11MOL    C78 3898   2.191   2.599   1.779 -0.5414 -0.3005  0.4114
   11MOL    C79 3899   2.275   2.541   1.666  0.1936 -0.0471 -0.6251
   11MOL    C80 3900   2.396   2.639   1.642 -0.0608  0.0612 -0.5981
   11MOL    C81 3901   2.344   2.772   1.707  0.5781 -0.1340 -0.2621
   11MOL    C82 3902   2.368   2.891   1.625  0.1889  0.0279 -0.8053
   11MOL    C83 3903   2.277   3.007   1.669 -0.3276  0.5766  0.0730
   11MOL    C84 3904   2.194   2.745   1.750  0.3193 -0.2356  0.2791
   11MOL    H85 3905   2.246   2.591   1.873 -0.4868  0.0862  0.4130
   11MOL    H86 3906   2.320   2.448   1.698  1.0335  1.0893  1.6352
   11MOL    H87 3907   2.223   2.515   1.574  0.9495 -0.1021 -1.0431
   11MOL    H88 3908   2.487   2.603   1.688  0.4392  1.0485 -0.8021
   11MOL    H89 3909   2.412   2.651   1.535  1.9237 -0.5382 -0.3784
   11MOL    H90 3910   2.395   2.785   1.802 -0.7362 -1.4840  0.6517
   11MOL    H91 3911   2.337   2.867   1.523 -2.7419  0.5862 -0.0922
   11MOL    H92 3912   2.474   2.911   1.637  0.4390 -1.4994 -0.4579
   11MOL    H93 3913   2.280   3.022   1.777  0.6655  0.4585  0.0620
   11MOL    H94 3914   2.173   2.984   1.644 -0.7981  2.3742  0.3195
   11MOL    H95 3915   2.125   2.763   1.667  0.4860  1.3944  0.4870
   11MOL    H96 3916   2.160   2.814   1.827  0.0517 -0.0747  0.0168
   11MOL    C97 3917   2.320   3.138   1.605 -0.2313 -0.1926  0.3379
   11MOL    C98 3918   2.290   3.268   1.680 -0.1180  0.5229 -0.9434
   11MOL    C99 3919   2.304   3.388   1.574 -0.3716 -0.2801  0.1507
   11MOL   C100 3920   2.271   3.317   1.446  0.5130  0.6884  0.0176
   11MOL   C101 3921   2.165   3.394   1.363 -0.5087  0.4195 -0.5033
   11MOL   C102 3922   2.145   3.331   1.224 -0.2839  0.1095  0.1924
   11MOL   C103 3923   2.247   3.168   1.471  0.3764  0.6211  0.9366
   11MOL   H104 3924   2.428   3.136   1.590 -0.4987  0.5038 -2.0056
   11MOL   H105 3925   2.186   3.275   1.711  0.2881  1.3425  0.2783
   11MOL   H106 3926   2.350   3.285   1.770  0.0976  0.2052 -1.0263
   11MOL   H107 3927   2.248   3.477   1.603 -2.3093 -1.9156  1.5752
   11MOL   H108 3928   2.409   3.420   1.574  0.1717 -1.9408  2.8403
   11MOL   H109 3929   2.358   3.341   1.385 -0.7297 -1.9340 -2.9027
   11MOL   H110 3930   2.070   3.387   1.415 -0.9522  3.1206 -0.8661
   11MOL   H111 3931   2.188   3.500   1.349  0.0055  0.3165 -0.4617
   11MOL   H112 3932   2.246   3.314   1.188 -0.3042  1.2021 -0.3765
   11MOL   H113 3933   2.107   3.228   1.223 -0.3376  0.1103  1.4148
   11MOL   H114 3934   2.140   3.145   1.468 -0.0293  2.4635  1.1176
   11MOL   H115 3935   2.289   3.110   1.388 -0.3934 -0.3423  1.2089
   11MOL   C116 3936   2.052   3.416   1.132  0.6066  0.4333  0.0318
   11MOL   C117 3937   2.070   3.374   0.985 -0.0122 -0.2297 -0.9828
   11MOL   C118 3938   1.939   3.380   0.915 -0.0633 -0.7726  0.0473
   11MOL   C119 3939   1.839   3.442   1.015  0.6214 -1.0246  0.0547
   11MOL   C120 3940   1.695   3.394   0.995  0.0231  0.2518 -0.4271
   11MOL   C121 3941   1.602   3.420   1.119  0.2046  0.2006  0.2651
   11MOL   C122 3942   1.898   3.397   1.150  0.0970 -0.6674 -0.3651
   11MOL   H123 3943   2.066   3.524   1.139  1.6583  0.4730 -2.1069
   11MOL   H124 3944   2.108   3.272   0.977 -0.3301 -0.3142 -1.3921
   11MOL   H125 3945   2.143   3.443   0.943 -0.7787  1.2431  0.0250
   11MOL   H126 3946   1.899   3.282   0.889  0.8441 -1.6061  1.6976
   11MOL   H127 3947   1.937   3.447   0.829 -0.9082  0.0888  0.7299
   11MOL   H128 3948   1.849   3.549   0.999  2.9035 -1.2129  0.0107
   11MOL   H129 3949   1.689   3.287   0.976  4.2444  0.0665 -1.1704
   11MOL   H130 3950   1.659   3.442   0.905  1.2278  2.5695  0.2877
   11MOL   H131 3951   1.645   3.361   1.200 -0.0910 -0.7808 -0.2832
   11MOL   H132 3952   1.505   3.380   1.090  1.4971 -0.8747 -2.7949
   11MOL   H133 3953   1.856   3.450   1.235  0.9263 -2.3826  1.1500
   11MOL   H134 3954   1.888   3.290   1.166  2.2134 -0.8579 -0.1583
   11MOL   C135 3955   1.593   3.565   1.168 -0.0204 -0.6205  0.2381
   11MOL   C136 3956   1.523   3.659   1.068 -0.2182 -0.0741  0.1279
   11MOL   C137 3957   1.386   3.708   1.129  0.4729  0.3742  1.1306
   11MOL   C138 3958   1.370   3.621   1.259 -0.2443 -0.0306 -0.0629
   11MOL   C139 3959   1.294   3.683   1.374 -0.2988 -0.2394 -0.2945
   11MOL   C140 3960   1.266   3.607   1.507  0.4943 -0.1461  0.0186
   11MOL   C141 3961   1.506   3.565   1.294  0.4488  1.2854  0.3492
   11MOL   H142 3962   1.693   3.605   1.188  0.1542 -0.8622 -0.1518
   11MOL   H143 3963   1.582   3.750   1.057 -0.3696  0.2371  1.7898
   11MOL   H144 3964   1.502   3.601   0.978 -0.1208  1.2075 -0.7364
   11MOL   H145 3965   1.391   3.812   1.161 -0.4105  0.7051  0.2128
   11MOL   H146 3966   1.305   3.690   1.059  0.7931  0.7563  0.6570
   11MOL   H147 3967   1.313   3.532   1.231 -0.8685  0.3373  0.0278
   11MOL   H148 3968   1.198   3.729   1.348  0.0669  0.8439  0.2482
   11MOL   H149 3969   1.355   3.770   1.398  0.1505 -0.6975  0.2276
   11MOL   H150 3970   1.204   3.523   1.476 -1.0443  1.2471 -0.6867
   11MOL   H151 3971   1.360   3.559   1.537  0.0097  0.5833  2.8536
   11MOL   H152 3972   1.501   3.466   1.341  0.1074  0.6975 -0.8979
   11MOL   H153 3973   1.555   3.629   1.367  0.5057 -0.4143  1.8622
   11MOL   C154 3974   1.209   3.685   1.624  0.0134 -0.1897  0.1142
   11MOL   C155 3975   1.316   3.783   1.685  0.1984  1.0120  0.1413
   11MOL   C156 3976   1.369   3.712   1.808 -0.3986  0.2095 -0.2910
   11MOL   C157 3977   1.255   3.629   1.858  0.4239  0.9160 -0.2510
   11MOL   C158 3978   1.291   3.512   1.949 -0.7960 -0.8443 -0.5241
   11MOL   C159 3979   1.384   3.544   2.070  0.3529  0.3655 -0.6719
   11MOL   C160 3980   1.161   3.594   1.736 -0.0868 -0.0513 -0.7987
   11MOL   H161 3981   1.124   3.741   1.585 -0.3997 -2.0005 -1.6410
   11MOL   H162 3982   1.395   3.810   1.616  0.2183  0.1596 -0.1716
   11MOL   H163 3983   1.268   3.874   1.721 -0.8411  0.3667  0.4378
   11MOL   H164 3984   1.443   3.640   1.773 -0.7429  0.9251 -2.5815
   11MOL   H165 3985   1.418   3.782   1.876  0.5656  1.6987 -2.4531
   11MOL   H166 3986   1.197   3.694   1.924 -0.0852  0.1506  0.0663
   11MOL   H167 3987   1.348   3.438   1.891  0.3971 -0.5707  0.2762
   11MOL   H168 3988   1.201   3.467   1.991 -0.6093 -0.4120  0.3481
   11MOL   H169 3989   1.471   3.593   2.026 -0.2217  0.2359 -1.9717
   11MOL   H170 3990   1.333   3.615   2.135  1.1742 -0.9778  1.4692
   11MOL   H171 3991   1.059   3.628   1.755 -0.5700 -1.9464  0.0697
   11MOL   H172 3992   1.168   3.488   1.715  0.6909 -0.2971  0.6287
   11MOL   C173 3993   1.426   3.429   2.165 -0.1982 -0.2511 -0.3927
   11MOL   C174 3994   1.516   3.478   2.284 -0.2134  0.3319  0.1600
   11MOL   C175 3995   1.483   3.388   2.401 -0.3382 -0.4718 -0.1827
   11MOL   C176 3996   1.378   3.283   2.358 -0.3267 -0.2954  0.0544
   11MOL   C177 3997   1.279   3.230   2.467  0.0656 -0.2275 -0.0516
   11MOL   C178 3998   1.185   3.121   2.410  0.7393  0.0982  0.0800
   11MOL   C179 3999   1.316   3.348   2.234 -0.4272  1.2490  0.2694
   11MOL   H180 4000   1.487   3.354   2.115  1.2060 -0.5473  1.6729
   11MOL   H181 4001   1.497   3.580   2.317  0.8273  1.0891 -1.4620
   11MOL   H182 4002   1.622   3.476   2.257  0.1902  4.8453  1.0852
   11MOL   H183 4003   1.572   3.344   2.446  1.0533  1.9515 -0.4878
   11MOL   H184 4004   1.439   3.449   2.479 -3.7182 -1.3963 -1.2824
   11MOL   H185 4005   1.433   3.195   2.322  1.2280  0.9147 -0.5837
   11MOL   H186 4006   1.218   3.308   2.510 -0.1046 -1.3593  1.8059
   11MOL   H187 4007   1.339   3.192   2.550 -1.9162 -0.0522  1.4800
   11MOL   H188 4008   1.234   3.038   2.359 -1.6024  0.4398 -2.8766
   11MOL   H189 4009   1.115   3.181   2.351  1.1765  0.0277 -0.5163
   11MOL   H190 4010   1.238   3.421   2.259 -0.3425  1.0951  0.9945
   11MOL   H191 4011   1.276   3.280   2.159  0.4694  0.6109  0.3736
   11MOL   C192 4012   1.094   3.046   2.513 -0.0312 -0.3083 -0.4170
   11MOL   C193 4013   0.995   2.951   2.445 -0.4282  0.1017  0.7947
   11MOL   C194 4014   0.882   2.936   2.550  0.3898  0.1626 -0.0238
   11MOL   C195 4015   0.862   3.080   2.610  0.4504  0.5685  0.0009
   11MOL   C196 4016   0.784   3.079   2.744 -0.3741  0.2489  1.4280
   11MOL   C197 4017   0.724   3.217   2.778 -0.7188 -0.0261  0.1390
   11MOL   C198 4018   0.999   3.137   2.605  0.2220  0.0981 -0.4064
   11MOL   H199 4019   1.165   2.988   2.571  0.2260 -1.1870 -1.5847
   11MOL   H200 4020   0.957   2.984   2.349  3.3796 -1.0519 -1.1988
   11MOL   H201 4021   1.036   2.850   2.439  0.2089  0.4102 -0.2500
   11MOL   H202 4022   0.908   2.863   2.627 -2.7623 -0.8127  0.1813
   11MOL   H203 4023   0.796   2.895   2.496  1.3608  1.4523 -2.6380
   11MOL   H204 4024   0.806   3.132   2.532 -0.3588  1.0605  0.8997
   11MOL   H205 4025   0.841   3.026   2.820 -0.1211  1.4858  2.1094
   11MOL   H206 4026   0.689   3.025   2.734 -0.4145  0.6954 -0.9152
   11MOL   H207 4027   0.633   3.224   2.719 -1.7284  0.0902  1.7045
   11MOL   H208 4028   0.782   3.306   2.752  1.2781 -1.3241 -0.0110
   11MOL   H209 4029   1.053   3.123   2.698 -1.5468 -0.5047  0.5435
   11MOL   H210 4030   0.997   3.242   2.577  1.1867  0.6660  1.5599
   11MOL   C211 4031   0.685   3.215   2.931 -0.2275  0.0503  1.0878
   11MOL   C212 4032   0.583   3.329   2.966 -0.1330  0.6181  0.3277
   11MOL   C213 4033   0.635   3.389   3.100  0.2907  0.2928 -0.5140
   11MOL   C214 4034   0.782   3.361   3.099  0.2917 -0.0487 -0.4308
   11MOL   C215 4035   0.850   3.476   3.016  0.0413  0.5702  0.5871
   11MOL   C216 4036   1.008   3.465   3.006  0.1201  0.2192  0.5127
   11MOL   C217 4037   0.797   3.230   3.028  0.4807  0.5866 -0.4087
   11MOL   H218 4038   0.624   3.125   2.942 -1.5902  0.9705  1.1341
   11MOL   H219 4039   0.576   3.404   2.888 -2.8059 -0.0861 -0.1538
   11MOL   H220 4040   0.481   3.295   2.980 -0.3787  0.0476 -2.5260
   11MOL   H221 4041   0.607   3.493   3.115 -0.0243 -0.3038  3.4488
   11MOL   H222 4042   0.599   3.336   3.188 -0.7859 -1.1033 -1.7714
   11MOL   H223 4043   0.824   3.357   3.199 -0.7075 -0.7884 -0.0322
   11MOL   H224 4044   0.824   3.570   3.065 -1.8087  0.7914 -0.7515
   11MOL   H225 4045   0.804   3.484   2.918 -1.3094  0.8309  1.2326
   11MOL   H226 4046   1.057   3.489   3.101  1.3763 -1.8138  0.4202
   11MOL   H227 4047   1.042   3.363   2.991 -1.4865 -0.2584  0.0463
   11MOL   H228 4048   0.785   3.150   3.100 -0.2775  0.0063 -1.1732
   11MOL   H229 4049   0.895   3.210   2.984  0.7148 -1.0719  0.8214
   11MOL   C230 4050   1.053   3.569   2.901 -0.4321  0.0805 -0.2818
   11MOL   C231 4051   1.034   3.511   2.760  0.5205 -0.7331  0.8374
   11MOL   C232 4052   1.143   3.579   2.675 -0.0020 -0.8942  0.0584
   11MOL   C233 4053   1.257   3.627   2.762 -0.6470 -0.8973 -0.4589
   11MOL   C234 4054   1.303   3.770   2.724  0.2307  0.6578  0.9582
   11MOL   C235 4055   1.397   3.763   2.603  1.2581  0.8081  0.4425
   11MOL   C236 4056   1.200   3.617   2.909  0.2890 -0.5754  0.2251
   11MOL   H237 4057   0.998   3.662   2.883 -1.3279 -0.5287 -0.7472
   11MOL   H238 4058   1.056   3.404   2.754 -2.1253 -1.3985  2.1173
   11MOL   H239 4059   0.937   3.517   2.710  0.2153 -2.7441  1.1220
   11MOL   H240 4060   1.096   3.658   2.617 -1.9468 -2.8889 -1.2014
   11MOL   H241 4061   1.183   3.514   2.597  1.1271  1.4377 -1.3428
   11MOL   H242 4062   1.338   3.554   2.760 -0.8451 -1.1969  1.4635
   11MOL   H243 4063   1.351   3.825   2.805  1.0410 -1.0093  1.6393
   11MOL   H244 4064   1.216   3.829   2.695  0.3668 -1.0305 -3.1693
   11MOL   H245 4065   1.492   3.716   2.628  1.2639 -1.3191 -3.2655
   11MOL   H246 4066   1.355   3.691   2.533 -1.4305  4.0431 -1.4266
   11MOL   H247 4067   1.200   3.709   2.966 -4.1645 -0.1618 -0.3066
   11MOL   H248 4068   1.261   3.550   2.970  0.5154 -1.7670 -1.2815
   11MOL   C249 4069   1.405   3.891   2.525  0.8798  0.3724  0.2355
   11MOL   C250 4070   1.500   3.990   2.590  0.2792 -0.7228 -0.1297
   11MOL   C251 4071   1.641   3.948   2.555  0.4650 -0.4614 -0.2595
   11MOL   C252 4072   1.630   3.886   2.411  0.9430  0.1691  0.1050
   11MOL   C253 4073   1.702   3.957   2.295 -0.4073  0.0122  0.2686
   11MOL   C254 4074   1.678   3.889   2.159  0.0985  0.0205  0.1676
   11MOL   C255 4075   1.477   3.885   2.391  0.1785 -0.4345  0.1599
   11MOL   H256 4076   1.308   3.938   2.511  0.8028  1.2736  3.3249
   11MOL   H257 4077   1.487   4.093   2.559  2.9645 -0.2244  0.3013
   11MOL   H258 4078   1.491   3.997   2.699 -1.8411  1.9935 -0.4485
   11MOL   H259 4079   1.686   3.874   2.621 -1.3570 -1.5798 -0.2214
   11MOL   H260 4080   1.705   4.035   2.567  0.6889 -0.9651  2.4030
   11MOL   H261 4081   1.660   3.781   2.418  1.3977  0.3428  0.8040
   11MOL   H262 4082   1.810   3.954   2.312 -0.1584  0.4211 -1.1178
   11MOL   H263 4083   1.665   4.060   2.302 -0.3657  0.0925 -0.6501
   11MOL   H264 4084   1.574   3.901   2.128 -0.3414 -1.0389  1.1643
   11MOL   H265 4085   1.697   3.782   2.173 -1.2785 -0.2644 -0.1134
   11MOL   H266 4086   1.444   3.807   2.322 -1.7797 -0.1523  0.7461
   11MOL   H267 4087   1.447   3.979   2.345 -1.1553  0.1389  2.1256
   11MOL   C268 4088   1.770   3.935   2.045  0.4224  0.5732  0.0418
   11MOL   C269 4089   1.756   4.089   2.015  0.3017 -0.1889 -0.2204
   11MOL   C270 4090   1.743   4.100   1.864 -0.1650 -0.6210  0.0757
   11MOL   C271 4091   1.769   3.957   1.804  0.3348 -0.2203 -0.7223
   11MOL   C272 4092   1.690   3.942   1.676  0.9034 -0.0660  0.6132
   11MOL   C273 4093   1.727   3.818   1.587  0.1266 -0.0423 -0.1134
   11MOL   C274 4094   1.734   3.861   1.912 -0.1721 -0.3558  0.0039
   11MOL   H275 4095   1.873   3.927   2.077  1.0637  0.3398 -1.9799
   11MOL   H276 4096   1.664   4.131   2.057 -0.1503  1.1212 -2.4623
   11MOL   H277 4097   1.839   4.154   2.044  1.8766 -2.2032 -0.0684
   11MOL   H278 4098   1.643   4.139   1.843  0.8146  3.0108  1.6554
   11MOL   H279 4099   1.819   4.167   1.825 -1.3096 -0.0373 -1.2407
   11MOL   H280 4100   1.872   3.943   1.772  1.1491  4.4177 -0.4005
   11MOL   H281 4101   1.707   4.031   1.616  1.3428  0.3455  1.3359
   11MOL   H282 4102   1.582   3.947   1.689  1.1521 -1.7287  3.6415
   11MOL   H283 4103   1.719   3.731   1.651  1.8492 -1.2486 -1.4688
   11MOL   H284 4104   1.651   3.800   1.511 -0.5495  0.2359  0.4975
   11MOL   H285 4105   1.628   3.840   1.900 -0.4056  2.0768 -2.8041
   11MOL   H286 4106   1.793   3.770   1.898 -0.1653 -0.0162 -2.2735
   11MOL   C287 4107   1.862   3.841   1.511  0.3366 -0.2010  0.0495
   11MOL   C288 4108   1.920   3.717   1.448  0.5273  0.5477  0.6471
   11MOL   C289 4109   1.984   3.768   1.317  0.4552  0.8840 -0.2185
   11MOL   C290 4110   1.995   3.919   1.338 -0.6655  0.3156  0.5433
   11MOL   C291 4111   2.016   3.997   1.202  0.6771 -0.4495  0.6801
   11MOL   C292 4112   2.020   4.153   1.230  0.3892  0.4975  0.7867
   11MOL   C293 4113   1.868   3.953   1.410  0.2645  0.0258 -0.2263
   11MOL   H294 4114   1.942   3.867   1.580  1.6390  1.7048 -2.0931
   11MOL   H295 4115   1.987   3.656   1.507  0.5285 -0.6041 -0.5104
   11MOL   H296 4116   1.843   3.645   1.418  1.6190 -0.6995  0.7615
   11MOL   H297 4117   1.941   3.746   1.219  2.7439  1.5732 -1.4014
   11MOL   H298 4118   2.083   3.727   1.296  1.2188  2.1521  0.7923
   11MOL   H299 4119   2.082   3.950   1.396  0.4794  4.0934 -2.9733
   11MOL   H300 4120   1.948   3.960   1.125  0.6344  2.8022 -0.9383
   11MOL   H301 4121   2.113   3.963   1.165  0.8574 -0.3066  1.0193
   11MOL   H302 4122   2.101   4.183   1.296 -0.1424 -2.0555  2.6915
   11MOL   H303 4123   1.929   4.187   1.278  0.2701 -0.2450  1.0869
   11MOL   H304 4124   1.776   3.954   1.353 -1.4262 -0.4525  2.3927
   11MOL   H305 4125   1.868   4.050   1.460 -0.8365 -0.6352  1.0797
   11MOL   C306 4126   2.032   4.232   1.097  0.8874 -0.5794 -0.3328
   11MOL   C307 4127   2.016   4.383   1.105 -0.2329  0.4220 -0.4547
   11MOL   C308 4128   2.105   4.438   0.988 -0.2992 -0.3137 -0.2232
   11MOL   C309 4129   2.180   4.313   0.927 -0.1286 -0.1152  0.5264
   11MOL   C310 4130   2.334   4.351   0.888  0.0867  0.4862 -0.2336
   11MOL   C311 4131   2.361   4.476   0.797  0.1827 -0.7635  0.1665
   11MOL   C312 4132   2.169   4.204   1.033  0.1829  0.2666  0.1001
   11MOL   H313 4133   1.945   4.204   1.038  0.3689  0.4752 -0.0905
   11MOL   H314 4134   1.916   4.422   1.087 -0.9898 -1.4762 -0.4562
   11MOL   H315 4135   2.052   4.420   1.201  0.7232  0.0504 -0.6691
   11MOL   H316 4136   2.058   4.477   0.898  0.3555 -2.1043 -1.3586
   11MOL   H317 4137   2.178   4.505   1.033 -0.1379 -0.5950 -0.0611
   11MOL   H318 4138   2.134   4.266   0.839 -1.8140  0.2916  1.1771
   11MOL   H319 4139   2.391   4.361   0.980 -0.2146 -1.5936  0.1981
   11MOL   H320 4140   2.380   4.260   0.848 -2.0943 -1.5099  1.7315
   11MOL   H321 4141   2.313   4.573   0.808  1.8339  0.1350 -0.3185
   11MOL   H322 4142   2.306   4.446   0.707 -2.0719 -0.9537  1.5822
   11MOL   H323 4143   2.260   4.204   1.092  0.3905  0.3495 -0.2223
   11MOL   H324 4144   2.182   4.115   0.971  3.0118  0.5060  0.2920
   11MOL   C325 4145   2.510   4.485   0.757 -0.5443  0.1794 -0.4612
   11MOL   C326 4146   2.535   4.592   0.649  0.0675 -0.2354  0.0808
   11MOL   C327 4147   2.673   4.642   0.687 -0.4772  0.1331 -0.8645
   11MOL   C328 4148   2.669   4.661   0.842  0.1761  0.5359  0.2150
   11MOL   C329 4149   2.803   4.674   0.921 -0.3398  0.0887  0.0730
   11MOL   C330 4150   2.919   4.582   0.875 -0.5434  0.2027  0.1284
   11MOL   C331 4151   2.601   4.528   0.876 -0.0498 -0.2052  0.3327
   11MOL   H332 4152   2.547   4.389   0.721  0.2588  0.2311  0.2171
   11MOL   H333 4153   2.466   4.677   0.651  0.5694  0.1749 -0.0523
   11MOL   H334 4154   2.536   4.541   0.553  1.0151  0.6646 -0.3859
   11MOL   H335 4155   2.754   4.575   0.659  0.9829  0.1092  3.0781
   11MOL   H336 4156   2.687   4.738   0.637 -0.8517  0.6081 -0.0718
   11MOL   H337 4157   2.610   4.750   0.862 -0.0427  0.5321 -0.4135
   11MOL   H338 4158   2.844   4.771   0.890 -0.8771  0.4741  0.5499
   11MOL   H339 4159   2.787   4.666   1.028 -0.8164 -0.6754 -0.0571
   11MOL   H340 4160   2.903   4.475   0.889  1.8946  0.0215  1.8310
   11MOL   H341 4161   2.928   4.596   0.767  1.3426 -1.6806  0.0097
   11MOL   H342 4162   2.558   4.535   0.977 -0.1295 -1.0891  0.3606
   11MOL   H343 4163   2.679   4.454   0.891  0.0160 -0.3577 -0.7681
   11MOL   C344 4164   3.058   4.608   0.941 -0.3099  0.5441  0.0970
   11MOL   C345 4165   3.108   4.755   0.939 -0.0284 -0.2825 -0.2934
   11MOL   C346 4166   3.257   4.737   0.955  0.4283 -0.1083 -1.0373
   11MOL   C347 4167   3.298   4.599   0.900  0.3289  0.0453  0.3146
   11MOL   C348 4168   3.395   4.524   0.995  0.4067 -0.2043  0.8921
   11MOL   C349 4169   3.474   4.415   0.922  0.1443  0.8736  0.2600
   11MOL   C350 4170   3.162   4.518   0.883  0.3684 -0.0304 -0.0373
   11MOL   H351 4171   3.057   4.581   1.046 -0.1426  0.8092  0.1658
   11MOL   H352 4172   3.067   4.818   1.018 -0.2794  1.5395 -1.8459
   11MOL   H353 4173   3.089   4.800   0.842  1.0723  1.8449  0.4429
   11MOL   H354 4174   3.324   4.807   0.905 -0.5887  0.0876 -2.1688
   11MOL   H355 4175   3.268   4.751   1.062 -0.6184  0.5880 -1.0107
   11MOL   H356 4176   3.344   4.624   0.805 -0.2942 -0.6479 -0.1690
   11MOL   H357 4177   3.459   4.608   1.021  2.7569 -1.5889 -0.3248
   11MOL   H358 4178   3.340   4.490   1.083 -0.0688 -0.5465  0.4699
   11MOL   H359 4179   3.526   4.459   0.837 -1.2766 -1.0557 -1.6862
   11MOL   H360 4180   3.401   4.341   0.887  0.9175  0.1500  0.1456
   11MOL   H361 4181   3.146   4.507   0.776 -1.1109 -0.3384  0.2096
   11MOL   H362 4182   3.172   4.428   0.944  3.0255  1.0125  1.1618
   11MOL   C363 4183   3.584   4.351   1.008 -0.4705  0.4431 -0.3237
   11MOL   C364 4184   3.668   4.261   0.920  0.3871 -0.3188 -0.1001
   11MOL   C365 4185   3.696   4.133   0.995 -0.2455 -0.2608 -0.0826
   11MOL   C366 4186   3.632   4.150   1.132  1.1312 -0.3996  0.3179
   11MOL   C367 4187   3.586   4.015   1.196 -0.4698  0.2307 -0.2007
   11MOL   C368 4188   3.563   4.026   1.350  0.1645  0.4183  0.2790
   11MOL   C369 4189   3.524   4.259   1.113 -0.6889  0.2186 -0.5000
   11MOL   H370 4190   3.649   4.425   1.055 -0.0225 -0.1416 -0.0126
   11MOL   H371 4191   3.612   4.241   0.828  0.9413 -1.1898 -0.2483
   11MOL   H372 4192   3.760   4.309   0.885  0.3392  0.6948  1.1287
   11MOL   H373 4193   3.653   4.053   0.935  1.3953 -0.2377 -1.3534
   11MOL   H374 4194   3.798   4.102   1.021  0.2981  0.9611 -0.7382
   11MOL   H375 4195   3.705   4.202   1.194  0.8495 -2.0643  2.1103
   11MOL   H376 4196   3.496   3.977   1.146 -0.1595 -2.3989  1.1676
   11MOL   H377 4197   3.668   3.945   1.177 -2.1843 -1.9068  0.0227
   11MOL   H378 4198   3.551   3.922   1.380 -3.2816  0.7223  0.1995
   11MOL   H379 4199   3.481   4.084   1.391 -1.0396 -1.4103  0.5558
   11MOL   H380 4200   3.428   4.224   1.074  0.4014 -2.2345 -1.0392
   11MOL   H381 4201   3.491   4.318   1.199  0.2899 -0.9961  0.7312
   11MOL   H382 4202   3.660   4.054   1.389 -0.6402  0.1288  2.5174
   12MOL     C1 4203   0.368   1.328   6.825 -0.2636 -0.2771  0.0039
   12MOL     C2 4204   0.365   1.439   6.944 -0.0984 -0.5880 -0.1061
   12MOL     C3 4205   0.474   1.379   7.036  0.1856 -0.6031 -0.8531
   12MOL     C4 4206   0.476   1.224   7.015 -0.0545  0.3602 -0.2291
   12MOL     C5 4207   0.384   1.142   7.116  0.0407  0.8297 -0.1485
   12MOL     C6 4208   0.416   1.156   7.260 -0.5852 -0.3748  0.0754
   12MOL     C7 4209   0.444   1.199   6.871 -0.1295  0.5392  0.0816
   12MOL     H8 4210   0.263   1.307   6.804 -0.2519  0.5069 -0.8545
   12MOL     H9 4211   0.264   1.430   6.982  0.2944  2.1246  1.7276
   12MOL    H10 4212   0.383   1.539   6.906 -1.4371 -0.0269  0.7396
   12MOL    H11 4213   0.574   1.414   7.011  0.1269 -0.2867 -0.6586
   12MOL    H12 4214   0.449   1.417   7.136  1.5038 -1.2163 -0.2840
   12MOL    H13 4215   0.575   1.188   7.043  0.0451  0.9388  0.1854
   12MOL    H14 4216   0.283   1.171   7.091  0.6488  1.6976 -1.6433
   12MOL    H15 4217   0.396   1.035   7.101  1.5317  0.9928 -0.2131
   12MOL    H16 4218   0.519   1.126   7.281 -0.3697 -1.3218 -2.1001
   12MOL    H17 4219   0.414   1.261   7.289 -1.3002 -1.2768  3.4093
   12MOL    H18 4220   0.536   1.173   6.819 -1.1628 -0.3243 -1.3371
   12MOL    H19 4221   0.371   1.120   6.854 -0.5500  0.8947  0.2202
   12MOL    H20 4222   0.416   1.370   6.737  2.1919 -1.6072  0.6483
   12MOL    C21 4223   0.338   1.074   7.359  0.0817 -0.2227 -0.7658
   12MOL    C22 4224   0.351   1.093   7.510 -0.7094  0.0368  0.7324
   12MOL    C23 4225   0.217   1.080   7.577  0.2345  0.4144 -0.5385
   12MOL    C24 4226   0.137   1.016   7.462 -0.8450 -0.5400 -0.0271
   12MOL    C25 4227   7.633   1.038   7.473 -0.0939  0.3103  0.4072
   12MOL    C26 4228   7.570   0.975   7.593  0.1094 -0.3423  1.0910
   12MOL    C27 4229   0.189   1.078   7.335  0.3782 -0.7476 -0.0917
   12MOL    H28 4230   0.375   0.974   7.336  3.1734  0.5981  0.4940
   12MOL    H29 4231   0.425   1.028   7.557 -0.1676 -0.5510 -0.9067
   12MOL    H30 4232   0.381   1.195   7.533 -0.5855 -0.0977  1.1709
   12MOL    H31 4233   0.220   1.012   0.015 -0.9631 -0.9483 -1.5634
   12MOL    H32 4234   0.176   1.180   7.594 -1.4510 -0.1540 -1.1681
   12MOL    H33 4235   0.169   0.913   7.445 -3.1258 -0.7949 -3.1559
   12MOL    H34 4236   7.592   0.999   7.380 -0.2653 -0.7942  0.9382
   12MOL    H35 4237   7.609   1.145   7.470  1.2675  0.6084 -0.1753
   12MOL    H36 4238   7.463   0.997   7.594 -0.0146 -0.9276  2.4639
   12MOL    H37 4239   7.612   1.040   0.023 -1.1908  0.7763  0.8744
   12MOL    H38 4240   0.153   1.027   7.246  0.7967 -0.6161 -0.3386
   12MOL    H39 4241   0.171   1.185   7.328  0.5316 -0.4594  3.1692
   12MOL    C40 4242   7.592   0.823   7.620 -0.3281 -0.1111  0.5147
   12MOL    C41 4243   7.531   0.783   0.112 -0.1259  0.7337 -0.4193
   12MOL    C42 4244   7.408   0.701   0.080  0.4398  0.4230  0.4755
   12MOL    C43 4245   7.421   0.656   7.585 -0.0917 -0.1802  0.1131
   12MOL    C44 4246   7.409   0.506   7.577 -0.4558  0.4250 -0.3363
   12MOL    C45 4247   7.395   0.443   7.437  0.6981  0.2279 -0.0290
   12MOL    C46 4248   7.535   0.722   7.516  0.2815 -0.4213  0.3849
   12MOL    H47 4249   0.050   0.804   7.644 -0.3255 -0.5928  0.1341
   12MOL    H48 4250   7.529   0.863   0.186  0.7903  0.4091 -0.0321
   12MOL    H49 4251   7.603   0.718   0.162 -1.2147 -0.8175 -0.8361
   12MOL    H50 4252   7.381   0.626   0.155  0.1011 -1.4902 -1.5185
   12MOL    H51 4253   7.322   0.768   0.085  0.2976  0.1234  2.2864
   12MOL    H52 4254   7.337   0.692   7.525  0.7208  1.3116 -0.1527
   12MOL    H53 4255   7.492   0.456   7.627 -0.1691  1.3591  0.1252
   12MOL    H54 4256   7.315   0.485   7.627  0.1707  1.9726  1.5498
   12MOL    H55 4257   7.470   0.488   7.372 -0.9382  2.2446 -0.5950
   12MOL    H56 4258   7.298   0.471   7.395 -0.6647 -2.8598  0.9362
   12MOL    H57 4259   7.613   0.648   7.495 -0.2927 -0.5682 -1.2132
   12MOL    H58 4260   7.504   0.767   7.422  0.8571 -1.5337 -0.3520
   12MOL    C59 4261   7.418   0.290   7.432  0.1829 -0.3075 -0.4561
   12MOL    C60 4262   7.292   0.221   7.481 -0.6416  0.3633  0.5800
   12MOL    C61 4263   7.264   0.089   7.420 -0.3679 -0.3485  0.1861
   12MOL    C62 4264   7.307   0.131   7.276  0.7278 -0.0484 -0.1318
   12MOL    C63 4265   7.346   0.020   7.181  0.2351 -0.2426  0.8688
   12MOL    C64 4266   7.229   7.561   7.170  0.1854  0.3242  0.2693
   12MOL    C65 4267   7.420   0.231   7.289  0.3825  0.0104  0.2317
   12MOL    H66 4268   7.500   0.255   7.494 -0.3083  1.8358  1.4971
   12MOL    H67 4269   7.287   0.207   7.589  0.8264  1.1676  0.7728
   12MOL    H68 4270   7.209   0.291   7.475  0.8534  2.0283 -1.4596
   12MOL    H69 4271   7.329   0.019   7.473  0.4868  1.2062  1.2136
   12MOL    H70 4272   7.159   0.064   7.431  0.0505 -2.0403  0.5326
   12MOL    H71 4273   7.217   0.171   7.228  0.1814 -0.0152  0.9101
   12MOL    H72 4274   7.433   7.607   7.208  2.2030  2.7603  1.3240
   12MOL    H73 4275   7.361   0.064   7.083 -2.0805 -2.8430 -0.7504
   12MOL    H74 4276   7.213   7.513   7.267 -0.9084 -0.0612 -0.0972
   12MOL    H75 4277   7.131   7.607   7.158  0.4994  1.3941  1.6507
   12MOL    H76 4278   7.512   0.173   7.280  0.4478  0.3555 -1.4912
   12MOL    H77 4279   7.430   0.307   7.211 -0.1965 -0.3822 -0.2297
   12MOL    C78 4280   7.260   7.443   7.077 -0.1327  0.3306  0.3776
   12MOL    C79 4281   7.171   7.319   7.103 -0.0295  0.0083  0.6996
   12MOL    C80 4282   7.120   7.271   6.965 -0.3206  0.3801 -0.2039
   12MOL    C81 4283   7.219   7.341   6.866 -0.0735 -0.8741  0.6272
   12MOL    C82 4284   7.157   7.360   6.722 -0.3647 -0.7049  0.1515
   12MOL    C83 4285   7.256   7.433   6.621 -0.3890  0.2596 -0.0926
   12MOL    C84 4286   7.252   7.484   6.930  0.3510  0.7510 -0.8704
   12MOL    H85 4287   7.367   7.424   7.088 -0.0039  0.8198 -0.0180
   12MOL    H86 4288   7.234   7.248   7.156  0.3356 -1.6434 -1.8473
   12MOL    H87 4289   7.090   7.352   7.167  0.2633  0.0065  1.0681
   12MOL    H88 4290   7.110   7.164   6.947  1.6606 -0.0217  0.9433
   12MOL    H89 4291   7.025   7.323   6.953 -0.1821  0.4317 -1.0730
   12MOL    H90 4292   7.306   7.277   6.853 -0.4203 -1.0223 -1.0614
   12MOL    H91 4293   7.061   7.411   6.726  0.8682  1.6863  0.3552
   12MOL    H92 4294   7.144   7.261   6.681  1.0470 -1.4930  1.5319
   12MOL    H93 4295   7.351   7.379   6.616 -0.0311  0.8907 -0.1130
   12MOL    H94 4296   7.284   7.532   6.657 -1.3019  0.2575  0.6122
   12MOL    H95 4297   7.166   7.549   6.917 -1.0763 -1.1640 -1.1725
   12MOL    H96 4298   7.342   7.529   6.889  1.4105 -1.3794 -0.9660
   12MOL    C97 4299   7.204   7.448   6.480 -0.6838  0.1329 -0.1712
   12MOL    C98 4300   7.314   7.510   6.390 -0.4849 -0.0042 -0.2128
   12MOL    C99 4301   7.248   7.630   6.323  0.5817 -0.0130 -0.4769
   12MOL   C100 4302   7.097   7.610   6.336  0.4882  0.2813  0.3847
   12MOL   C101 4303   7.013   0.089   6.339  0.2561  1.0191  0.0915
   12MOL   C102 4304   7.004   0.161   6.200 -0.2124  0.3454 -0.8958
   12MOL   C103 4305   7.079   7.542   6.475 -0.8229 -0.0521 -0.9268
   12MOL   H104 4306   7.177   7.351   6.438 -1.1777  0.3564 -0.3796
   12MOL   H105 4307   7.405   7.533   6.445 -0.9381 -0.6947  0.8455
   12MOL   H106 4308   7.346   7.454   6.302 -2.3912  1.9909 -2.2155
   12MOL   H107 4309   7.279   0.074   6.374 -1.1331  0.1431  0.3206
   12MOL   H108 4310   7.267   7.644   6.217  0.1120 -2.8430 -0.9603
   12MOL   H109 4311   7.064   7.534   6.265  0.2830 -0.5464  1.3488
   12MOL   H110 4312   6.910   0.083   6.373 -0.2140 -0.9644 -1.6250
   12MOL   H111 4313   7.067   0.151   6.412 -0.0831  1.3283  0.0830
   12MOL   H112 4314   6.967   0.259   6.230  0.3334 -0.4690  2.7223
   12MOL   H113 4315   7.097   0.181   6.149 -0.1894  0.3028 -0.8704
   12MOL   H114 4316   7.093   7.628   6.540  0.0503  0.5773 -1.9227
   12MOL   H115 4317   6.981   7.501   6.496 -0.7533 -0.4674 -1.3965
   12MOL   C116 4318   6.893   0.104   6.112 -0.4517 -0.6841  0.2505
   12MOL   C117 4319   6.884   0.184   5.983  0.3629 -0.3918 -0.0043
   12MOL   C118 4320   6.837   0.088   5.873 -0.0593  0.6582 -0.5864
   12MOL   C119 4321   6.822   7.597   5.936  1.0222  0.2456  0.2277
   12MOL   C120 4322   6.855   7.468   5.854  0.5031 -0.1471 -0.1303
   12MOL   C121 4323   6.797   7.469   5.717  1.1130 -0.1304 -0.8915
   12MOL   C122 4324   6.895   7.600   6.069  0.1005  0.0239 -0.2063
   12MOL   H123 4325   6.796   0.136   6.151 -0.8157  0.0796 -1.2486
   12MOL   H124 4326   6.980   0.227   5.955  0.5113 -1.0806 -0.5706
   12MOL   H125 4327   6.814   0.264   6.009 -0.2345 -1.1962  0.9234
   12MOL   H126 4328   6.917   0.086   5.798 -0.0026  2.8308 -0.6115
   12MOL   H127 4329   6.746   0.131   5.829 -0.2926 -0.4799 -1.2595
   12MOL   H128 4330   6.715   7.595   5.959  0.7332  1.8101 -0.8831
   12MOL   H129 4331   6.805   7.387   5.907  0.0571 -0.2404 -0.6854
   12MOL   H130 4332   6.963   7.453   5.861  0.4304 -0.2303  0.8945
   12MOL   H131 4333   6.873   7.518   5.655  1.5624 -1.7476 -1.6358
   12MOL   H132 4334   6.698   7.512   5.705  0.7489  0.0723  2.3435
   12MOL   H133 4335   6.857   7.535   6.148 -2.3443  0.2860 -1.1066
   12MOL   H134 4336   7.000   7.576   6.052 -0.0645 -2.0883  1.5804
   12MOL   C135 4337   6.794   7.333   5.659  0.2595  0.8307 -0.5419
   12MOL   C136 4338   6.740   7.327   5.517 -0.0192  0.1574  0.7354
   12MOL   C137 4339   6.780   7.190   5.480  0.3541 -0.4570 -0.4958
   12MOL   C138 4340   6.925   7.173   5.529  0.1935 -0.3063  0.2319
   12MOL   C139 4341   6.965   7.027   5.557  0.4182 -0.2933 -0.1649
   12MOL   C140 4342   7.104   7.020   5.631  0.2654 -0.6469  0.2826
   12MOL   C141 4343   6.931   7.257   5.654 -0.0273  0.0326  0.3217
   12MOL   H142 4344   6.713   7.276   5.705  1.1552  0.0562  0.0813
   12MOL   H143 4345   6.632   7.330   5.501 -0.0664 -1.5485  0.6439
   12MOL   H144 4346   6.791   7.393   5.447 -1.4867  0.0055 -0.5222
   12MOL   H145 4347   6.706   7.119   5.516  1.6165 -0.5270  2.1427
   12MOL   H146 4348   6.781   7.193   5.371  0.4260  2.0510 -0.4656
   12MOL   H147 4349   6.996   7.213   5.457  1.6803 -3.9581 -0.4813
   12MOL   H148 4350   6.977   6.974   5.463  0.2550 -1.0349  0.2252
   12MOL   H149 4351   6.883   6.968   5.597 -0.9021  1.8855  0.3964
   12MOL   H150 4352   7.094   7.060   5.732 -0.5857  3.3472 -1.2847
   12MOL   H151 4353   7.126   6.917   5.661  0.7169 -0.5806  0.1836
   12MOL   H152 4354   7.013   7.328   5.644 -0.7041  1.2410  2.8393
   12MOL   H153 4355   6.931   7.196   5.744 -0.6631 -1.0343 -0.3963
   12MOL   C154 4356   7.226   7.090   5.565 -0.6232 -0.2073 -0.5617
   12MOL   C155 4357   7.282   7.023   5.440  0.4230 -0.9159  0.0371
   12MOL   C156 4358   7.431   7.060   5.426  0.2219  0.3585 -0.1557
   12MOL   C157 4359   7.462   7.139   5.559 -0.0695  0.5115 -0.1775
   12MOL   C158 4360   7.601   7.096   5.605 -0.3613 -0.1020  0.3767
   12MOL   C159 4361   0.018   7.184   5.717  0.0126 -0.2847  0.1061
   12MOL   C160 4362   7.344   7.099   5.657  0.2463  0.3456  0.8494
   12MOL   H161 4363   7.206   7.195   5.541 -1.0699  0.2392  1.6987
   12MOL   H162 4364   7.275   6.917   5.464  2.2614 -0.5761  2.2824
   12MOL   H163 4365   7.220   7.047   5.353 -0.9927  0.2498  1.3342
   12MOL   H164 4366   7.503   6.980   5.414 -0.7913 -0.6580  0.4055
   12MOL   H165 4367   7.451   7.126   5.341  2.3571 -1.2520 -0.9521
   12MOL   H166 4368   7.457   7.242   5.526  1.0662  0.5426 -0.2803
   12MOL   H167 4369   0.028   7.094   5.526  0.4768  0.8241  1.1286
   12MOL   H168 4370   7.600   6.989   5.627  1.2083 -0.1157  0.4603
   12MOL   H169 4371   0.010   7.290   5.693  1.3872 -0.6834 -2.2356
   12MOL   H170 4372   7.605   7.169   5.806  1.2967  0.6637  1.1608
   12MOL   H171 4373   7.340   7.180   5.730  3.4702  1.0825  0.2967
   12MOL   H172 4374   7.364   7.013   5.722  1.3314 -0.8303 -0.9912
   12MOL   C173 4375   0.156   7.155   5.760  0.2753 -0.2325  0.0445
   12MOL   C174 4376   0.259   7.156   5.646 -0.1417  0.8565  1.0252
   12MOL   C175 4377   0.394   7.198   5.707 -0.6642  0.5631 -0.3277
   12MOL   C176 4378   0.364   7.290   5.823 -0.3623  0.2266  0.1112
   12MOL   C177 4379   0.377   7.440   5.782 -0.1143  0.2507 -0.0008
   12MOL   C178 4380   0.374   7.540   5.897 -0.0588 -0.0404 -0.9002
   12MOL   C179 4381   0.221   7.249   5.867  0.2916 -0.7055  0.4266
   12MOL   H180 4382   0.172   7.057   5.803 -0.7076 -0.2175  0.4469
   12MOL   H181 4383   0.229   7.230   5.572 -1.4726  0.3518  1.0463
   12MOL   H182 4384   0.267   7.062   5.591  0.5124 -0.6744  3.6855
   12MOL   H183 4385   0.453   7.117   5.749  0.0339  1.8974  1.2858
   12MOL   H184 4386   0.462   7.248   5.637  0.1190 -1.9948 -1.4328
   12MOL   H185 4387   0.430   7.269   5.908  0.2668 -2.5849 -1.0140
   12MOL   H186 4388   0.302   7.465   5.707  1.3966  0.8213 -1.3561
   12MOL   H187 4389   0.471   7.458   5.729  0.3560  0.2741  0.8389
   12MOL   H188 4390   0.435   7.508   5.981 -0.7413  0.7540 -0.0902
   12MOL   H189 4391   0.274   7.547   5.940  0.6075 -2.5479  1.1546
   12MOL   H190 4392   0.164   7.342   5.875  1.1962 -0.1494  0.4241
   12MOL   H191 4393   0.215   7.191   5.959 -2.0145 -3.2322 -1.2229
   12MOL   C192 4394   0.408   0.041   5.856  0.1489 -0.4052  0.9758
   12MOL   C193 4395   0.424   0.141   5.967  0.0657  0.5113 -0.7322
   12MOL   C194 4396   0.422   0.273   5.895 -0.3417  0.1891 -0.6878
   12MOL   C195 4397   0.314   0.250   5.792  0.5263  0.0120 -0.0095
   12MOL   C196 4398   0.325   0.347   5.680 -0.8621 -0.6176  0.2342
   12MOL   C197 4399   0.292   0.486   5.716  0.6196 -0.1508 -0.0578
   12MOL   C198 4400   0.316   0.104   5.756 -0.1919  0.5740  0.2882
   12MOL   H199 4401   0.509   0.034   5.817 -0.1902  0.3222 -0.0616
   12MOL   H200 4402   0.340   0.133   6.036 -1.1215 -2.1150 -2.4061
   12MOL   H201 4403   0.525   0.131   6.007 -1.0684 -0.1123  2.0538
   12MOL   H202 4404   0.517   0.287   5.843  0.7662 -0.1120  1.2170
   12MOL   H203 4405   0.407   0.365   5.951 -0.9782 -1.5079  1.9873
   12MOL   H204 4406   0.217   0.266   5.837  0.1027  0.9441 -1.2277
   12MOL   H205 4407   0.253   0.323   5.601  0.6652 -1.7988 -0.8443
   12MOL   H206 4408   0.425   0.336   5.638 -0.4621  0.2897  0.9394
   12MOL   H207 4409   0.337   0.520   5.809 -2.9822  1.8787  1.0461
   12MOL   H208 4410   0.185   0.486   5.735  0.9413 -1.6090  1.8859
   12MOL   H209 4411   0.345   0.086   5.652 -0.2558 -1.4360  0.6075
   12MOL   H210 4412   0.216   0.063   5.764 -0.9349  1.7128 -2.7257
   12MOL   C211 4413   0.317   0.580   5.594 -0.2846  0.2964 -0.2518
   12MOL   C212 4414   0.466   0.604   5.587 -0.2325  0.3658  0.2718
   12MOL   C213 4415   0.488   0.758   5.581 -0.1861 -0.3553 -0.9241
   12MOL   C214 4416   0.352   0.809   5.536  0.0132  0.4828 -0.2512
   12MOL   C215 4417   0.330   0.955   5.554 -0.2512 -0.4513 -0.3334
   12MOL   C216 4418   0.198   1.014   5.506  0.6583 -0.1586  0.2756
   12MOL   C217 4419   0.258   0.721   5.610 -0.2098 -0.7160 -0.0763
   12MOL   H218 4420   0.288   0.531   5.501  3.3841 -1.6735 -0.4664
   12MOL   H219 4421   0.507   0.582   5.685 -0.6909 -1.4707  0.0611
   12MOL   H220 4422   0.511   0.544   5.509 -0.5689 -0.4796  0.7288
   12MOL   H221 4423   0.523   0.803   5.674  0.9879 -0.2634 -1.4072
   12MOL   H222 4424   0.570   0.796   5.521 -1.6891 -0.0941 -2.8622
   12MOL   H223 4425   0.357   0.793   5.429  0.4746  2.1780 -0.4989
   12MOL   H224 4426   0.416   1.001   5.505 -0.8538  1.6693  0.5585
   12MOL   H225 4427   0.333   0.978   5.661 -0.2997 -0.7112 -0.2773
   12MOL   H226 4428   0.198   0.995   5.398  2.4075  0.1626  0.1932
   12MOL   H227 4429   0.119   0.948   5.542  0.0158  0.0549 -0.7278
   12MOL   H228 4430   0.159   0.717   5.565 -1.0888  1.9768  1.5253
   12MOL   H229 4431   0.260   0.747   5.716 -1.5505 -0.4837 -0.1106
   12MOL   C230 4432   0.168   1.165   5.541 -0.3097  0.4564 -0.7129
   12MOL   C231 4433   0.028   1.203   5.502  0.4024 -0.3886  0.0807
   12MOL   C232 4434   0.014   1.346   5.496  0.4475 -0.0123 -0.2106
   12MOL   C233 4435   0.158   1.388   5.440  0.8945 -0.4765 -0.4157
   12MOL   C234 4436   0.199   1.524   5.489  0.0302 -0.4414 -0.5261
   12MOL   C235 4437   0.339   1.563   5.442  0.2977  1.2822  0.3521
   12MOL   C236 4438   0.259   1.273   5.485 -0.6779  1.1513 -0.1501
   12MOL   H237 4439   0.172   1.172   5.650  0.2365  0.1647 -0.7152
   12MOL   H238 4440   0.004   1.159   5.405  0.3582 -2.8281  1.1683
   12MOL   H239 4441   7.604   1.165   5.575 -0.0636  1.0005  0.3620
   12MOL   H240 4442   7.634   1.385   5.594 -0.4663  0.6207 -0.7114
   12MOL   H241 4443   7.594   1.389   5.422 -0.2410  1.2331  1.1142
   12MOL   H242 4444   0.157   1.374   5.332 -2.0646 -1.6045 -0.2893
   12MOL   H243 4445   0.203   1.534   5.598  0.9070 -0.9901 -0.5007
   12MOL   H244 4446   0.134   1.604   5.455  0.4169  0.5259  0.9529
   12MOL   H245 4447   0.409   1.492   5.487 -0.6703  0.9230  1.3052
   12MOL   H246 4448   0.349   1.537   5.337  3.0542 -2.1278  1.3498
   12MOL   H247 4449   0.335   1.312   5.553 -0.5541  1.9624 -0.7523
   12MOL   H248 4450   0.313   1.233   5.399 -0.3622 -1.1009  1.0555
   12MOL   C249 4451   0.385   1.715   5.449  0.3707  0.6312 -0.2385
   12MOL   C250 4452   0.379   1.789   5.584 -0.0423 -0.6672  0.6220
   12MOL   C251 4453   0.517   1.766   5.640 -0.2183 -0.2917  0.5339
   12MOL   C252 4454   0.614   1.769   5.522 -0.1569  0.1760  0.4749
   12MOL   C253 4455   0.701   1.896   5.527  1.3100  0.5257 -0.8628
   12MOL   C254 4456   0.802   1.914   5.414  0.2787  0.7415 -1.0602
   12MOL   C255 4457   0.529   1.745   5.400 -0.2732 -0.1610 -0.0585
   12MOL   H256 4458   0.315   1.763   5.380  1.2765 -0.5866 -2.0410
   12MOL   H257 4459   0.367   1.895   5.565  1.8985 -0.9791 -2.6791
   12MOL   H258 4460   0.296   1.759   5.647 -0.3021 -1.9401 -0.3059
   12MOL   H259 4461   0.528   1.670   5.689 -1.0531 -0.3716  0.5612
   12MOL   H260 4462   0.542   1.838   5.718  1.2197 -0.5527  0.3306
   12MOL   H261 4463   0.682   1.688   5.546 -0.2194  0.4159  1.4992
   12MOL   H262 4464   0.762   1.882   5.616 -0.3133  0.4152  0.2657
   12MOL   H263 4465   0.638   1.986   5.533  2.4204  1.1717  1.5859
   12MOL   H264 4466   0.738   1.930   5.327  0.4623 -1.8566 -1.7034
   12MOL   H265 4467   0.864   1.826   5.402 -1.2393 -0.6388  0.9048
   12MOL   H266 4468   0.567   1.665   5.336  1.3440  0.9175 -0.4914
   12MOL   H267 4469   0.525   1.835   5.339  1.2169  1.0488  1.5794
   12MOL   C268 4470   0.888   2.042   5.439 -0.1355  0.5223 -0.1827
   12MOL   C269 4471   0.958   2.081   5.313 -0.3994 -0.3348  0.6971
   12MOL   C270 4472   1.072   2.162   5.365 -0.3591 -0.6559  0.0746
   12MOL   C271 4473   1.089   2.146   5.522  0.4607  0.4331  0.4098
   12MOL   C272 4474   1.240   2.112   5.550  0.0718  0.4589  0.1001
   12MOL   C273 4475   1.333   2.232   5.554  0.0914  1.2762  0.0099
   12MOL   C274 4476   0.993   2.035   5.548  0.3371 -0.3562  0.6714
   12MOL   H275 4477   0.834   2.133   5.463 -0.3295  0.5812 -0.8381
   12MOL   H276 4478   0.983   1.995   5.252 -0.5307  0.3166 -0.2910
   12MOL   H277 4479   0.887   2.141   5.255 -1.1332 -2.2416 -0.4019
   12MOL   H278 4480   1.167   2.146   5.314  0.7735 -0.1630  1.9727
   12MOL   H279 4481   1.055   2.267   5.342 -0.5917 -1.0736 -1.7065
   12MOL   H280 4482   1.043   2.229   5.575 -1.2981 -0.4927  0.3572
   12MOL   H281 4483   1.269   2.051   5.464 -4.2956 -0.3333 -0.9523
   12MOL   H282 4484   1.242   2.057   5.644 -3.4664 -0.9780 -0.5684
   12MOL   H283 4485   1.350   2.269   5.453  4.9890 -1.5929 -0.3669
   12MOL   H284 4486   1.288   2.313   5.612 -3.4036 -2.0941  2.2597
   12MOL   H285 4487   1.047   1.941   5.537 -1.6737 -1.2376 -1.9894
   12MOL   H286 4488   0.946   2.034   5.646  1.2275 -1.7851  1.1036
   12MOL   C287 4489   1.471   2.188   5.600 -0.4719 -0.0051 -0.8312
   12MOL   C288 4490   1.590   2.287   5.579 -0.3082 -0.0182 -0.4283
   12MOL   C289 4491   1.678   2.284   5.705 -0.4437  0.5251  0.5581
   12MOL   C290 4492   1.631   2.155   5.777 -0.0136  0.3570  0.4276
   12MOL   C291 4493   1.659   2.151   5.926 -0.5760 -0.1948  0.3378
   12MOL   C292 4494   1.639   2.016   5.996 -0.1978 -0.2926 -0.1528
   12MOL   C293 4495   1.484   2.152   5.750 -0.1344  0.2726 -0.3262
   12MOL   H294 4496   1.496   2.097   5.545  2.9678  0.5340 -0.2760
   12MOL   H295 4497   1.643   2.241   5.496  1.0499  1.5908 -0.4753
   12MOL   H296 4498   1.555   2.386   5.551  0.2203  0.2530 -0.1255
   12MOL   H297 4499   1.655   2.365   5.774  0.2452  0.0606  1.3366
   12MOL   H298 4500   1.787   2.287   5.700 -0.2899 -2.6619  1.0958
   12MOL   H299 4501   1.680   2.065   5.739 -0.0700 -0.0927  1.3974
   12MOL   H300 4502   1.609   2.232   5.979 -0.5197  3.2647 -4.6549
   12MOL   H301 4503   1.765   2.175   5.933 -0.2938 -1.2688 -0.1935
   12MOL   H302 4504   1.557   1.964   5.946 -1.4761  0.4105  1.1303
   12MOL   H303 4505   1.605   2.038   6.098  1.6026  0.5930  0.2599
   12MOL   H304 4506   1.438   2.225   5.816 -0.0026  0.3122 -0.2789
   12MOL   H305 4507   1.441   2.054   5.772 -1.2931  0.1366 -3.0442
   12MOL   C306 4508   1.770   1.929   6.000 -0.1967 -0.0641 -0.2218
   12MOL   C307 4509   1.873   1.979   6.107  0.1099 -0.2091 -0.4791
   12MOL   C308 4510   1.957   1.863   6.156 -0.0563 -0.4763  0.4306
   12MOL   C309 4511   1.897   1.737   6.086  0.5504 -0.1351  0.6964
   12MOL   C310 4512   1.887   1.621   6.179  0.6841 -0.4198 -0.6883
   12MOL   C311 4513   1.856   1.488   6.116 -0.3369  0.0218  0.0721
   12MOL   C312 4514   1.757   1.779   6.036 -0.5490  0.3091 -0.7399
   12MOL   H313 4515   1.819   1.940   5.903 -0.8139  0.5359 -0.4745
   12MOL   H314 4516   1.935   2.054   6.057 -1.5420  0.5417 -1.4454
   12MOL   H315 4517   1.828   2.040   6.185  3.2216 -0.3677  1.5281
   12MOL   H316 4518   2.063   1.878   6.136  0.5831 -0.2391  3.6425
   12MOL   H317 4519   1.951   1.863   6.265  0.7086  1.0115  0.4742
   12MOL   H318 4520   1.964   1.718   6.003  0.9208  1.2585  0.6646
   12MOL   H319 4521   1.987   1.614   6.223  0.5077  1.1556 -0.0091
   12MOL   H320 4522   1.810   1.637   6.254  0.0976 -2.3887 -0.8386
   12MOL   H321 4523   1.947   1.456   6.066  0.9582  1.8505  1.1747
   12MOL   H322 4524   1.780   1.502   6.039 -0.1186  0.8009 -0.0086
   12MOL   H323 4525   1.684   1.763   6.115 -0.4158  2.2496 -0.2099
   12MOL   H324 4526   1.728   1.716   5.952  1.2847 -0.7909 -0.5803
   12MOL   C325 4527   1.830   1.376   6.219 -0.3002  0.1783  1.0418
   12MOL   C326 4528   1.756   1.261   6.157 -0.1898  0.1234  0.2717
   12MOL   C327 4529   1.814   1.135   6.224 -0.2383 -0.0964  0.6260
   12MOL   C328 4530   1.959   1.172   6.268 -0.7489 -1.0393 -0.1181
   12MOL   C329 4531   1.997   1.087   6.389 -0.3705  0.5545  0.0963
   12MOL   C330 4532   2.147   1.094   6.421 -0.3353  0.0735  0.1034
   12MOL   C331 4533   1.956   1.321   6.301 -0.3099  0.3455 -0.0549
   12MOL   H332 4534   1.773   1.427   6.297 -2.0209 -0.8603  0.4888
   12MOL   H333 4535   1.763   1.261   6.048 -3.5476  1.0814 -0.0177
   12MOL   H334 4536   1.648   1.269   6.173 -0.1147 -0.5937  1.1270
   12MOL   H335 4537   1.746   1.113   6.306 -1.3913 -0.2247 -0.3503
   12MOL   H336 4538   1.821   1.053   6.153 -0.1752  0.3912  0.0701
   12MOL   H337 4539   2.028   1.158   6.186 -1.1610 -0.5935 -0.5396
   12MOL   H338 4540   1.935   1.105   6.477 -0.4323 -1.7191  0.5548
   12MOL   H339 4541   1.981   0.979   6.383  0.5655  0.5203 -2.2367
   12MOL   H340 4542   2.201   1.038   6.345  0.8770  1.7493 -0.2834
   12MOL   H341 4543   2.182   1.197   6.419 -0.9322  0.2554 -1.3084
   12MOL   H342 4544   2.038   1.387   6.271 -0.0951  0.6955  1.2847
   12MOL   H343 4545   1.933   1.335   6.406  0.5398  1.3272  0.0054
   12MOL   C344 4546   2.183   1.037   6.563  0.7693 -0.4641 -0.4178
   12MOL   C345 4547   2.126   1.125   6.676 -0.0754  0.3440 -0.0415
   12MOL   C346 4548   2.231   1.118   6.786 -0.4353  0.2575  0.6889
   12MOL   C347 4549   2.368   1.108   6.706 -0.1378  0.5614 -0.3843
   12MOL   C348 4550   2.490   1.067   6.782 -0.2057  0.4210  0.3929
   12MOL   C349 4551   2.622   1.112   6.708 -0.7560  0.2799  0.6919
   12MOL   C350 4552   2.336   1.015   6.582 -0.4307  0.5714  1.2530
   12MOL   H351 4553   2.127   0.947   6.586  0.7797 -0.1827  0.7170
   12MOL   H352 4554   2.024   1.097   6.701 -1.2713  2.7591 -2.0564
   12MOL   H353 4555   2.096   1.224   6.641 -0.0867  0.1763 -0.5111
   12MOL   H354 4556   2.233   1.207   6.849  1.6814 -0.4300  1.6447
   12MOL   H355 4557   2.212   1.027   6.844 -1.1026  0.5786  0.9753
   12MOL   H356 4558   2.378   1.207   6.661 -1.1495  0.1783 -1.5076
   12MOL   H357 4559   2.483   1.107   6.884  1.9751 -0.7581  1.0184
   12MOL   H358 4560   2.500   0.961   6.805  0.3273  0.3885  0.0151
   12MOL   H359 4561   2.629   1.215   6.674  1.2150 -0.3648 -0.9709
   12MOL   H360 4562   2.628   1.060   6.612 -1.7435  0.7878  0.3522
   12MOL   H361 4563   2.401   1.026   6.496  1.5357  1.0620  2.7760
   12MOL   H362 4564   2.355   0.910   6.605  2.5288  1.0932  1.3173
   12MOL   C363 4565   2.745   1.095   6.792  0.7679  0.3874  0.1243
   12MOL   C364 4566   2.758   1.203   6.900 -0.7974  0.2178  0.0470
   12MOL   C365 4567   2.903   1.261   6.899  0.3580  0.3956 -0.1747
   12MOL   C366 4568   2.986   1.184   6.797 -0.1171  0.2561  0.2156
   12MOL   C367 4569   3.093   1.269   6.719 -0.6434 -0.2008  0.3018
   12MOL   C368 4570   3.205   1.316   6.807 -0.6015 -0.1437  0.1835
   12MOL   C369 4571   2.876   1.124   6.713 -0.7307  0.0652  0.3598
   12MOL   H370 4572   2.750   0.997   6.840 -0.8932  0.5352  0.6059
   12MOL   H371 4573   2.690   1.286   6.883  0.7386  1.4637 -0.1735
   12MOL   H372 4574   2.743   1.171   7.004 -1.5105  1.9693  0.5081
   12MOL   H373 4575   2.914   1.367   6.877  0.0115  0.1084 -1.7932
   12MOL   H374 4576   2.957   1.253   6.993  1.0146 -1.4716 -0.6933
   12MOL   H375 4577   3.039   1.107   6.853  0.3726  0.9459  0.7303
   12MOL   H376 4578   3.137   1.203   6.644 -1.9886 -0.7373 -0.0269
   12MOL   H377 4579   3.053   1.354   6.663  0.6512 -1.3758 -2.4810
   12MOL   H378 4580   3.256   1.233   6.856 -0.6513  1.0666  2.3792
   12MOL   H379 4581   3.174   1.387   6.884 -0.1671 -0.3550  0.5587
   12MOL   H380 4582   2.851   1.205   6.646  0.2230  0.1068  0.0457
   12MOL   H381 4583   2.914   1.042   6.651  0.0462  1.8731 -1.6161
   12MOL   H382 4584   3.284   1.365   6.750 -3.1745  4.1438  0.0776
   13MOL     C1 4585   5.099   5.098   6.458 -0.3257 -0.2265  0.5593
   13MOL     C2 4586   5.175   5.223   6.404  0.4854 -0.2432  0.5125
   13MOL     C3 4587   5.324   5.189   6.416 -0.6592 -0.9060  0.4222
   13MOL     C4 4588   5.331   5.036   6.405 -0.2605  0.2948  0.2421
   13MOL     C5 4589   5.462   4.971   6.457  0.0688 -0.1051 -0.2272
   13MOL     C6 4590   5.471   4.825   6.446 -0.5301  0.6637 -1.2445
   13MOL     C7 4591   5.203   4.990   6.471  0.7037  0.5242  0.4907
   13MOL     H8 4592   5.058   5.124   6.556  0.9228 -0.1925  1.0827
   13MOL     H9 4593   5.168   5.316   6.460 -0.2976  0.6564 -1.0341
   13MOL    H10 4594   5.144   5.244   6.301  0.8214 -1.5610  0.1404
   13MOL    H11 4595   5.383   5.229   6.333  0.0396 -0.7043  1.0126
   13MOL    H12 4596   5.366   5.215   6.513  3.1506 -1.7521 -0.9020
   13MOL    H13 4597   5.324   5.014   6.298 -0.6824  0.7651  0.1708
   13MOL    H14 4598   5.556   4.994   6.406 -0.0446 -0.6269 -0.6805
   13MOL    H15 4599   5.479   5.012   6.557  1.5862  0.8706 -0.8587
   13MOL    H16 4600   5.566   4.815   6.498 -0.7722  1.4825 -0.6391
   13MOL    H17 4601   5.409   4.766   6.512  2.1290 -1.4085 -0.4918
   13MOL    H18 4602   5.160   4.896   6.435  1.4876 -0.8217  2.9472
   13MOL    H19 4603   5.217   4.969   6.577 -0.8406  0.1866  0.6520
   13MOL    H20 4604   5.020   5.076   6.386 -2.0137  1.7033  1.7957
   13MOL    C21 4605   5.470   4.760   6.308  0.1021  0.8743  0.6782
   13MOL    C22 4606   5.578   4.814   6.205 -0.7958  0.1917  0.1817
   13MOL    C23 4607   5.627   4.694   6.122  0.1423 -0.2303  0.2930
   13MOL    C24 4608   5.535   4.578   6.174  0.2007 -0.2886 -0.1524
   13MOL    C25 4609   5.598   4.439   6.162  0.8504  0.4242 -0.0399
   13MOL    C26 4610   5.639   4.387   6.022 -0.7151  0.4912 -0.3910
   13MOL    C27 4611   5.501   4.611   6.323  0.6262  0.3966 -0.1630
   13MOL    H28 4612   5.366   4.764   6.278  0.6452  1.8347 -1.1495
   13MOL    H29 4613   5.547   4.905   6.153 -2.6871 -0.7885 -0.4427
   13MOL    H30 4614   5.662   4.844   6.268 -0.7430  2.2164 -0.8119
   13MOL    H31 4615   5.608   4.719   6.017  0.7940 -1.7845 -0.1930
   13MOL    H32 4616   5.732   4.667   6.121  0.1621 -0.1666  0.5280
   13MOL    H33 4617   5.444   4.586   6.114 -0.0311  0.5129  0.2942
   13MOL    H34 4618   5.529   4.370   6.210 -1.1778  1.0895 -1.9090
   13MOL    H35 4619   5.681   4.437   6.232  0.3908  2.9047  0.6456
   13MOL    H36 4620   5.738   4.432   6.006  0.2505 -1.8553 -1.1674
   13MOL    H37 4621   5.567   4.410   5.944 -0.8028 -0.6992 -0.6633
   13MOL    H38 4622   5.411   4.557   6.353 -0.9692  1.9391 -2.0556
   13MOL    H39 4623   5.590   4.598   6.385  1.6090  0.6667 -1.4756
   13MOL    C40 4624   5.659   4.238   6.026 -0.0122  0.1302 -0.2891
   13MOL    C41 4625   5.540   4.154   6.058 -0.3126  0.1129 -0.5521
   13MOL    C42 4626   5.577   4.016   6.016  0.3134  0.9373  0.0615
   13MOL    C43 4627   5.686   4.026   5.903 -0.1890  0.4257  0.0077
   13MOL    C44 4628   5.806   3.930   5.909 -0.2398 -0.6982 -0.1995
   13MOL    C45 4629   5.772   3.783   5.890  0.2379  0.2024 -0.2530
   13MOL    C46 4630   5.728   4.182   5.899 -0.5734  0.4162 -0.6150
   13MOL    H47 4631   5.735   4.223   6.103  0.0575  0.2479 -0.3355
   13MOL    H48 4632   5.450   4.188   6.005 -0.1575 -0.0385 -0.9089
   13MOL    H49 4633   5.511   4.155   6.163  1.7685 -1.1167  0.0409
   13MOL    H50 4634   5.616   3.956   6.099 -1.3578 -0.7372 -0.3348
   13MOL    H51 4635   5.487   3.961   5.990  1.3350 -0.4032 -0.7794
   13MOL    H52 4636   5.626   4.001   5.815  2.2592  0.6157 -1.7788
   13MOL    H53 4637   5.874   3.948   5.826 -0.5092 -0.5021 -0.3786
   13MOL    H54 4638   5.845   3.958   6.007  1.2252  1.4056 -1.3223
   13MOL    H55 4639   5.723   3.760   5.795 -0.3238  1.6481 -0.3172
   13MOL    H56 4640   5.708   3.758   5.974  0.3549 -0.4649 -0.3567
   13MOL    H57 4641   5.832   4.215   5.898 -0.2961 -0.4361  0.0122
   13MOL    H58 4642   5.671   4.233   5.821 -0.8966 -0.0508 -0.6891
   13MOL    C59 4643   5.895   3.680   5.905  0.4761 -0.5416 -0.8566
   13MOL    C60 4644   5.857   3.531   5.941 -0.2773  0.2809 -0.3570
   13MOL    C61 4645   5.955   3.456   5.850  0.1522 -1.2418 -0.2153
   13MOL    C62 4646   5.959   3.538   5.721  1.1347  0.2826  0.0504
   13MOL    C63 4647   6.072   3.506   5.621  0.2766 -0.1534 -0.6975
   13MOL    C64 4648   6.027   3.524   5.477  0.2488  0.3888  0.0023
   13MOL    C65 4649   5.970   3.680   5.777  0.4122  0.1562  0.3988
   13MOL    H66 4650   5.953   3.705   5.994 -0.0069 -1.5667 -0.2404
   13MOL    H67 4651   5.869   3.509   6.047  0.6527 -2.5957 -1.0147
   13MOL    H68 4652   5.760   3.504   5.899  0.6243 -0.8399 -1.7803
   13MOL    H69 4653   6.049   3.438   5.903  1.5385  2.8532 -1.1020
   13MOL    H70 4654   5.916   3.354   5.845 -2.5404 -0.2152 -0.7977
   13MOL    H71 4655   5.865   3.521   5.668  1.7564 -1.0424 -0.6332
   13MOL    H72 4656   6.105   3.405   5.645 -1.6668 -0.8298 -0.7694
   13MOL    H73 4657   6.166   3.559   5.634 -1.0077  1.3387  3.3664
   13MOL    H74 4658   5.952   3.449   5.454 -0.2296  0.9921 -0.4255
   13MOL    H75 4659   5.976   3.620   5.466  0.5860  0.3751 -1.8255
   13MOL    H76 4660   6.075   3.698   5.801  0.6059 -1.1335  0.5500
   13MOL    H77 4661   5.956   3.759   5.703 -0.2836  0.7997  1.2068
   13MOL    C78 4662   6.142   3.503   5.371  0.1794  0.0199 -0.1367
   13MOL    C79 4663   6.080   3.518   5.232 -0.5772  0.4303 -0.5419
   13MOL    C80 4664   6.135   3.653   5.185 -0.4379  0.0233  0.1580
   13MOL    C81 4665   6.280   3.646   5.239  0.5907  0.0786 -0.3096
   13MOL    C82 4666   6.359   3.780   5.225  0.0069 -0.9338 -0.4871
   13MOL    C83 4667   6.502   3.767   5.266  0.1774 -0.1650 -0.1388
   13MOL    C84 4668   6.257   3.607   5.380  0.3311 -0.3468  0.1706
   13MOL    H85 4669   6.189   3.405   5.373 -0.2249 -0.1623  0.8804
   13MOL    H86 4670   6.107   3.431   5.173  0.0266  1.2343 -1.4714
   13MOL    H87 4671   5.971   3.516   5.235 -0.5119 -2.0679  1.1079
   13MOL    H88 4672   6.142   3.666   5.077  0.9839  0.7427  0.3220
   13MOL    H89 4673   6.073   3.729   5.231 -0.9127 -1.1703  1.5268
   13MOL    H90 4674   6.342   3.573   5.187  1.8117  1.2354 -0.5195
   13MOL    H91 4675   6.310   3.864   5.275  2.6584  0.6992 -0.5381
   13MOL    H92 4676   6.346   3.821   5.125  1.8794  2.8050  0.7266
   13MOL    H93 4677   6.545   3.695   5.197  1.2902  0.7038 -0.3620
   13MOL    H94 4678   6.488   3.728   5.367 -1.3786  0.9435  0.0821
   13MOL    H95 4679   6.228   3.694   5.438 -2.3483 -2.0478  1.4739
   13MOL    H96 4680   6.343   3.561   5.429  0.9050  2.3887  1.8252
   13MOL    C97 4681   6.587   3.901   5.256 -0.2357 -0.1772 -0.3708
   13MOL    C98 4682   6.585   3.978   5.121 -0.1391  0.2953  0.7964
   13MOL    C99 4683   6.702   4.075   5.147 -0.0651 -0.0527 -0.6427
   13MOL   C100 4684   6.810   3.985   5.197 -0.7009 -1.0968  0.2026
   13MOL   C101 4685   6.893   3.918   5.080  0.8743 -0.4732 -0.1943
   13MOL   C102 4686   7.015   3.835   5.131 -0.1709  0.0909 -0.3699
   13MOL   C103 4687   6.734   3.882   5.285  0.1726 -0.8056 -0.7283
   13MOL   H104 4688   6.542   3.973   5.325 -0.4215 -1.3435  0.7419
   13MOL   H105 4689   6.605   3.911   5.037 -3.3766 -0.8644  0.8791
   13MOL   H106 4690   6.491   4.032   5.110 -0.2357 -0.0624 -0.2531
   13MOL   H107 4691   6.730   4.124   5.054 -2.6239  0.1092 -1.3797
   13MOL   H108 4692   6.688   4.149   5.225  2.8236 -1.4059  1.2390
   13MOL   H109 4693   6.870   4.051   5.259 -2.0984  0.7606 -0.4028
   13MOL   H110 4694   6.832   3.850   5.020 -0.1369  0.1431  0.1259
   13MOL   H111 4695   6.921   4.002   5.016 -0.5694 -1.3489 -2.0255
   13MOL   H112 4696   7.082   3.902   5.184 -0.2969 -0.7345  0.8766
   13MOL   H113 4697   6.978   3.760   5.202 -1.2670  0.9556 -0.0014
   13MOL   H114 4698   6.775   3.782   5.273  0.3923 -0.9591  1.1197
   13MOL   H115 4699   6.744   3.891   5.393  2.5771  0.3155 -1.0144
   13MOL   C116 4700   7.105   3.773   5.020  0.4652  0.1807 -0.5152
   13MOL   C117 4701   7.238   3.719   5.068 -0.1649  0.1922 -0.2881
   13MOL   C118 4702   7.239   3.569   5.041 -0.4749  0.1455  0.0192
   13MOL   C119 4703   7.134   3.534   4.936  0.5924  0.0318  0.3919
   13MOL   C120 4704   7.066   3.395   4.940 -0.4023 -0.8109  0.4229
   13MOL   C121 4705   6.971   3.382   4.815  1.0067  0.2383  0.7773
   13MOL   C122 4706   7.040   3.648   4.953 -0.1057  0.5325 -1.1469
   13MOL   H123 4707   7.127   3.853   4.950  0.7264  3.6785  3.3937
   13MOL   H124 4708   7.256   3.743   5.173 -2.0102 -0.2853  0.1599
   13MOL   H125 4709   7.327   3.763   5.021 -0.9602  0.7358 -1.3072
   13MOL   H126 4710   7.218   3.522   5.137  0.3105 -1.9657 -0.7958
   13MOL   H127 4711   7.341   3.543   5.011 -0.9419 -0.0529 -1.4694
   13MOL   H128 4712   7.172   3.549   4.835 -0.5013  3.8689  0.4880
   13MOL   H129 4713   6.998   3.388   5.024 -0.1915  1.9540  0.8854
   13MOL   H130 4714   7.150   3.327   4.946  0.2975 -0.1128 -1.0137
   13MOL   H131 4715   6.910   3.469   4.792  0.6704 -0.0809  0.4532
   13MOL   H132 4716   6.901   3.299   4.825  1.2452 -0.2366 -1.2377
   13MOL   H133 4717   6.991   3.668   4.858  0.3348 -1.2881 -1.7798
   13MOL   H134 4718   6.952   3.610   5.004 -0.3749  0.1263 -1.9140
   13MOL   C135 4719   7.054   3.339   4.695 -0.5711  0.3055 -0.1382
   13MOL   C136 4720   7.133   3.205   4.710 -0.7426  0.8715  0.1996
   13MOL   C137 4721   7.155   3.162   4.565 -0.0088 -0.1249 -0.3575
   13MOL   C138 4722   7.023   3.192   4.497 -0.6259  0.6089  0.5349
   13MOL   C139 4723   7.029   3.196   4.346 -0.4999  0.0586 -0.5361
   13MOL   C140 4724   7.060   3.052   4.293  0.2951 -0.1039  0.3023
   13MOL   C141 4725   6.974   3.321   4.566  0.4489 -0.3327  0.1088
   13MOL   H142 4726   7.120   3.424   4.679 -0.5188  0.8096  2.5434
   13MOL   H143 4727   7.221   3.228   4.769  0.8852 -2.3989 -0.8448
   13MOL   H144 4728   7.081   3.124   4.760  0.7089  0.2494  0.7087
   13MOL   H145 4729   7.242   3.209   4.519 -0.6142  1.0402 -0.3386
   13MOL   H146 4730   7.165   3.053   4.557 -2.5614 -0.4908  0.8340
   13MOL   H147 4731   6.959   3.106   4.518 -0.9804  0.0941 -2.4181
   13MOL   H148 4732   7.102   3.274   4.324 -0.3318  0.5621  1.6821
   13MOL   H149 4733   6.933   3.228   4.305 -1.2635 -0.9435  0.4484
   13MOL   H150 4734   7.162   3.034   4.327 -0.3821 -1.6785  1.5300
   13MOL   H151 4735   7.003   2.973   4.341 -1.5462 -0.9973 -3.1525
   13MOL   H152 4736   6.870   3.298   4.589  1.0755  0.4678  3.9703
   13MOL   H153 4737   6.979   3.412   4.505 -0.8897 -0.6608 -0.5159
   13MOL   C154 4738   7.048   3.042   4.141 -0.4523 -1.0159 -0.4905
   13MOL   C155 4739   7.069   2.904   4.099  0.1035  0.4886 -0.5413
   13MOL   C156 4740   7.107   2.917   3.954  0.4731  0.6129  0.6004
   13MOL   C157 4741   7.183   3.043   3.940  0.1727  0.6843  0.8420
   13MOL   C158 4742   7.324   3.036   3.889 -0.7613  0.1600  0.2531
   13MOL   C159 4743   7.325   2.993   3.740  0.1715  0.0527 -0.9481
   13MOL   C160 4744   7.164   3.121   4.067 -0.7486  0.3322  0.6991
   13MOL   H161 4745   6.953   3.078   4.102  0.3105  2.4039  0.6473
   13MOL   H162 4746   7.156   2.864   4.151  0.9362  1.8090 -0.8939
   13MOL   H163 4747   6.992   2.833   4.130 -2.1305  3.6730  1.4973
   13MOL   H164 4748   7.158   2.824   3.930 -2.6325 -0.5565 -1.7813
   13MOL   H165 4749   7.016   2.916   3.893  0.7521 -0.0449  0.1829
   13MOL   H166 4750   7.117   3.107   3.882 -0.7031  0.0954  1.1738
   13MOL   H167 4751   7.380   2.969   3.955 -1.6286 -1.6245 -0.7925
   13MOL   H168 4752   7.365   3.137   3.896 -1.8145  0.5008  1.9385
   13MOL   H169 4753   7.251   2.913   3.729  1.5268 -0.9805 -2.8432
   13MOL   H170 4754   7.281   3.069   3.675  2.0386  0.4561 -1.7801
   13MOL   H171 4755   7.151   3.227   4.047 -2.7728 -0.2004 -0.9394
   13MOL   H172 4756   7.248   3.121   4.137  0.3077  2.1424 -0.5440
   13MOL   C173 4757   7.461   2.950   3.693  0.5156 -0.0359 -0.2758
   13MOL   C174 4758   7.505   2.814   3.748 -0.3773 -0.4141  0.6787
   13MOL   C175 4759   7.609   2.766   3.655  0.2189 -0.0296  0.4288
   13MOL   C176 4760   7.581   2.838   3.518 -1.0638  0.4110 -0.1276
   13MOL   C177 4761   7.544   2.728   3.413 -0.1542  0.4005 -0.1413
   13MOL   C178 4762   7.581   2.773   3.270 -0.2418 -0.2025  0.3472
   13MOL   C179 4763   7.473   2.952   3.539 -0.4499 -0.3110  0.2564
   13MOL   H180 4764   7.528   3.022   3.741  0.2074  0.5762 -0.7511
   13MOL   H181 4765   7.414   2.759   3.724 -0.8160  0.5031  0.2236
   13MOL   H182 4766   7.522   2.806   3.856  0.1284  1.8880  0.7841
   13MOL   H183 4767   0.053   2.805   3.701  0.5113  0.4447 -0.5330
   13MOL   H184 4768   7.611   2.657   3.650  0.0893  0.0454 -1.9326
   13MOL   H185 4769   0.022   2.891   3.482 -1.7217  1.4276 -0.2659
   13MOL   H186 4770   7.439   2.696   3.417  0.0941 -0.2662  1.2139
   13MOL   H187 4771   7.609   2.642   3.428  2.9937  2.6074 -0.6379
   13MOL   H188 4772   0.030   2.822   3.252 -1.0788  1.0370 -0.9374
   13MOL   H189 4773   7.510   2.850   3.238 -2.1509 -2.7918 -1.9199
   13MOL   H190 4774   7.378   2.925   3.493 -1.0399 -0.2577  1.4180
   13MOL   H191 4775   7.497   3.051   3.500  0.5977 -0.7867 -0.3347
   13MOL   C192 4776   7.557   2.659   3.160  0.8907  0.0041  0.1329
   13MOL   C193 4777   0.024   2.557   3.154  0.1858 -0.1693 -0.6009
   13MOL   C194 4778   0.029   2.505   3.011  0.2876  0.2039 -0.2205
   13MOL   C195 4779   7.641   2.618   2.924  0.6505  0.5795 -0.7546
   13MOL   C196 4780   7.564   2.575   2.791  0.0899  0.0356 -0.5543
   13MOL   C197 4781   7.529   2.690   2.697 -0.5503 -0.5462 -0.4309
   13MOL   C198 4782   7.549   2.707   3.015  0.4744 -1.1152  0.3905
   13MOL   H199 4783   7.464   2.609   3.188  1.3831 -1.0291 -0.0545
   13MOL   H200 4784   0.120   2.599   3.182 -0.0010  0.9396 -1.5766
   13MOL   H201 4785   0.005   2.485   3.233 -0.4364  0.1725 -0.4344
   13MOL   H202 4786   7.593   2.437   2.988  0.2066  0.6900 -1.3840
   13MOL   H203 4787   0.122   2.454   2.985  1.3854  1.5417  1.0020
   13MOL   H204 4788   0.092   2.659   2.901  0.9764  0.6249  0.7099
   13MOL   H205 4789   7.471   2.523   2.815 -0.1960 -0.2297 -2.1608
   13MOL   H206 4790   7.628   2.508   2.733  1.2239  0.8784 -0.3127
   13MOL   H207 4791   7.621   2.748   2.693 -0.4436 -0.4889  1.7562
   13MOL   H208 4792   7.469   2.759   2.755 -0.9668  0.4602 -2.0400
   13MOL   H209 4793   7.445   2.716   2.985  0.7551 -0.4433 -0.3969
   13MOL   H210 4794   7.597   2.804   3.000 -0.7315 -0.4123  0.9901
   13MOL   C211 4795   7.468   2.657   2.566 -0.6633 -0.1022 -0.6686
   13MOL   C212 4796   7.445   2.770   2.466 -0.6091 -0.2012 -0.7275
   13MOL   C213 4797   7.329   2.724   2.382 -0.5096  0.1932 -0.0927
   13MOL   C214 4798   7.239   2.636   2.470 -0.4107 -0.0257 -0.3424
   13MOL   C215 4799   7.116   2.702   2.537 -0.3664  0.6239  0.6325
   13MOL   C216 4800   7.016   2.607   2.599 -0.7189 -0.0502 -0.6106
   13MOL   C217 4801   7.336   2.578   2.573 -0.1559 -0.0781 -0.1992
   13MOL   H218 4802   7.536   2.590   2.513 -1.0433 -1.6056  0.7087
   13MOL   H219 4803   7.419   2.855   2.529  1.1240 -0.7357  0.7448
   13MOL   H220 4804   7.533   2.797   2.406 -1.0081  1.5316 -0.5768
   13MOL   H221 4805   7.289   2.810   2.329 -2.4864  0.2940  1.5074
   13MOL   H222 4806   7.372   2.662   2.303  0.5481  0.4526  0.2835
   13MOL   H223 4807   7.213   2.551   2.407  3.3184 -1.2377 -0.3829
   13MOL   H224 4808   7.074   2.779   2.471 -1.4817 -1.8781 -1.6692
   13MOL   H225 4809   7.157   2.771   2.611  3.1150 -0.1817 -0.4105
   13MOL   H226 4810   6.989   2.546   2.513  0.3592 -0.7313 -0.4684
   13MOL   H227 4811   7.060   2.526   2.657 -0.4177 -0.5128 -1.4847
   13MOL   H228 4812   7.358   2.477   2.540  1.4038  1.7440 -5.1584
   13MOL   H229 4813   7.304   2.574   2.677 -0.0409  2.3461 -0.0294
   13MOL   C230 4814   6.890   2.669   2.652  0.6288 -0.4803 -0.1852
   13MOL   C231 4815   6.930   2.756   2.778  0.5168 -0.7165 -0.4576
   13MOL   C232 4816   6.810   2.732   2.871  0.2056 -0.8697 -1.3920
   13MOL   C233 4817   6.774   2.591   2.862  0.2492  0.2139 -0.4548
   13MOL   C234 4818   6.626   2.556   2.905 -0.0781 -0.9687 -0.3362
   13MOL   C235 4819   6.608   2.552   3.063  0.5681 -0.3906 -0.3678
   13MOL   C236 4820   6.798   2.557   2.716 -0.0508  0.3869 -0.5315
   13MOL   H237 4821   6.844   2.722   2.569 -2.3444 -4.0102 -0.9017
   13MOL   H238 4822   7.017   2.719   2.833 -0.5052 -1.3833  0.7567
   13MOL   H239 4823   6.947   2.860   2.751  1.7678  0.5730  4.6027
   13MOL   H240 4824   6.736   2.806   2.842  2.2993  1.2637 -1.3875
   13MOL   H241 4825   6.834   2.747   2.976  0.2517 -0.3308 -1.4800
   13MOL   H242 4826   6.836   2.524   2.922 -0.2388 -1.4007 -1.7139
   13MOL   H243 4827   6.612   2.456   2.863 -0.1336 -1.3696  0.6091
   13MOL   H244 4828   6.555   2.619   2.852 -1.1259 -1.0603  0.9076
   13MOL   H245 4829   6.619   2.650   3.108 -4.6969  0.2546 -0.1267
   13MOL   H246 4830   6.507   2.526   3.097  0.0212  1.7494 -0.2723
   13MOL   H247 4831   6.711   2.561   2.651 -0.4250 -1.3091 -0.1332
   13MOL   H248 4832   6.831   2.454   2.704 -2.3781 -0.2457 -1.6653
   13MOL   C249 4833   6.699   2.447   3.133  0.0571  0.3395 -0.2879
   13MOL   C250 4834   6.663   2.443   3.281 -0.3382 -0.2482  0.0838
   13MOL   C251 4835   6.719   2.312   3.332  0.9221  0.2400 -0.0360
   13MOL   C252 4836   6.695   2.218   3.213  0.0016  0.0704  0.2989
   13MOL   C253 4837   6.792   2.100   3.212 -0.0748  0.1967 -0.7890
   13MOL   C254 4838   6.790   2.016   3.344 -0.3905 -0.3644  0.2757
   13MOL   C255 4839   6.687   2.303   3.086  0.2969 -0.4198 -0.0865
   13MOL   H256 4840   6.798   2.493   3.133 -1.0186  2.8348  3.0147
   13MOL   H257 4841   6.701   2.530   3.335 -1.3770  0.2900 -0.0375
   13MOL   H258 4842   6.557   2.453   3.301  0.0295 -0.1637  2.0527
   13MOL   H259 4843   6.668   2.269   3.419  0.4223  2.2554  0.7111
   13MOL   H260 4844   6.826   2.316   3.353  0.7326  0.8669  0.8409
   13MOL   H261 4845   6.599   2.167   3.221  0.8769 -2.1173 -2.3393
   13MOL   H262 4846   6.889   2.147   3.200  0.3028 -0.3803 -0.0274
   13MOL   H263 4847   6.778   2.042   3.120 -0.8000  2.5822 -2.2204
   13MOL   H264 4848   6.824   2.080   3.426 -0.0086  2.8162 -2.2707
   13MOL   H265 4849   6.872   1.945   3.338 -0.1816 -0.3708  2.7111
   13MOL   H266 4850   6.592   2.287   3.035 -0.0042  1.1479 -0.0565
   13MOL   H267 4851   6.765   2.267   3.019  0.8790 -0.4897  0.6188
   13MOL   C268 4852   6.649   1.948   3.370  0.2577 -0.4908  0.4100
   13MOL   C269 4853   6.652   1.831   3.477 -0.2460  0.1463 -0.3557
   13MOL   C270 4854   6.535   1.736   3.437 -0.3422  0.6654 -0.7711
   13MOL   C271 4855   6.510   1.749   3.288  0.3000 -0.4060 -0.1324
   13MOL   C272 4856   6.530   1.614   3.205  0.1843  0.0210  0.1283
   13MOL   C273 4857   6.493   1.635   3.056 -0.0833  0.2016 -0.4186
   13MOL   C274 4858   6.603   1.867   3.252 -0.5622 -0.0891 -0.5759
   13MOL   H275 4859   6.571   2.016   3.404 -0.5155 -1.2427  0.1510
   13MOL   H276 4860   6.745   1.774   3.463 -1.2126 -1.3862 -0.7056
   13MOL   H277 4861   6.640   1.874   3.576  3.0379 -0.4698  0.3739
   13MOL   H278 4862   6.557   1.634   3.467 -0.2069  1.7233  2.9446
   13MOL   H279 4863   6.435   1.750   3.477 -0.4866 -1.5898 -0.2890
   13MOL   H280 4864   6.406   1.778   3.281  0.0820 -1.1546  0.0041
   13MOL   H281 4865   6.458   1.538   3.234 -1.5268  0.8798 -1.7841
   13MOL   H282 4866   6.632   1.583   3.229  0.1306  0.6870  1.2356
   13MOL   H283 4867   6.386   1.654   3.041  0.4295  0.8764 -3.6237
   13MOL   H284 4868   6.554   1.713   3.011  1.5466  1.3423  3.6296
   13MOL   H285 4869   6.692   1.817   3.214 -0.2757  0.4148 -0.5779
   13MOL   H286 4870   6.569   1.935   3.173 -1.3270 -0.2271 -0.3645
   13MOL   C287 4871   6.544   1.510   2.974 -0.1588  0.5747 -0.2126
   13MOL   C288 4872   6.471   1.375   3.003 -0.2694 -0.3587 -0.1617
   13MOL   C289 4873   6.444   1.305   2.872  0.3705 -1.1365 -0.3177
   13MOL   C290 4874   6.514   1.384   2.762  0.6970 -0.3023  0.3239
   13MOL   C291 4875   6.436   1.387   2.628 -0.2516  0.0299 -0.4564
   13MOL   C292 4876   6.403   1.242   2.575 -0.1014  0.2880 -0.3699
   13MOL   C293 4877   6.548   1.525   2.817  0.7669 -0.0246 -0.1143
   13MOL   H294 4878   6.651   1.514   2.992  0.1680  1.5101 -2.2205
   13MOL   H295 4879   6.525   1.314   3.075  0.7831  1.3976  0.5796
   13MOL   H296 4880   6.378   1.385   3.059  1.0403  2.2431  1.6302
   13MOL   H297 4881   6.338   1.295   2.850  0.0230  1.1906  0.1449
   13MOL   H298 4882   6.484   1.204   2.878  0.9720 -1.0417 -2.3544
   13MOL   H299 4883   6.602   1.324   2.736 -0.8435 -1.5000 -2.3583
   13MOL   H300 4884   6.495   1.436   2.551 -1.7476  0.5835 -1.2703
   13MOL   H301 4885   6.348   1.451   2.625  0.9028  1.6412 -0.2401
   13MOL   H302 4886   6.316   1.198   2.626 -1.3126  2.4620 -0.4865
   13MOL   H303 4887   6.483   1.173   2.599  0.6413  0.7980 -1.3469
   13MOL   H304 4888   6.479   1.600   2.778  0.7101 -1.0251 -1.9863
   13MOL   H305 4889   6.650   1.548   2.789  0.9110  0.3826  0.7224
   13MOL   C306 4890   6.377   1.236   2.424  0.6489  0.3203  0.3401
   13MOL   C307 4891   6.503   1.208   2.340  0.1137  0.0763 -0.5334
   13MOL   C308 4892   6.505   1.055   2.344 -0.0947  0.2776 -0.7345
   13MOL   C309 4893   6.353   1.015   2.320  0.0659  0.6454  0.2326
   13MOL   C310 4894   6.315   0.871   2.382 -1.1016 -0.4966  0.5621
   13MOL   C311 4895   6.172   0.832   2.340  0.1756  0.2879  0.4083
   13MOL   C312 4896   6.277   1.129   2.379 -0.2676 -0.1306 -0.6164
   13MOL   H313 4897   6.329   1.332   2.402  0.5401  0.1178 -0.2937
   13MOL   H314 4898   6.499   1.266   2.247  1.3463 -0.3634 -0.8756
   13MOL   H315 4899   6.591   1.236   2.397  2.0666 -2.4628 -2.1794
   13MOL   H316 4900   6.566   1.015   2.264  2.2761  1.2097  0.5617
   13MOL   H317 4901   6.543   1.017   2.439 -0.6081 -2.0497 -1.4228
   13MOL   H318 4902   6.322   1.006   2.216 -0.5681  1.4087  0.3475
   13MOL   H319 4903   6.385   0.793   2.352  0.3414  0.7823  0.5472
   13MOL   H320 4904   6.314   0.878   2.491 -0.2922  0.7342  0.5102
   13MOL   H321 4905   6.169   0.838   2.231 -0.6142  0.9027  0.4601
   13MOL   H322 4906   6.103   0.905   2.381  0.8229  0.5747  0.9847
   13MOL   H323 4907   6.203   1.096   2.452  0.2437  2.0873  0.9532
   13MOL   H324 4908   6.215   1.172   2.300 -0.8101  0.0145 -0.1145
   13MOL   C325 4909   6.142   0.689   2.393 -0.4108  0.1127 -0.3575
   13MOL   C326 4910   6.126   0.679   2.551 -0.0898 -0.4353 -0.0218
   13MOL   C327 4911   5.989   0.611   2.578  0.5260  0.1941 -0.0831
   13MOL   C328 4912   5.906   0.641   2.463  0.2632 -0.6876 -0.0353
   13MOL   C329 4913   5.788   0.549   2.443 -0.2904  0.6961 -0.1775
   13MOL   C330 4914   5.669   0.569   2.537  0.7064 -0.8687  0.1786
   13MOL   C331 4915   6.006   0.633   2.345  0.4540 -0.3644 -0.5287
   13MOL   H332 4916   6.223   0.623   2.363  1.5858  1.5769  1.6207
   13MOL   H333 4917   6.144   0.776   2.596 -0.1218 -0.4070 -0.0709
   13MOL   H334 4918   6.218   0.632   2.588 -1.6276 -2.8884  0.8027
   13MOL   H335 4919   6.000   0.503   2.582  0.2583  0.1515 -0.4416
   13MOL   H336 4920   5.937   0.644   2.668 -1.7601 -1.1941 -0.8716
   13MOL   H337 4921   5.875   0.746   2.460  0.3061 -0.7063 -1.4313
   13MOL   H338 4922   5.751   0.557   2.340 -1.3420 -0.3594  0.1021
   13MOL   H339 4923   5.812   0.443   2.454 -1.4014  0.3359 -1.1456
   13MOL   H340 4924   5.709   0.551   2.637 -2.0796  2.1063  1.9615
   13MOL   H341 4925   5.654   0.677   2.541  1.8776 -0.7422  1.7612
   13MOL   H342 4926   5.970   0.685   2.256 -1.5109 -1.7645 -0.5648
   13MOL   H343 4927   6.013   0.531   2.309 -0.5832 -0.3597 -0.7694
   13MOL   C344 4928   5.539   0.485   2.515  0.0760  0.0669  0.0498
   13MOL   C345 4929   5.474   0.505   2.379 -0.4587 -0.1426  0.1208
   13MOL   C346 4930   5.335   0.452   2.413 -0.9551  0.4389 -0.4749
   13MOL   C347 4931   5.307   0.510   2.549 -0.5608 -0.0984  0.3241
   13MOL   C348 4932   5.197   0.436   2.626  0.1402  0.4660  0.4255
   13MOL   C349 4933   5.066   0.424   2.553  1.0132 -0.6694  0.3648
   13MOL   C350 4934   5.433   0.526   2.624  0.4376  0.0374 -0.2654
   13MOL   H351 4935   5.574   0.382   2.514 -0.2254 -0.0389  0.4386
   13MOL   H352 4936   5.521   0.447   2.301 -0.8749  0.2550 -0.4324
   13MOL   H353 4937   5.464   0.607   2.341  0.4645 -0.9497 -2.3770
   13MOL   H354 4938   5.263   0.485   2.338 -1.0659  1.0574 -0.0924
   13MOL   H355 4939   5.334   0.344   2.400  0.7679  0.4655 -0.9912
   13MOL   H356 4940   5.276   0.614   2.536 -1.3840 -0.1464  1.7657
   13MOL   H357 4941   5.241   0.340   2.650 -0.8815  0.0513  0.6878
   13MOL   H358 4942   5.183   0.499   2.715  2.3273  1.6467 -0.0357
   13MOL   H359 4943   5.082   0.365   2.463 -1.2888 -0.4974 -0.1939
   13MOL   H360 4944   5.038   0.518   2.504 -0.5027 -0.5273  1.4875
   13MOL   H361 4945   5.454   0.629   2.655 -0.4058 -0.2101  1.1678
   13MOL   H362 4946   5.441   0.476   2.720  0.1388  1.2158  0.3921
   13MOL   C363 4947   4.952   0.365   2.624 -0.2440 -0.0380  0.3579
   13MOL   C364 4948   4.832   0.315   2.537 -0.1956 -0.7037  0.0787
   13MOL   C365 4949   4.728   0.305   2.644  0.1490 -0.1170 -0.0659
   13MOL   C366 4950   4.739   0.416   2.748 -0.4178 -0.4023  0.3576
   13MOL   C367 4951   4.645   0.532   2.700 -0.0868 -0.6014 -0.2394
   13MOL   C368 4952   4.489   0.506   2.722  0.0184  0.2264  0.3319
   13MOL   C369 4953   4.891   0.460   2.735 -0.3615  0.0180 -0.4453
   13MOL   H370 4954   4.994   0.277   2.673  1.0404  0.3325 -0.0609
   13MOL   H371 4955   4.795   0.384   2.460 -0.8472  0.4208  1.3792
   13MOL   H372 4956   4.838   0.221   2.483  0.4143 -0.7649  0.2550
   13MOL   H373 4957   4.630   0.295   2.597  0.1780  2.5800 -0.7822
   13MOL   H374 4958   4.745   0.207   2.689 -0.5413  0.0579  0.5843
   13MOL   H375 4959   4.714   0.368   2.843 -0.5212  0.4358  0.7539
   13MOL   H376 4960   4.676   0.624   2.750 -1.3247 -0.4369  0.2537
   13MOL   H377 4961   4.680   0.557   2.600  0.5746  1.7680  0.5581
   13MOL   H378 4962   4.461   0.424   2.656  1.0627  0.4525 -0.4020
   13MOL   H379 4963   4.424   0.590   2.695  0.9956  1.9261  2.9844
   13MOL   H380 4964   4.898   0.567   2.712 -0.5803  0.1447  0.0534
   13MOL   H381 4965   4.938   0.451   2.833 -1.5799 -0.0802  0.1453
   13MOL   H382 4966   4.465   0.475   2.824 -1.9574  3.7958  1.0635
   14MOL     C1 4967   4.572   4.524   5.357  0.5151 -0.0518  0.0163
   14MOL     C2 4968   4.622   4.674   5.353  0.1595  0.2388 -0.1504
   14MOL     C3 4969   4.515   4.758   5.296 -0.1485 -0.0973  0.0022
   14MOL     C4 4970   4.385   4.673   5.293  0.2027 -0.9792 -0.7034
   14MOL     C5 4971   4.278   4.732   5.193  0.2862  0.0543 -0.3458
   14MOL     C6 4972   4.300   4.702   5.044 -0.1651  0.9210 -0.0447
   14MOL     C7 4973   4.443   4.534   5.281  0.2826 -0.6542 -0.4215
   14MOL     H8 4974   4.644   4.456   5.311  0.6914 -0.4688  0.8855
   14MOL     H9 4975   4.714   4.695   5.299  0.9791 -0.6304  0.8679
   14MOL    H10 4976   4.640   4.708   5.455 -0.7155 -2.8619  1.1011
   14MOL    H11 4977   4.504   4.852   5.350  1.1922  0.7897 -1.2285
   14MOL    H12 4978   4.543   4.782   5.193 -0.1614  0.4248  0.1208
   14MOL    H13 4979   4.348   4.678   5.395  1.3697  0.3742 -0.3340
   14MOL    H14 4980   4.183   4.681   5.212  0.3682  0.9789  2.8157
   14MOL    H15 4981   4.264   4.836   5.220  2.1103 -0.0366  1.0407
   14MOL    H16 4982   4.393   4.741   5.004 -0.0885  0.3039 -0.4803
   14MOL    H17 4983   4.314   4.594   5.030  1.6355  1.2032 -0.4989
   14MOL    H18 4984   4.378   4.449   5.303 -0.3162  0.0650  0.6209
   14MOL    H19 4985   4.468   4.511   5.177 -0.0920 -2.1403 -0.2017
   14MOL    H20 4986   4.560   4.484   5.458 -0.8007 -0.8253 -0.4365
   14MOL    C21 4987   4.171   4.729   4.961  0.0399 -0.4001 -0.1462
   14MOL    C22 4988   4.152   4.876   4.922 -0.0259  0.2075 -0.3917
   14MOL    C23 4989   4.083   4.887   4.788 -0.6573 -0.4154  0.2203
   14MOL    C24 4990   4.074   4.741   4.746  0.3080 -0.2809  0.1971
   14MOL    C25 4991   4.117   4.730   4.588  0.1079 -0.1940  0.2577
   14MOL    C26 4992   4.007   4.775   4.499  0.4658  0.1867  0.0659
   14MOL    C27 4993   4.175   4.658   4.821 -0.1872  0.6081 -0.5104
   14MOL    H28 4994   4.085   4.688   5.014 -0.7137  0.6098 -0.5775
   14MOL    H29 4995   4.097   4.931   4.999 -1.6599  0.2024 -1.5170
   14MOL    H30 4996   4.246   4.928   4.934 -0.0283 -0.2690  1.9186
   14MOL    H31 4997   3.990   4.943   4.783 -0.1291  0.4342 -0.4698
   14MOL    H32 4998   4.146   4.942   4.717 -0.9888 -0.6242 -0.2389
   14MOL    H33 4999   3.972   4.707   4.758  0.2243 -0.2247 -0.3191
   14MOL    H34 5000   4.133   4.623   4.580 -1.7810 -0.5474  0.8636
   14MOL    H35 5001   4.214   4.776   4.569  0.1274 -1.4805 -3.1228
   14MOL    H36 5002   4.006   4.882   4.518 -0.2118  0.2311 -0.2044
   14MOL    H37 5003   3.915   4.736   4.542  1.1053 -0.1386  1.1401
   14MOL    H38 5004   4.143   4.554   4.829 -0.8846  0.8760  0.2546
   14MOL    H39 5005   4.277   4.669   4.786  0.6479 -0.7477  1.4400
   14MOL    C40 5006   4.035   4.734   4.348 -0.3009 -0.1586  0.0541
   14MOL    C41 5007   4.059   4.582   4.327  1.0096 -0.3413  0.1935
   14MOL    C42 5008   4.032   4.569   4.178 -0.1121 -0.0861  0.0638
   14MOL    C43 5009   3.916   4.671   4.147 -0.1312  0.3830  0.1987
   14MOL    C44 5010   3.917   4.707   3.993 -0.1147  0.2648  0.2847
   14MOL    C45 5011   3.808   4.801   3.944  0.4884 -0.7709 -0.1539
   14MOL    C46 5012   3.943   4.787   4.245  0.2635 -0.3873 -0.2918
   14MOL    H47 5013   4.128   4.780   4.315 -0.4435  0.7196  0.8207
   14MOL    H48 5014   3.988   4.522   4.383  0.5394 -1.1743 -1.2704
   14MOL    H49 5015   4.162   4.550   4.345  1.1038 -0.0071  0.2383
   14MOL    H50 5016   4.119   4.602   4.121 -0.0598 -1.3090 -0.5600
   14MOL    H51 5017   4.007   4.471   4.139 -0.1325  1.1594 -3.1847
   14MOL    H52 5018   3.818   4.625   4.163  0.8152 -1.2008  1.6149
   14MOL    H53 5019   4.014   4.727   3.949  0.2478  1.4921  1.5894
   14MOL    H54 5020   3.906   4.609   3.946 -0.8364  0.5432 -0.1438
   14MOL    H55 5021   3.802   4.892   4.003  0.1529  0.6920 -2.3763
   14MOL    H56 5022   3.713   4.746   3.949  0.2044 -0.2117  0.6614
   14MOL    H57 5023   3.974   4.878   4.194  0.7715  0.2160  1.0429
   14MOL    H58 5024   3.844   4.813   4.285  0.0826  0.0052 -1.0022
   14MOL    C59 5025   3.802   4.839   3.794 -0.0219  0.4692  0.3436
   14MOL    C60 5026   3.694   4.951   3.763 -0.5755 -0.3530  0.4542
   14MOL    C61 5027   3.768   5.062   3.691 -0.4924  0.1979  0.4365
   14MOL    C62 5028   3.896   5.007   3.633  0.3086  0.2146 -0.5716
   14MOL    C63 5029   3.892   4.932   3.497 -0.3084  0.2010 -0.2386
   14MOL    C64 5030   3.828   5.017   3.382  0.2216 -0.3326 -0.0904
   14MOL    C65 5031   3.936   4.903   3.747  0.5743 -0.1665  0.2060
   14MOL    H66 5032   3.778   4.754   3.731  0.0953 -0.4668  1.5460
   14MOL    H67 5033   3.617   4.915   3.695 -1.0360  0.4887  0.5320
   14MOL    H68 5034   3.636   4.988   3.847 -1.0982 -0.6627  0.2359
   14MOL    H69 5035   3.703   5.102   3.613 -1.4886 -2.0758  0.0714
   14MOL    H70 5036   3.790   5.141   3.763  0.1452  2.3232 -2.0292
   14MOL    H71 5037   3.977   5.078   3.618 -1.6664  2.7218  0.3548
   14MOL    H72 5038   3.841   4.837   3.512 -1.0648  0.1309 -3.0842
   14MOL    H73 5039   3.995   4.914   3.465  0.1262 -0.1329  1.2894
   14MOL    H74 5040   3.722   4.997   3.393  0.3445 -0.4260  0.9480
   14MOL    H75 5041   3.838   5.122   3.409  1.5563 -0.3519 -0.4270
   14MOL    H76 5042   4.004   4.829   3.704 -0.5437 -1.7933  1.1591
   14MOL    H77 5043   3.983   4.953   3.832 -2.7288  1.1948  1.2782
   14MOL    C78 5044   3.887   4.987   3.246 -0.2132 -0.0884  0.5416
   14MOL    C79 5045   3.880   4.847   3.207  0.1191 -0.0896  0.0820
   14MOL    C80 5046   3.868   4.841   3.049  0.0738  0.7921 -0.1506
   14MOL    C81 5047   3.875   4.985   3.010 -0.1814 -0.1781 -0.0570
   14MOL    C82 5048   3.806   5.011   2.871  0.7906 -0.3261  0.0886
   14MOL    C83 5049   3.791   5.162   2.832 -0.1796 -0.6055  0.6868
   14MOL    C84 5050   3.821   5.071   3.133  0.8295  0.1460  0.9235
   14MOL    H85 5051   3.992   5.014   3.238 -0.9730  3.1475  0.6898
   14MOL    H86 5052   3.973   4.797   3.236 -1.1780 -3.3829 -1.2292
   14MOL    H87 5053   3.800   4.795   3.259 -2.0379  1.8128 -1.2415
   14MOL    H88 5054   3.938   4.772   3.001 -0.3524 -0.2379  0.6944
   14MOL    H89 5055   3.766   4.812   3.025  0.0553  0.3057  0.5262
   14MOL    H90 5056   3.982   5.003   2.995 -0.5293  0.6974 -1.6020
   14MOL    H91 5057   3.708   4.964   2.867  0.1651  1.1171 -2.4647
   14MOL    H92 5058   3.868   4.961   2.797  1.4225  1.3368 -0.5353
   14MOL    H93 5059   3.891   5.204   2.821 -0.7461  0.2424 -1.6731
   14MOL    H94 5060   3.740   5.215   2.913 -0.2186 -2.7409  2.0801
   14MOL    H95 5061   3.715   5.045   3.134  1.1717 -1.4312 -0.5936
   14MOL    H96 5062   3.848   5.177   3.132  1.7049 -0.0590 -2.0268
   14MOL    C97 5063   3.717   5.181   2.698  0.1127  0.6376  0.3000
   14MOL    C98 5064   3.794   5.130   2.573  0.5644  0.2833  1.1194
   14MOL    C99 5065   3.749   5.219   2.457 -0.3398  0.0282  0.1360
   14MOL   C100 5066   3.642   5.310   2.514  0.3278 -0.0705  0.0234
   14MOL   C101 5067   3.634   5.446   2.446  0.1146 -0.5813  0.1147
   14MOL   C102 5068   3.547   5.560   2.510  0.3010 -0.6538  0.2219
   14MOL   C103 5069   3.678   5.324   2.663  0.0127 -0.5938 -0.2469
   14MOL   H104 5070   3.622   5.130   2.718 -1.7049  2.3830 -3.2938
   14MOL   H105 5071   3.902   5.126   2.570  0.4982 -0.4588 -2.1249
   14MOL   H106 5072   3.749   5.033   2.553 -1.2404  1.4724 -0.8385
   14MOL   H107 5073   3.836   5.278   2.426 -0.0085 -1.1252 -1.1766
   14MOL   H108 5074   3.714   5.165   2.369  0.2457 -1.2914  0.7028
   14MOL   H109 5075   3.545   5.268   2.487  1.0745 -1.5611 -0.4190
   14MOL   H110 5076   3.734   5.487   2.439 -0.4431  0.8068  0.1266
   14MOL   H111 5077   3.601   5.428   2.343 -0.7396  1.9766 -0.0834
   14MOL   H112 5078   3.452   5.518   2.542  0.2662 -1.4400 -0.8826
   14MOL   H113 5079   3.592   5.593   2.604  0.3196 -2.0805  0.7277
   14MOL   H114 5080   3.764   5.391   2.672  2.4697 -3.6897  0.0671
   14MOL   H115 5081   3.596   5.359   2.726  0.6903  0.5101  0.0465
   14MOL   C116 5082   3.529   5.674   2.409 -0.2148 -0.2282 -0.8845
   14MOL   C117 5083   3.426   5.650   2.295  0.1655  0.1431  0.2757
   14MOL   C118 5084   3.353   5.778   2.272  0.0527  0.4785 -0.5469
   14MOL   C119 5085   3.414   5.887   2.355  0.8919 -0.1425 -0.3181
   14MOL   C120 5086   3.318   6.008   2.400  0.3694  0.2676  0.6556
   14MOL   C121 5087   3.312   6.127   2.302 -0.2084 -0.4155  0.1826
   14MOL   C122 5088   3.472   5.802   2.476 -0.9617 -0.0762 -0.1977
   14MOL   H123 5089   3.621   5.712   2.363 -0.6185  1.1478 -0.5693
   14MOL   H124 5090   3.347   5.582   2.326 -0.7516  1.4179  0.7650
   14MOL   H125 5091   3.471   5.608   2.205 -0.0457  2.3923 -0.9063
   14MOL   H126 5092   3.248   5.759   2.292 -0.0514 -0.2457 -1.7090
   14MOL   H127 5093   3.363   5.806   2.167 -0.1785  0.0403 -0.6866
   14MOL   H128 5094   3.500   5.925   2.299 -0.4629  0.1493 -2.2451
   14MOL   H129 5095   3.354   6.052   2.493  0.0964  0.1070  0.8409
   14MOL   H130 5096   3.218   5.969   2.417 -0.6763  1.0500 -3.1691
   14MOL   H131 5097   3.412   6.157   2.271 -0.2968 -0.8236 -0.5063
   14MOL   H132 5098   3.268   6.208   2.361 -0.5706  0.7290 -1.6328
   14MOL   H133 5099   3.547   5.855   2.535  0.4598 -0.3646 -1.7126
   14MOL   H134 5100   3.393   5.761   2.538 -0.4014 -0.2964  0.3738
   14MOL   C135 5101   3.226   6.086   2.179 -0.5851 -0.2390 -0.1525
   14MOL   C136 5102   3.079   6.076   2.211 -0.3185 -0.6682  0.2331
   14MOL   C137 5103   3.007   6.163   2.100 -0.7821 -0.1277  0.0958
   14MOL   C138 5104   3.118   6.265   2.062 -0.1185 -0.2458 -0.2230
   14MOL   C139 5105   3.087   6.338   1.939 -0.1560 -0.1242 -0.1042
   14MOL   C140 5106   2.969   6.436   1.948 -0.1060  0.8921 -0.8341
   14MOL   C141 5107   3.250   6.193   2.071 -0.2148  0.1105  0.0952
   14MOL   H142 5108   3.272   5.997   2.137 -0.5864  0.0350 -0.7544
   14MOL   H143 5109   3.043   5.974   2.225  0.7015 -0.7824  2.2179
   14MOL   H144 5110   3.069   6.118   2.311 -1.7102  0.4100 -0.3304
   14MOL   H145 5111   2.988   6.106   2.009 -0.2183  0.2607 -0.2670
   14MOL   H146 5112   2.912   6.208   2.129 -1.2804 -1.6627  0.8642
   14MOL   H147 5113   3.125   6.343   2.138 -2.4121 -1.8381  1.6829
   14MOL   H148 5114   3.079   6.265   1.859  2.0579  0.2761 -0.7432
   14MOL   H149 5115   3.165   6.408   1.907  0.2239  1.1024  3.2929
   14MOL   H150 5116   2.877   6.399   1.992  0.9347  1.9714  2.4063
   14MOL   H151 5117   2.997   6.507   2.027 -3.3853  3.2950 -1.7060
   14MOL   H152 5118   3.337   6.255   2.091  0.7239 -1.6577  1.5549
   14MOL   H153 5119   3.276   6.150   1.975 -0.7798  0.0700 -0.0447
   14MOL   C154 5120   2.937   6.489   1.814  0.1113  0.4826  0.1732
   14MOL   C155 5121   3.060   6.564   1.750  1.0682  0.4698  0.4759
   14MOL   C156 5122   3.006   6.662   1.643  0.0301  0.3742 -0.1901
   14MOL   C157 5123   2.858   6.658   1.664 -0.1313  0.1892 -0.7628
   14MOL   C158 5124   2.778   6.792   1.643  0.1363  0.7185 -0.2301
   14MOL   C159 5125   2.635   6.772   1.604 -0.0708  0.0114  0.4832
   14MOL   C160 5126   2.830   6.596   1.796  0.1576  0.5507 -0.2952
   14MOL   H161 5127   2.902   6.405   1.754 -0.0337 -0.9679  2.2011
   14MOL   H162 5128   3.113   6.620   1.827 -1.4642  1.4797  1.5710
   14MOL   H163 5129   3.134   6.495   1.709 -1.4661 -0.5098 -2.6761
   14MOL   H164 5130   3.041   6.762   1.669 -2.6913  1.4343 -0.3913
   14MOL   H165 5131   3.025   6.638   1.539 -1.4689 -2.3558  0.1056
   14MOL   H166 5132   2.811   6.598   1.586 -1.3483 -0.2170  0.2696
   14MOL   H167 5133   2.837   6.847   1.570 -0.4285  1.6040 -0.0150
   14MOL   H168 5134   2.770   6.851   1.734 -2.5983  2.2724 -1.4564
   14MOL   H169 5135   2.624   6.706   1.518 -0.1386 -0.0999  0.5783
   14MOL   H170 5136   2.590   6.723   1.690 -0.4039 -0.5846 -0.0271
   14MOL   H171 5137   2.735   6.543   1.797 -0.3318  1.4354  0.3103
   14MOL   H172 5138   2.837   6.675   1.871  0.7067  1.2315 -1.0429
   14MOL   C173 5139   2.567   6.906   1.566 -0.0188 -1.1033 -0.5937
   14MOL   C174 5140   2.622   6.985   1.446  0.5909 -0.9057 -0.8147
   14MOL   C175 5141   2.506   7.003   1.349  0.6435 -0.0642 -0.2033
   14MOL   C176 5142   2.384   7.005   1.438  0.0231  0.1588 -0.0241
   14MOL   C177 5143   2.245   6.985   1.372 -0.1797 -0.3402  0.1907
   14MOL   C178 5144   2.189   7.120   1.329  0.4535 -0.3903  0.1513
   14MOL   C179 5145   2.415   6.894   1.537  0.3123  0.3268  0.0473
   14MOL   H180 5146   2.574   6.976   1.650  2.2512  0.0654 -1.7116
   14MOL   H181 5147   2.715   6.948   1.404  2.7283  1.4588  1.6706
   14MOL   H182 5148   2.645   7.088   1.473 -3.3921 -0.6043  1.8776
   14MOL   H183 5149   2.520   7.093   1.288 -2.0758  0.9543  0.5792
   14MOL   H184 5150   2.493   6.919   1.281 -0.7559 -1.0303  1.2122
   14MOL   H185 5151   2.394   7.094   1.500  1.9089 -1.1439  1.5990
   14MOL   H186 5152   2.176   6.939   1.443 -0.0768 -1.9051 -0.6996
   14MOL   H187 5153   2.237   6.921   1.284 -0.6360 -0.3789  0.2564
   14MOL   H188 5154   2.252   7.175   1.259  1.2066  0.4931  1.5067
   14MOL   H189 5155   2.188   7.176   1.423 -1.0595 -2.5291  1.4744
   14MOL   H190 5156   2.402   6.803   1.478 -0.7449  0.3926  0.1623
   14MOL   H191 5157   2.355   6.901   1.628 -0.5511  0.4875 -0.5277
   14MOL   C192 5158   2.042   7.109   1.278 -0.2904 -0.4210  0.2039
   14MOL   C193 5159   1.995   7.234   1.201  0.3015 -0.3688 -0.4932
   14MOL   C194 5160   1.848   7.236   1.215 -0.2403  0.1383  0.3373
   14MOL   C195 5161   1.820   7.175   1.356 -0.1151 -0.1132  0.5962
   14MOL   C196 5162   1.671   7.128   1.375  0.2557  0.4419 -0.5667
   14MOL   C197 5163   1.640   7.099   1.522  0.4077 -0.1436 -0.1667
   14MOL   C198 5164   1.934   7.068   1.376  0.3234  0.1390 -0.7858
   14MOL   H199 5165   2.049   7.041   1.193  0.1307  0.9057 -0.8485
   14MOL   H200 5166   2.020   7.314   1.270 -1.0096 -1.7157  1.5962
   14MOL   H201 5167   2.034   7.243   1.099  0.8493  0.2941 -0.2234
   14MOL   H202 5168   1.814   7.174   1.132  2.2205 -0.8734  0.0217
   14MOL   H203 5169   1.797   7.332   1.213  1.8522  1.2900  0.0761
   14MOL   H204 5170   1.816   7.249   1.436 -0.9518 -0.2976  0.7309
   14MOL   H205 5171   1.649   7.043   1.310  0.3071 -0.5938  0.7668
   14MOL   H206 5172   1.607   7.212   1.349  1.2498  1.7509  1.0915
   14MOL   H207 5173   1.639   7.186   1.587 -0.2504  1.2924 -2.0506
   14MOL   H208 5174   1.697   7.024   1.578  0.9616  2.4955  2.9407
   14MOL   H209 5175   1.903   6.964   1.366 -1.6566  0.5980  0.2732
   14MOL   H210 5176   1.972   7.072   1.478  0.0790  1.6490 -0.7401
   14MOL   C211 5177   1.501   7.030   1.529 -0.0055 -0.1052 -0.9272
   14MOL   C212 5178   1.454   7.015   1.678  0.4760  0.0840 -0.3670
   14MOL   C213 5179   1.346   6.909   1.661 -0.0878  1.0058 -0.3663
   14MOL   C214 5180   1.395   6.803   1.563 -0.7081 -0.0539  0.1924
   14MOL   C215 5181   1.454   6.675   1.630 -0.3790 -0.0313 -0.2977
   14MOL   C216 5182   1.495   6.561   1.526 -0.9557  0.6117  0.7891
   14MOL   C217 5183   1.493   6.884   1.473 -0.0012 -0.3333 -0.3617
   14MOL   H218 5184   1.432   7.103   1.486  1.9970  0.1872 -3.8328
   14MOL   H219 5185   1.534   6.984   1.744 -0.6693  1.2873  1.6303
   14MOL   H220 5186   1.427   7.112   1.720  0.2046  0.6910 -1.9167
   14MOL   H221 5187   1.328   6.864   1.759 -1.5986  1.0826 -0.5958
   14MOL   H222 5188   1.252   6.951   1.627 -0.6416 -0.0212 -0.1070
   14MOL   H223 5189   1.307   6.777   1.504 -0.3707 -0.5323 -0.1058
   14MOL   H224 5190   1.370   6.638   1.690  1.0397  0.7874  2.2461
   14MOL   H225 5191   1.544   6.686   1.689 -1.5981  2.5681  1.1668
   14MOL   H226 5192   1.407   6.540   1.465  1.1757 -0.1788 -2.1148
   14MOL   H227 5193   1.563   6.602   1.452 -1.9188  1.8024  0.5364
   14MOL   H228 5194   1.445   6.888   1.375  2.8642  0.4893 -1.8081
   14MOL   H229 5195   1.590   6.835   1.464  1.2955  2.1128 -0.1296
   14MOL   C230 5196   1.552   6.422   1.574  0.5574  0.2497  0.3461
   14MOL   C231 5197   1.697   6.430   1.617 -0.0161 -0.4039  0.6988
   14MOL   C232 5198   1.766   6.296   1.600  0.2231  0.0987  0.0369
   14MOL   C233 5199   1.677   6.217   1.502 -0.1255  0.5618 -0.3724
   14MOL   C234 5200   1.651   6.072   1.552  0.2288 -0.6624 -0.6747
   14MOL   C235 5201   1.545   6.078   1.669  0.1386 -0.3963  0.0841
   14MOL   C236 5202   1.557   6.311   1.466 -0.0446  0.2111  0.5391
   14MOL   H237 5203   1.484   6.384   1.650  0.3355  0.7459  0.4011
   14MOL   H238 5204   1.756   6.493   1.549  1.3662 -0.8974  1.4304
   14MOL   H239 5205   1.708   6.480   1.713 -2.1719  0.1343  0.6901
   14MOL   H240 5206   1.777   6.234   1.689 -0.0406 -1.8295 -1.2471
   14MOL   H241 5207   1.865   6.300   1.554  0.4807 -1.9693  0.3676
   14MOL   H242 5208   1.733   6.209   1.409  1.8665 -1.0584  0.9103
   14MOL   H243 5209   1.740   6.015   1.580 -0.8209 -0.8583  2.5250
   14MOL   H244 5210   1.606   6.010   1.474 -0.9866  0.5073 -0.9159
   14MOL   H245 5211   1.588   6.114   1.763  0.7915  0.1254 -0.4115
   14MOL   H246 5212   1.470   6.155   1.649 -0.6763 -1.0901  0.4097
   14MOL   H247 5213   1.459   6.265   1.460  0.2480 -0.4145  0.5333
   14MOL   H248 5214   1.595   6.352   1.372  0.2403  0.6611  0.8442
   14MOL   C249 5215   1.471   5.942   1.686  0.5737 -0.0335 -0.2543
   14MOL   C250 5216   1.554   5.810   1.683  0.3223 -0.7490  0.1706
   14MOL   C251 5217   1.475   5.702   1.738  0.6079  0.3660 -0.2421
   14MOL   C252 5218   1.413   5.768   1.860  0.4985 -0.1401 -0.6280
   14MOL   C253 5219   1.280   5.704   1.914 -0.0234 -0.0984  0.1827
   14MOL   C254 5220   1.295   5.571   1.992 -0.3654 -0.2399 -0.3281
   14MOL   C255 5221   1.386   5.915   1.812 -0.0885 -0.3599  0.1018
   14MOL   H256 5222   1.394   5.928   1.610  0.9136  0.4550 -0.6980
   14MOL   H257 5223   1.592   5.791   1.583  0.6760 -0.1520  0.1900
   14MOL   H258 5224   1.650   5.825   1.733 -0.1708  2.2643  0.3491
   14MOL   H259 5225   1.529   5.611   1.766 -2.8781 -2.0329 -0.9616
   14MOL   H260 5226   1.390   5.672   1.677  0.7962 -4.0436  1.4677
   14MOL   H261 5227   1.487   5.775   1.939  0.1532  0.5375 -0.3582
   14MOL   H262 5228   1.214   5.683   1.830 -1.6224  0.7442  1.1984
   14MOL   H263 5229   1.215   5.766   1.976 -0.7929 -1.8412  1.1710
   14MOL   H264 5230   1.393   5.561   2.039  0.7781  0.1837 -2.5822
   14MOL   H265 5231   1.281   5.496   1.914 -0.4211  0.5392 -1.0682
   14MOL   H266 5232   1.399   5.988   1.892 -3.5386 -0.4953  0.8611
   14MOL   H267 5233   1.282   5.898   1.784  0.1616  0.7280 -1.6059
   14MOL   C268 5234   1.204   5.550   2.117  0.1574 -0.4558  1.1180
   14MOL   C269 5235   1.276   5.452   2.210  0.4726  0.0883  0.2134
   14MOL   C270 5236   1.164   5.393   2.296  0.2826  0.1968 -0.0268
   14MOL   C271 5237   1.043   5.390   2.199  0.1805 -0.3873  0.5837
   14MOL   C272 5238   1.018   5.249   2.137  0.0423 -0.5416  0.0857
   14MOL   C273 5239   0.947   5.147   2.225 -0.3053 -0.1412 -0.2840
   14MOL   C274 5240   1.061   5.499   2.091  0.8246 -0.1173 -0.0870
   14MOL   H275 5241   1.192   5.639   2.177  0.0391  0.1455  0.2107
   14MOL   H276 5242   1.329   5.373   2.158 -0.8087  0.5703 -1.8719
   14MOL   H277 5243   1.345   5.512   2.269 -0.4058  0.1199  1.2362
   14MOL   H278 5244   1.184   5.301   2.351 -0.3387  0.6178  0.9128
   14MOL   H279 5245   1.150   5.469   2.374  0.6164  0.4694 -0.2281
   14MOL   H280 5246   0.952   5.408   2.256 -0.9230 -2.7672 -0.3334
   14MOL   H281 5247   1.111   5.208   2.096  1.7819  1.5266  1.8368
   14MOL   H282 5248   0.947   5.255   2.054 -1.3135 -1.8876  1.1325
   14MOL   H283 5249   0.941   5.179   2.329 -1.0193 -0.8282 -0.1041
   14MOL   H284 5250   0.841   5.141   2.198 -0.2897  3.1640 -1.3004
   14MOL   H285 5251   1.056   5.451   1.993  1.0645 -0.1543 -0.0806
   14MOL   H286 5252   0.998   5.588   2.091  1.8688  0.6329  0.1420
   14MOL   C287 5253   1.018   5.011   2.229 -0.2623  0.2224 -0.8702
   14MOL   C288 5254   0.945   4.903   2.311  0.2437  0.4918  0.5467
   14MOL   C289 5255   0.881   4.807   2.201 -0.0395  0.0290 -0.2407
   14MOL   C290 5256   0.990   4.797   2.095  0.3371  0.0209 -0.4594
   14MOL   C291 5257   0.943   4.744   1.961 -0.0785  0.8004 -0.2654
   14MOL   C292 5258   0.855   4.620   1.968  0.1595 -0.6793 -0.5273
   14MOL   C293 5259   1.041   4.948   2.087  0.1820 -0.8145 -0.3265
   14MOL   H294 5260   1.116   5.021   2.276 -1.2203  0.6073  1.1322
   14MOL   H295 5261   1.010   4.847   2.379  0.0685  0.0354  0.3358
   14MOL   H296 5262   0.861   4.946   2.365  2.1507  3.1287  1.5487
   14MOL   H297 5263   0.793   4.842   2.147 -1.1741 -3.0550 -0.4701
   14MOL   H298 5264   0.855   4.711   2.245  0.7120 -0.0896 -0.0443
   14MOL   H299 5265   1.079   4.740   2.119  0.6509  0.7180  0.0503
   14MOL   H300 5266   1.031   4.732   1.897 -1.3547 -0.5656 -1.8080
   14MOL   H301 5267   0.884   4.830   1.926 -0.2415  0.0185 -1.9934
   14MOL   H302 5268   0.764   4.643   2.023  0.9396 -0.2907  0.6029
   14MOL   H303 5269   0.907   4.548   2.031  0.4540  1.4288  1.7050
   14MOL   H304 5270   0.993   4.999   2.003 -0.3482 -1.6383 -0.5287
   14MOL   H305 5271   1.149   4.942   2.073  0.0826  1.6409 -2.5106
   14MOL   C306 5272   0.830   4.568   1.821 -0.3077 -0.3166 -0.8887
   14MOL   C307 5273   0.798   4.411   1.830  0.0531 -0.5062  0.4858
   14MOL   C308 5274   0.702   4.380   1.708 -0.0416 -0.7022  0.6180
   14MOL   C309 5275   0.680   4.517   1.634  0.9528 -0.0528  0.3657
   14MOL   C310 5276   0.543   4.532   1.566  0.0610  0.1889 -0.5133
   14MOL   C311 5277   0.520   4.414   1.464 -0.0411  0.0375  0.5263
   14MOL   C312 5278   0.707   4.630   1.739  0.9276 -0.2477 -0.6451
   14MOL   H313 5279   0.925   4.588   1.771  1.0071 -3.7744  0.1254
   14MOL   H314 5280   0.886   4.348   1.839  0.3886  0.1119  1.6362
   14MOL   H315 5281   0.734   4.398   1.918 -0.8518  1.6918  0.1947
   14MOL   H316 5282   0.752   4.305   1.646 -0.3915  1.0007 -1.8045
   14MOL   H317 5283   0.613   4.331   1.747  0.1152 -1.9419 -0.5280
   14MOL   H318 5284   0.766   4.520   1.568  0.4848 -1.5334 -0.3386
   14MOL   H319 5285   0.467   4.524   1.643 -1.1361  1.2266 -1.5500
   14MOL   H320 5286   0.531   4.635   1.531  1.2040  0.5822  0.2155
   14MOL   H321 5287   0.543   4.317   1.507 -0.8357 -0.0769  0.6870
   14MOL   H322 5288   0.584   4.425   1.376 -2.9797  0.5234 -1.6232
   14MOL   H323 5289   0.621   4.638   1.806  2.6276 -0.5661  1.6665
   14MOL   H324 5290   0.724   4.727   1.692  0.1069 -0.9159 -2.3513
   14MOL   C325 5291   0.377   4.427   1.414 -0.2127  0.6716  0.2555
   14MOL   C326 5292   0.351   4.345   1.289  0.6310  0.3069 -0.1510
   14MOL   C327 5293   0.291   4.212   1.319 -0.0450 -0.5946 -0.0458
   14MOL   C328 5294   0.255   4.222   1.467 -0.3458 -0.0217 -0.2409
   14MOL   C329 5295   0.117   4.159   1.502  0.6025 -0.9789 -0.1762
   14MOL   C330 5296   0.118   4.002   1.491 -0.5231 -0.1923  0.5126
   14MOL   C331 5297   0.266   4.371   1.509 -0.1573 -0.3842  0.1094
   14MOL   H332 5298   0.349   4.530   1.395 -1.1345  0.2330 -0.8269
   14MOL   H333 5299   0.429   4.357   1.214  1.3548 -1.2046  0.3282
   14MOL   H334 5300   0.275   4.406   1.240  1.6536  1.7316 -0.0034
   14MOL   H335 5301   0.208   4.169   1.262 -0.6478  1.1212 -0.4787
   14MOL   H336 5302   0.371   4.139   1.303 -0.7914 -1.6697  1.0643
   14MOL   H337 5303   0.340   4.191   1.528 -0.5106  1.0372  0.5493
   14MOL   H338 5304   0.070   4.181   1.598 -1.4297 -4.1500 -0.3517
   14MOL   H339 5305   0.052   4.199   1.424 -1.2223  1.6666  2.5644
   14MOL   H340 5306   0.193   3.968   1.563  0.2703 -2.9473 -1.5682
   14MOL   H341 5307   0.021   3.982   1.537 -1.3314  0.6462 -0.7852
   14MOL   H342 5308   0.282   4.379   1.617 -0.3753 -1.9500  0.2711
   14MOL   H343 5309   0.165   4.413   1.507  0.0372  0.0708 -0.4680
   14MOL   C344 5310   0.123   3.929   1.354 -0.6761 -0.6176  0.0756
   14MOL   C345 5311   0.016   3.983   1.253  0.7046 -0.1736  0.3225
   14MOL   C346 5312   7.610   3.870   1.172  0.0055 -0.4921  0.3007
   14MOL   C347 5313   7.603   3.766   1.284  0.3367  0.0374  0.0800
   14MOL   C348 5314   7.568   3.621   1.243 -0.4350  1.3771 -0.7115
   14MOL   C349 5315   7.430   3.595   1.189 -0.1387  0.2266 -0.5537
   14MOL   C350 5316   0.081   3.785   1.372  0.2446  0.0289  0.2828
   14MOL   H351 5317   0.220   3.946   1.307 -0.6803 -1.5837 -0.2876
   14MOL   H352 5318   0.057   4.056   1.184 -0.0113 -0.5483 -0.5129
   14MOL   H353 5319   7.578   4.021   1.308 -0.9880  1.5966 -3.4162
   14MOL   H354 5320   7.516   3.897   1.124  1.0868  2.1850 -0.4345
   14MOL   H355 5321   0.028   3.832   1.093  0.0514  1.0226 -0.4160
   14MOL   H356 5322   7.522   3.798   1.349 -0.2109  0.7355 -0.9220
   14MOL   H357 5323   0.006   3.580   1.189 -0.6312  1.2418 -0.9143
   14MOL   H358 5324   7.574   3.556   1.331 -1.2790  1.5229 -0.5491
   14MOL   H359 5325   7.428   3.641   1.090 -0.3352  1.7465  0.1335
   14MOL   H360 5326   7.359   3.637   1.261 -0.0672 -1.4396  0.5136
   14MOL   H361 5327   0.051   3.764   1.475 -0.5757  1.4081  0.3432
   14MOL   H362 5328   0.162   3.719   1.342  0.1855  0.3673 -0.6500
   14MOL   C363 5329   7.400   3.446   1.175 -0.1001  0.3589 -0.0925
   14MOL   C364 5330   7.263   3.408   1.120  0.2566  0.2196 -0.1512
   14MOL   C365 5331   7.206   3.293   1.208  0.1866 -0.0607  0.5948
   14MOL   C366 5332   7.319   3.249   1.306 -0.7442 -0.7409  0.1253
   14MOL   C367 5333   7.262   3.202   1.443 -0.4177 -0.0477 -0.5793
   14MOL   C368 5334   7.369   3.156   1.539 -0.1903 -1.0610  0.1164
   14MOL   C369 5335   7.413   3.365   1.311  0.3755 -0.2876  0.2983
   14MOL   H370 5336   7.485   3.414   1.114  0.2685 -0.8295  1.0364
   14MOL   H371 5337   7.190   3.489   1.123  2.7229  2.4861  0.1213
   14MOL   H372 5338   7.273   3.353   1.026 -0.0592 -1.2448  0.6594
   14MOL   H373 5339   7.120   3.334   1.262 -0.9764  0.2747 -1.4839
   14MOL   H374 5340   7.178   3.209   1.145  0.1714 -0.1237  0.6850
   14MOL   H375 5341   7.367   3.161   1.262  0.6527 -0.1432  0.4177
   14MOL   H376 5342   7.191   3.270   1.490  1.5521  1.5208  0.2226
   14MOL   H377 5343   7.200   3.114   1.425  0.4745 -1.4847  2.9071
   14MOL   H378 5344   7.440   3.237   1.557 -0.4622 -0.8382  0.1928
   14MOL   H379 5345   7.417   3.060   1.522  1.8691 -0.0336 -0.0342
   14MOL   H380 5346   7.378   3.432   1.389  0.1125 -0.2761  0.1731
   14MOL   H381 5347   7.516   3.341   1.337  0.4612  0.0702  0.2955
   14MOL   H382 5348   7.322   3.148   1.637 -2.6373  0.4165 -0.8938
   15MOL     C1 5349   0.946   2.719   0.873 -0.0953  0.3362  0.8517
   15MOL     C2 5350   1.048   2.654   0.972  0.4042  0.4819 -0.0036
   15MOL     C3 5351   0.976   2.527   1.024  0.0211 -0.0174  0.1813
   15MOL     C4 5352   0.842   2.511   0.958 -0.6531 -0.3989 -0.9304
   15MOL     C5 5353   0.732   2.449   1.042  0.8065 -1.0987 -0.4490
   15MOL     C6 5354   0.727   2.298   1.040  0.0781  0.2604 -0.4373
   15MOL     C7 5355   0.812   2.654   0.904 -0.0326 -0.3781  0.0029
   15MOL     H8 5356   0.944   2.827   0.883 -0.2373  0.3764  0.3675
   15MOL     H9 5357   1.074   2.724   1.052 -0.8160  0.7568  0.1626
   15MOL    H10 5358   1.138   2.634   0.914  1.2010 -2.1770  2.0417
   15MOL    H11 5359   1.033   2.434   1.020  2.1616  1.2883 -0.5265
   15MOL    H12 5360   0.947   2.552   1.126 -2.5401 -1.0620 -0.2600
   15MOL    H13 5361   0.865   2.450   0.871 -1.2888  1.1508 -2.2106
   15MOL    H14 5362   0.737   2.493   1.141 -0.3841 -0.7959 -0.5197
   15MOL    H15 5363   0.647   2.500   0.997  0.4084  1.5262  3.1022
   15MOL    H16 5364   0.738   2.266   0.937 -0.3007  0.3721 -0.5135
   15MOL    H17 5365   0.819   2.268   1.091 -0.7927 -0.8686  0.5168
   15MOL    H18 5366   0.747   2.647   0.816  0.3695  0.2066 -0.3455
   15MOL    H19 5367   0.752   2.708   0.978  0.0386 -1.9873  1.2543
   15MOL    H20 5368   0.969   2.685   0.772 -0.2373 -1.6155  1.4464
   15MOL    C21 5369   0.604   2.233   1.105 -0.1345  0.0333 -0.3743
   15MOL    C22 5370   0.611   2.080   1.126  0.5811  0.5927  0.4809
   15MOL    C23 5371   0.554   2.054   1.262  0.3699 -0.2932 -0.4583
   15MOL    C24 5372   0.484   2.181   1.311  0.7397  0.7205  0.0993
   15MOL    C25 5373   0.480   2.204   1.469  0.1743 -0.9140 -0.0090
   15MOL    C26 5374   0.394   2.325   1.501  0.5182 -0.3997 -0.3462
   15MOL    C27 5375   0.577   2.287   1.247 -0.0979 -0.0850  0.4435
   15MOL    H28 5376   0.520   2.268   1.044  0.9417  0.4283 -1.6528
   15MOL    H29 5377   0.545   2.037   1.050  1.1948  1.7150 -0.7130
   15MOL    H30 5378   0.704   2.027   1.103  0.8232  0.8039  0.9695
   15MOL    H31 5379   0.492   1.964   1.266 -0.2450  0.2206  1.7577
   15MOL    H32 5380   0.638   2.034   1.328  0.3087  0.6851 -0.0876
   15MOL    H33 5381   0.387   2.174   1.262  1.2779  0.6341 -0.9585
   15MOL    H34 5382   0.581   2.227   1.503  0.3566  0.7644 -1.5642
   15MOL    H35 5383   0.451   2.115   1.524 -0.8219 -0.5778  0.0197
   15MOL    H36 5384   0.297   2.298   1.459  1.5466 -1.1159 -2.3297
   15MOL    H37 5385   0.413   2.406   1.432  0.3393 -0.3554 -0.3437
   15MOL    H38 5386   0.524   2.381   1.231  0.3982  0.4823  1.9856
   15MOL    H39 5387   0.668   2.312   1.302  0.0036  1.7250 -0.5085
   15MOL    C40 5388   0.375   2.372   1.645 -0.2749 -0.6924 -0.1215
   15MOL    C41 5389   0.293   2.266   1.725  0.4859  0.5576 -0.2665
   15MOL    C42 5390   0.352   2.278   1.866 -0.7939 -0.0814  0.0631
   15MOL    C43 5391   0.502   2.308   1.854  0.5833 -0.3792 -0.2148
   15MOL    C44 5392   0.555   2.355   1.982  0.5193  0.2718  0.0329
   15MOL    C45 5393   0.706   2.351   1.980  0.2332  0.2246  0.5301
   15MOL    C46 5394   0.498   2.411   1.737  0.8061 -0.5697  0.6019
   15MOL    H47 5395   0.315   2.463   1.645 -0.4423 -0.7895 -1.5682
   15MOL    H48 5396   0.306   2.171   1.672  1.0085  0.4387  0.0771
   15MOL    H49 5397   0.187   2.291   1.725  1.6071  5.9362 -1.0159
   15MOL    H50 5398   0.304   2.359   1.920 -0.2184 -0.0068  0.4726
   15MOL    H51 5399   0.335   2.187   1.925 -1.7674  0.4201  0.5675
   15MOL    H52 5400   0.542   2.208   1.838 -1.4154 -1.3214  0.5251
   15MOL    H53 5401   0.515   2.455   1.998 -0.7532 -0.1120 -0.6170
   15MOL    H54 5402   0.507   2.293   2.058  0.7104 -0.1942 -0.2262
   15MOL    H55 5403   0.739   2.408   1.893  0.6164  0.7025  0.9852
   15MOL    H56 5404   0.731   2.246   1.966 -1.0741  0.2223 -2.1312
   15MOL    H57 5405   0.492   2.511   1.781  0.8309 -1.0937  1.7963
   15MOL    H58 5406   0.584   2.403   1.670  0.9769  1.7236  0.4887
   15MOL    C59 5407   0.772   2.404   2.104 -0.6045 -0.9577 -1.3409
   15MOL    C60 5408   0.737   2.554   2.131  0.1964 -0.2350  0.1222
   15MOL    C61 5409   0.781   2.575   2.277 -0.3599  0.3011 -0.0305
   15MOL    C62 5410   0.734   2.448   2.349  0.4653 -0.2249 -0.4637
   15MOL    C63 5411   0.814   2.405   2.471 -0.1838  0.9073 -0.0194
   15MOL    C64 5412   0.757   2.281   2.539 -0.1201  0.7765 -0.6049
   15MOL    C65 5413   0.737   2.337   2.237  0.0349  0.3445 -0.2146
   15MOL    H66 5414   0.881   2.401   2.093 -0.5963 -2.1403 -0.9967
   15MOL    H67 5415   0.796   2.624   2.072  0.1554 -0.1541  0.1779
   15MOL    H68 5416   0.632   2.582   2.121  0.5066  1.0656  0.4487
   15MOL    H69 5417   0.890   2.582   2.286 -0.4799  1.0690  0.9500
   15MOL    H70 5418   0.743   2.663   2.329  0.1351  0.7348 -0.3961
   15MOL    H71 5419   0.629   2.466   2.372  0.8039 -0.3691  1.2547
   15MOL    H72 5420   0.826   2.486   2.544 -1.6308  0.6422  0.5254
   15MOL    H73 5421   0.917   2.376   2.449 -0.1898 -1.7210  3.0502
   15MOL    H74 5422   0.669   2.316   2.592  0.3520  1.4488 -0.2590
   15MOL    H75 5423   0.703   2.228   2.460 -1.3399  2.5277 -0.9552
   15MOL    H76 5424   0.809   2.257   2.256 -0.6224 -0.7121 -2.0456
   15MOL    H77 5425   0.640   2.293   2.218  0.9022 -1.2437 -0.9765
   15MOL    C78 5426   0.846   2.182   2.625 -0.6975  0.3193  0.1308
   15MOL    C79 5427   0.895   2.244   2.761 -0.1713  0.2819  0.2173
   15MOL    C80 5428   0.914   2.129   2.862  0.1428 -0.0967 -0.2672
   15MOL    C81 5429   0.861   2.003   2.793 -0.3030 -0.0828 -0.4946
   15MOL    C82 5430   0.789   1.905   2.889  0.6413 -0.4519  0.5840
   15MOL    C83 5431   0.717   1.791   2.823 -0.2426 -0.3620  0.3040
   15MOL    C84 5432   0.778   2.048   2.667  0.8442  0.5234 -0.3238
   15MOL    H85 5433   0.937   2.158   2.569 -0.8158 -2.1476  0.9299
   15MOL    H86 5434   0.983   2.306   2.743 -0.3803  0.3493 -0.5867
   15MOL    H87 5435   0.818   2.309   2.801 -1.1886 -0.8592  0.1275
   15MOL    H88 5436   1.021   2.123   2.885 -0.0059 -2.1968 -0.0200
   15MOL    H89 5437   0.867   2.153   2.957 -0.5427 -0.0814 -0.6069
   15MOL    H90 5438   0.945   1.944   2.756  0.4598  0.5985  0.1261
   15MOL    H91 5439   0.711   1.955   2.946  1.9672 -0.5118  2.5009
   15MOL    H92 5440   0.860   1.867   2.963  0.7868 -1.5558 -0.0985
   15MOL    H93 5441   0.795   1.720   2.794 -1.0932  0.1031 -3.4688
   15MOL    H94 5442   0.671   1.813   2.727 -1.3862  0.0433  0.9464
   15MOL    H95 5443   0.674   2.070   2.692  0.6373 -1.1932  0.4094
   15MOL    H96 5444   0.767   1.973   2.588  1.3120  0.9706 -0.8132
   15MOL    C97 5445   0.619   1.713   2.912 -0.8828 -0.3404 -0.4195
   15MOL    C98 5446   0.580   1.573   2.873 -0.2424 -0.4422  0.1292
   15MOL    C99 5447   0.428   1.569   2.845 -0.4916  0.0457  0.1474
   15MOL   C100 5448   0.373   1.686   2.941  0.3338 -0.0136  0.3760
   15MOL   C101 5449   0.230   1.735   2.898 -0.0325 -0.2600  0.3139
   15MOL   C102 5450   0.176   1.860   2.965  0.1704  0.3208 -0.5505
   15MOL   C103 5451   0.486   1.796   2.924 -0.5405  0.2273 -0.1747
   15MOL   H104 5452   0.669   1.719   3.009 -1.3244 -1.2688 -0.1275
   15MOL   H105 5453   0.630   1.534   2.785 -0.3761  1.4996 -0.8230
   15MOL   H106 5454   0.607   1.510   2.958 -0.7314 -2.4132 -1.1299
   15MOL   H107 5455   0.400   1.598   2.744 -1.4439 -1.8654 -0.1621
   15MOL   H108 5456   0.395   1.468   2.868 -0.1875 -0.2008 -0.4804
   15MOL   H109 5457   0.367   1.652   3.044  0.8191 -2.2159 -0.2755
   15MOL   H110 5458   0.241   1.763   2.793 -3.6354 -0.2922 -0.1229
   15MOL   H111 5459   0.156   1.655   2.894 -1.2282  0.8717 -0.4099
   15MOL   H112 5460   0.155   1.839   3.070 -0.1873 -0.3649 -0.7541
   15MOL   H113 5461   0.256   1.934   2.966 -0.0066  0.5375  1.9883
   15MOL   H114 5462   0.469   1.853   2.832 -0.6841  0.3330 -0.0827
   15MOL   H115 5463   0.476   1.867   3.006  0.9364  0.7354 -0.4235
   15MOL   C116 5464   0.048   1.918   2.897 -0.4759  0.8544  0.1640
   15MOL   C117 5465   0.014   2.065   2.940 -0.5011 -0.1313  0.1602
   15MOL   C118 5466   7.620   2.136   2.809  0.0939  0.3061 -0.4266
   15MOL   C119 5467   7.596   2.019   2.700 -0.5987 -0.5538  0.4164
   15MOL   C120 5468   7.612   2.070   2.555 -0.1553  0.3047 -0.1056
   15MOL   C121 5469   7.594   1.962   2.448 -0.4418 -0.2722  0.0769
   15MOL   C122 5470   0.047   1.910   2.741  0.6400 -0.1353 -0.5396
   15MOL   H123 5471   7.616   1.848   2.922 -0.3700  0.5323 -0.3809
   15MOL   H124 5472   0.094   2.113   2.996 -0.1524  0.8424 -1.1442
   15MOL   H125 5473   7.577   2.064   3.009 -0.1563 -1.4080  0.5815
   15MOL   H126 5474   0.057   2.203   2.789 -0.4382  0.9101 -0.6413
   15MOL   H127 5475   7.540   2.209   2.823 -0.2036 -0.2538  0.8919
   15MOL   H128 5476   7.494   1.988   2.719 -1.3917  0.7822 -1.4673
   15MOL   H129 5477   0.066   2.109   2.552 -0.3840  0.7989 -2.0011
   15MOL   H130 5478   7.550   2.156   2.527  1.5834  1.5432 -0.1925
   15MOL   H131 5479   7.497   1.913   2.456 -0.1217 -1.0703 -0.7606
   15MOL   H132 5480   0.026   1.889   2.467 -1.5559 -1.0987  1.6493
   15MOL   H133 5481   0.037   1.813   2.693  1.5152 -0.7130  0.4201
   15MOL   H134 5482   0.145   1.947   2.712 -0.3616  2.5313 -0.6208
   15MOL   C135 5483   7.601   2.014   2.301  0.4630  0.1186  0.5341
   15MOL   C136 5484   0.099   2.039   2.261  0.0186  1.0091  0.1835
   15MOL   C137 5485   0.098   2.028   2.115  0.2092 -0.1158  1.0257
   15MOL   C138 5486   7.639   1.923   2.075  0.6364 -0.1764 -0.0156
   15MOL   C139 5487   7.552   1.954   1.945  0.7498 -0.3112 -1.3557
   15MOL   C140 5488   7.633   1.975   1.821 -0.0563  0.9890  0.1562
   15MOL   C141 5489   7.552   1.909   2.202  0.0560 -0.2196 -0.0531
   15MOL   H142 5490   7.545   2.106   2.290  2.0404  1.0816  0.4033
   15MOL   H143 5491   0.128   2.138   2.296 -0.3550  1.2522 -0.1809
   15MOL   H144 5492   0.152   1.956   2.307  0.2247  0.3863 -1.1679
   15MOL   H145 5493   0.069   2.125   2.075  3.5152  0.6214  0.2273
   15MOL   H146 5494   0.195   2.004   2.070 -0.8564  1.2019 -2.1438
   15MOL   H147 5495   0.047   1.830   2.064 -1.4164 -1.4332  0.0097
   15MOL   H148 5496   7.495   2.045   1.966  2.2308  0.1517  0.9131
   15MOL   H149 5497   7.479   1.876   1.927 -2.1038  1.6232  1.2173
   15MOL   H150 5498   0.067   2.045   1.835  0.6162 -0.0003  1.3986
   15MOL   H151 5499   0.040   1.881   1.808 -1.0120  0.5976 -1.0476
   15MOL   H152 5500   7.566   1.806   2.233 -3.7757 -0.3274  1.7154
   15MOL   H153 5501   7.445   1.921   2.186 -0.0083 -1.3828 -0.4985
   15MOL   C154 5502   7.546   2.015   1.696  0.4880  0.7115  0.4373
   15MOL   C155 5503   7.443   1.910   1.651 -0.6325  0.1353  0.1663
   15MOL   C156 5504   7.424   1.925   1.504  1.2508 -0.2273  0.0196
   15MOL   C157 5505   7.530   2.029   1.458 -0.3807 -0.6997 -0.1582
   15MOL   C158 5506   7.586   2.007   1.314  0.5657  0.3953  0.9543
   15MOL   C159 5507   7.501   2.079   1.209  0.6719 -0.0039 -0.1199
   15MOL   C160 5508   7.632   2.038   1.574 -0.7354  0.7141  1.0083
   15MOL   H161 5509   7.496   2.110   1.715  1.0780  1.0556  0.2821
   15MOL   H162 5510   7.492   1.814   1.669  1.7019  1.5172  1.3798
   15MOL   H163 5511   7.354   1.897   1.713  0.9556 -2.2349  2.0343
   15MOL   H164 5512   7.438   1.829   1.454 -0.5909 -0.6771  0.3437
   15MOL   H165 5513   7.321   1.955   1.486  2.1904  1.8875 -2.2158
   15MOL   H166 5514   7.477   2.123   1.466  0.5894 -0.0179 -1.4396
   15MOL   H167 5515   7.586   1.902   1.286  2.9234  0.4062  0.8836
   15MOL   H168 5516   0.042   2.042   1.315  1.8832 -3.1147 -2.4793
   15MOL   H169 5517   7.490   2.180   1.250 -0.6082  0.1843 -0.9033
   15MOL   H170 5518   7.552   2.090   1.114  0.4041  1.9428 -0.0699
   15MOL   H171 5519   0.055   2.122   1.568 -1.0181  0.9269  0.6772
   15MOL   H172 5520   0.044   1.947   1.573  0.1216  1.2618  1.3232
   15MOL   C173 5521   7.359   2.033   1.164 -0.5676  0.0484  0.7524
   15MOL   C174 5522   7.293   2.129   1.063  0.5856  0.1382  0.5098
   15MOL   C175 5523   7.183   2.053   0.992  0.0556  0.2749 -0.0515
   15MOL   C176 5524   7.226   1.909   1.008  0.7174 -0.6073  0.1034
   15MOL   C177 5525   7.223   1.821   0.888  0.4682  0.3438  0.0841
   15MOL   C178 5526   7.079   1.794   0.838  0.3029 -0.7472  0.0855
   15MOL   C179 5527   7.360   1.905   1.085  0.1663  0.3390 -0.2123
   15MOL   H180 5528   7.288   2.025   1.246 -2.1727  0.6045 -0.5483
   15MOL   H181 5529   7.366   2.164   0.991 -0.3237  0.0360 -0.4873
   15MOL   H182 5530   7.250   2.217   1.112  0.3746  0.7811 -0.8211
   15MOL   H183 5531   7.090   2.069   1.046 -0.1259  0.2461 -0.3522
   15MOL   H184 5532   7.172   2.081   0.887  0.4581 -2.6222 -0.9246
   15MOL   H185 5533   7.162   1.854   1.078 -3.0955  0.6872 -2.1932
   15MOL   H186 5534   7.270   1.725   0.909  0.2337 -0.0327 -1.0390
   15MOL   H187 5535   7.276   1.868   0.805 -2.7039  0.0254 -2.2171
   15MOL   H188 5536   7.020   1.885   0.837 -1.1976 -1.7004  0.8651
   15MOL   H189 5537   7.036   1.717   0.901  2.0471 -1.5094  0.3884
   15MOL   H190 5538   7.445   1.916   1.018 -1.0351 -0.4756 -1.9025
   15MOL   H191 5539   7.363   1.817   1.149  3.6430 -2.0307 -3.4502
   15MOL   C192 5540   7.080   1.750   0.690  0.1381 -0.2803 -0.0305
   15MOL   C193 5541   6.942   1.741   0.624 -0.0613  0.3986  0.4498
   15MOL   C194 5542   6.969   1.667   0.497 -0.1808 -0.1780 -0.7091
   15MOL   C195 5543   7.085   1.567   0.527 -0.2139 -0.2812  0.0954
   15MOL   C196 5544   7.188   1.554   0.417 -0.4866  0.3159  0.8403
   15MOL   C197 5545   7.280   1.435   0.447 -0.0293  0.3243  0.1539
   15MOL   C198 5546   7.146   1.617   0.662 -0.1513 -0.5996  0.1942
   15MOL   H199 5547   7.128   1.830   0.634  0.5061 -1.4543 -1.4151
   15MOL   H200 5548   6.866   1.686   0.680  0.1611 -0.2268  0.1401
   15MOL   H201 5549   6.900   1.830   0.577 -0.7538  0.4767  1.1950
   15MOL   H202 5550   7.000   1.747   0.429 -1.0284 -0.3106 -1.2494
   15MOL   H203 5551   6.885   1.618   0.448 -1.6261 -0.1951  1.6846
   15MOL   H204 5552   7.029   1.475   0.544  1.8801 -1.2283  1.9508
   15MOL   H205 5553   7.244   1.647   0.403 -2.3308  1.6106  1.8808
   15MOL   H206 5554   7.142   1.526   0.322  0.1884  1.8470  0.0396
   15MOL   H207 5555   7.218   1.352   0.479 -0.8929  0.5321 -0.9281
   15MOL   H208 5556   7.332   1.464   0.538  0.6544 -2.0911  0.5490
   15MOL   H209 5557   7.252   1.642   0.661 -0.0334 -0.9005  2.0512
   15MOL   H210 5558   7.130   1.549   0.746  0.3944 -2.2849 -1.0407
   15MOL   C211 5559   7.365   1.387   0.328 -0.1914  0.2923  0.0519
   15MOL   C212 5560   7.434   1.262   0.352 -0.1842  0.4334 -0.6880
   15MOL   C213 5561   7.579   1.281   0.310 -0.3343  0.4133 -0.3045
   15MOL   C214 5562   7.572   1.392   0.206  0.3347  0.4838 -0.1713
   15MOL   C215 5563   0.061   1.463   0.178 -0.3335  0.5104  0.3198
   15MOL   C216 5564   0.054   1.551   0.053  0.6458 -0.0378 -0.6735
   15MOL   C217 5565   7.459   1.482   0.259  0.2250  0.1017 -0.6050
   15MOL   H218 5566   7.290   1.362   0.254  2.1116 -2.8061 -1.3819
   15MOL   H219 5567   7.429   1.214   0.450 -0.2889  2.1584  0.1681
   15MOL   H220 5568   7.391   1.182   0.291 -0.6000 -0.2640  0.4826
   15MOL   H221 5569   7.642   1.312   0.393  1.2680  0.0126 -1.3416
   15MOL   H222 5570   7.611   1.185   0.270 -0.5995 -1.0777  2.9755
   15MOL   H223 5571   7.538   1.344   0.114  0.2224 -0.1993  0.2208
   15MOL   H224 5572   0.141   1.392   0.159 -0.0158  1.3924 -1.7457
   15MOL   H225 5573   0.077   1.523   0.267 -0.5984 -1.1906  1.5359
   15MOL   H226 5574   0.065   1.487   7.612 -1.3631 -1.5672  0.1381
   15MOL   H227 5575   7.601   1.594   0.052  0.4884 -0.2386  2.7487
   15MOL   H228 5576   7.396   1.536   0.188 -1.7963 -1.0751  0.2533
   15MOL   H229 5577   7.498   1.547   0.337 -0.5824 -1.2158  0.9400
   15MOL   C230 5578   0.157   1.672   0.048  0.6570 -0.1748  0.8097
   15MOL   C231 5579   0.305   1.634   0.032 -0.2047 -0.0626  0.4792
   15MOL   C232 5580   0.382   1.756   0.077 -0.0938  0.3070  0.9011
   15MOL   C233 5581   0.296   1.809   0.200  0.5073  0.1796  1.2448
   15MOL   C234 5582   0.321   1.952   0.237  0.0933  0.4573  0.3386
   15MOL   C235 5583   0.464   1.987   0.284 -0.3369 -0.6113 -0.5325
   15MOL   C236 5584   0.155   1.773   0.165  0.8379 -0.1421 -0.2183
   15MOL   H237 5585   0.130   1.732   7.608 -2.1293  1.3803  2.6585
   15MOL   H238 5586   0.335   1.545   0.088 -1.3707 -1.1302 -0.5629
   15MOL   H239 5587   0.334   1.618   7.576 -0.3517  1.2769  0.2237
   15MOL   H240 5588   0.368   1.828   7.643  0.1279 -0.6027  0.0461
   15MOL   H241 5589   0.488   1.744   0.098  0.3588  1.6535 -0.5448
   15MOL   H242 5590   0.310   1.748   0.289  1.5695 -2.1745 -0.4507
   15MOL   H243 5591   0.255   1.980   0.319 -0.7712 -0.2451 -0.1069
   15MOL   H244 5592   0.306   2.020   0.154 -0.7272  0.3504  0.3945
   15MOL   H245 5593   0.495   1.909   0.354 -0.0198  0.1955  0.2263
   15MOL   H246 5594   0.516   1.980   0.189 -1.0363  0.1359 -0.9764
   15MOL   H247 5595   0.091   1.856   0.137  2.9696  2.9276  3.5453
   15MOL   H248 5596   0.115   1.736   0.259  1.2509 -2.1412 -0.7893
   15MOL   C249 5597   0.468   2.122   0.345 -0.2232 -0.5517 -0.5388
   15MOL   C250 5598   0.387   2.138   0.479  0.1485 -0.3234 -0.4303
   15MOL   C251 5599   0.463   2.240   0.559  0.4401  0.1399  0.5828
   15MOL   C252 5600   0.601   2.256   0.504 -0.0565  0.1452 -0.3142
   15MOL   C253 5601   0.626   2.397   0.461  0.3232 -0.8047 -0.0749
   15MOL   C254 5602   0.631   2.503   0.566 -0.5429 -0.6144  0.0647
   15MOL   C255 5603   0.615   2.156   0.385  0.1302 -0.4229 -0.1575
   15MOL   H256 5604   0.428   2.206   0.288 -1.9974  1.1531  3.0479
   15MOL   H257 5605   0.288   2.183   0.470 -0.1969 -0.8835  0.4814
   15MOL   H258 5606   0.398   2.047   0.538  1.1920  1.7054  2.6384
   15MOL   H259 5607   0.461   2.219   0.666  0.3770 -0.1245  0.5316
   15MOL   H260 5608   0.406   2.332   0.552 -0.3227 -0.4042 -0.5913
   15MOL   H261 5609   0.684   2.235   0.572 -0.7234 -1.4217  0.0243
   15MOL   H262 5610   0.555   2.422   0.382  0.1517  2.6114  1.0491
   15MOL   H263 5611   0.715   2.386   0.400 -0.0274  1.9264 -1.1509
   15MOL   H264 5612   0.696   2.469   0.647 -0.9823  2.1234  1.6423
   15MOL   H265 5613   0.529   2.523   0.600  0.1347 -1.2655  2.5966
   15MOL   H266 5614   0.673   2.070   0.418  0.7784  0.1473  0.1967
   15MOL   H267 5615   0.667   2.199   0.299 -0.7131 -0.0486 -0.4868
   15MOL   C268 5616   0.681   2.642   0.521 -0.2711 -0.7097 -0.3377
   15MOL   C269 5617   0.621   2.705   0.396 -0.1641  0.2807  0.5924
   15MOL   C270 5618   0.718   2.825   0.368 -0.2798 -0.1147  0.2481
   15MOL   C271 5619   0.849   2.792   0.444  0.2427  0.2555 -0.0717
   15MOL   C272 5620   0.977   2.802   0.363 -0.4893 -0.0652 -0.3550
   15MOL   C273 5621   1.003   2.946   0.315 -1.0288 -0.2229  0.2945
   15MOL   C274 5622   0.825   2.647   0.502  0.1532 -0.2388 -0.1843
   15MOL   H275 5623   0.665   2.709   0.606  0.7385 -1.6281  0.5934
   15MOL   H276 5624   0.628   2.637   0.310 -0.5839  2.5736 -1.3008
   15MOL   H277 5625   0.517   2.735   0.404 -0.5760 -0.9504  0.0018
   15MOL   H278 5626   0.724   2.838   0.260 -1.6212 -1.6455 -0.0227
   15MOL   H279 5627   0.679   2.920   0.407 -0.2972 -1.1135  2.7735
   15MOL   H280 5628   0.854   2.861   0.529 -0.8138  0.0484  0.1710
   15MOL   H281 5629   0.969   2.743   0.272 -1.2551  1.0844 -1.0442
   15MOL   H282 5630   1.068   2.774   0.416  0.8255 -0.3494 -2.7144
   15MOL   H283 5631   0.914   2.969   0.256 -0.3970  0.0556 -0.5627
   15MOL   H284 5632   1.025   3.008   0.402  0.7685 -1.3050  0.6231
   15MOL   H285 5633   0.856   2.568   0.434 -0.9324 -0.0949 -0.8654
   15MOL   H286 5634   0.862   2.625   0.602  0.1624  2.3611  0.4153
   15MOL   C287 5635   1.120   2.976   0.229  0.1120  0.7491  0.3273
   15MOL   C288 5636   1.133   2.909   0.093 -0.7207  0.4416  0.3390
   15MOL   C289 5637   1.221   2.994   0.005 -0.6685 -0.5488  0.2792
   15MOL   C290 5638   1.245   3.118   0.084 -0.0249 -0.3570 -0.4200
   15MOL   C291 5639   1.242   3.247   7.644  0.3806  0.6144  0.1321
   15MOL   C292 5640   1.282   3.375   0.069 -0.8790 -0.5904  0.6723
   15MOL   C293 5641   1.137   3.119   0.189  0.4316 -0.8093  0.2856
   15MOL   H294 5642   1.204   2.927   0.279 -0.7250  1.3746  2.4214
   15MOL   H295 5643   1.188   2.816   0.106  1.5606  1.4143 -1.8939
   15MOL   H296 5644   1.032   2.896   0.055 -0.6583 -0.1783  0.3879
   15MOL   H297 5645   1.164   3.011   7.561  2.7163 -1.0350 -2.0101
   15MOL   H298 5646   1.317   2.953   7.623 -1.4659 -1.9886 -0.4018
   15MOL   H299 5647   1.343   3.109   0.129  1.1461  1.1697 -2.5826
   15MOL   H300 5648   1.142   3.258   7.601 -0.4703 -0.0466  1.8768
   15MOL   H301 5649   1.304   3.226   7.557  0.3477 -1.4428  0.5760
   15MOL   H302 5650   1.366   3.354   0.135 -0.4619 -1.8636 -0.2472
   15MOL   H303 5651   1.192   3.400   0.124 -2.1239 -1.2722 -1.0133
   15MOL   H304 5652   1.046   3.161   0.146  0.4131 -0.0056  1.0776
   15MOL   H305 5653   1.153   3.182   0.277 -0.7339  0.6679 -0.5515
   15MOL   C306 5654   1.318   3.487   7.623 -0.4471  0.0360  0.1674
   15MOL   C307 5655   1.205   3.538   7.535  0.4883 -0.3105 -0.3940
   15MOL   C308 5656   1.234   3.689   7.503  0.1342  0.2357 -0.4255
   15MOL   C309 5657   1.326   3.737   7.609  0.1236 -0.7633 -0.4141
   15MOL   C310 5658   1.287   3.869   0.037 -0.1546 -0.1514 -0.6171
   15MOL   C311 5659   1.318   4.002   7.614 -0.1130 -0.3036  0.5609
   15MOL   C312 5660   1.336   3.611   0.052  0.4191 -0.4071  0.1431
   15MOL   H313 5661   1.398   3.476   7.550 -1.6275  1.2772 -1.3436
   15MOL   H314 5662   1.202   3.487   7.438  1.4599 -0.6424 -0.2524
   15MOL   H315 5663   1.106   3.537   7.580  1.4482  2.0124  1.8597
   15MOL   H316 5664   1.278   3.700   7.404 -1.3310 -0.2911 -1.1499
   15MOL   H317 5665   1.143   3.747   7.489 -1.2168 -1.8348 -0.6191
   15MOL   H318 5666   1.424   3.749   7.564  0.1167  0.3295 -0.1520
   15MOL   H319 5667   1.180   3.861   0.060 -0.1779  1.7177  0.0040
   15MOL   H320 5668   1.338   3.861   0.133  0.8939  1.3052 -1.0426
   15MOL   H321 5669   1.258   4.083   0.008  1.1843  0.1778  1.5516
   15MOL   H322 5670   1.276   3.990   7.514 -0.7269  0.5708  0.7035
   15MOL   H323 5671   1.261   3.638   0.127 -0.9217 -1.1395 -0.9204
   15MOL   H324 5672   1.434   3.599   0.097  1.2330 -0.5779 -1.6289
   15MOL   C325 5673   1.462   4.060   7.616  0.6291 -0.0247 -0.5972
   15MOL   C326 5674   1.496   4.184   7.530 -0.2708 -0.2884 -0.1520
   15MOL   C327 5675   1.634   4.227   7.584  0.1187  0.4327  0.8327
   15MOL   C328 5676   1.611   4.216   0.087  0.7221 -0.0312 -0.4289
   15MOL   C329 5677   1.728   4.234   0.183 -0.8734 -0.1460 -0.6416
   15MOL   C330 5678   1.691   4.260   0.332 -0.0135  0.7047  0.1983
   15MOL   C331 5679   1.524   4.089   0.106  0.1727  0.3629  0.7574
   15MOL   H332 5680   1.522   3.982   7.569  1.8500 -0.8674  2.3082
   15MOL   H333 5681   1.419   4.256   7.558  0.3170 -0.2318  1.3606
   15MOL   H334 5682   1.500   4.169   7.422  0.4495  1.8905 -0.4494
   15MOL   H335 5683   1.707   4.150   7.565 -3.1588 -2.3631 -1.0237
   15MOL   H336 5684   1.668   4.324   7.546  0.0605  0.3338  0.5317
   15MOL   H337 5685   1.553   4.304   0.114 -1.7027 -1.7378  0.0328
   15MOL   H338 5686   1.783   4.140   0.176 -0.0001  0.3726 -0.8163
   15MOL   H339 5687   1.805   4.300   0.146  0.0697 -0.1063  1.3699
   15MOL   H340 5688   1.625   4.346   0.343  0.3429  0.7620  2.1111
   15MOL   H341 5689   1.644   4.166   0.364  0.2036  0.6940  0.4854
   15MOL   H342 5690   1.448   4.095   0.183 -2.8669  0.8083 -2.1927
   15MOL   H343 5691   1.585   4.002   0.135 -1.9109 -1.4107 -0.0249
   15MOL   C344 5692   1.805   4.277   0.429 -0.3942  0.4791 -0.5925
   15MOL   C345 5693   1.777   4.254   0.579 -0.3202 -0.0301  1.1300
   15MOL   C346 5694   1.892   4.340   0.640 -0.0801 -0.5710  0.1198
   15MOL   C347 5695   1.900   4.460   0.547 -0.0511 -0.1371 -0.1990
   15MOL   C348 5696   2.026   4.555   0.549  0.2676  0.0880 -0.2772
   15MOL   C349 5697   2.008   4.678   0.465 -0.3869 -0.8165  0.1610
   15MOL   C350 5698   1.859   4.416   0.408  0.2981  0.3049 -0.1918
   15MOL   H351 5699   1.882   4.207   0.396  0.5634  1.0627  0.3835
   15MOL   H352 5700   1.794   4.149   0.605  0.7556 -0.7637 -2.2021
   15MOL   H353 5701   1.677   4.290   0.605 -0.4462  0.7737 -0.4141
   15MOL   H354 5702   1.875   4.367   0.744 -2.2232 -0.7957 -0.1476
   15MOL   H355 5703   1.988   4.290   0.634  1.4671  2.4255 -0.9286
   15MOL   H356 5704   1.818   4.520   0.587 -2.2339 -3.3675  0.3383
   15MOL   H357 5705   2.034   4.592   0.652  0.1030  0.2299 -0.3162
   15MOL   H358 5706   2.121   4.505   0.529 -0.9547 -2.6407  0.5183
   15MOL   H359 5707   1.923   4.742   0.493  0.6860  0.6494  0.1371
   15MOL   H360 5708   1.991   4.645   0.362  0.6707 -0.2270 -0.2087
   15MOL   H361 5709   1.793   4.487   0.359  1.0646  1.7805  0.8736
   15MOL   H362 5710   1.952   4.408   0.353  0.3134  0.0620 -0.1334
   15MOL   C363 5711   2.134   4.768   0.466  0.2819 -1.1557 -0.5799
   15MOL   C364 5712   2.121   4.898   0.387  0.2441 -0.3665  0.1511
   15MOL   C365 5713   2.265   4.946   0.359  0.3307  0.4199 -1.1636
   15MOL   C366 5714   2.361   4.832   0.385 -0.0944  0.5536 -0.4145
   15MOL   C367 5715   2.467   4.814   0.274 -0.0493 -0.2436 -0.5157
   15MOL   C368 5716   2.563   4.935   0.267 -0.5706 -0.3388 -0.0507
   15MOL   C369 5717   2.271   4.713   0.411  0.2489 -0.0817 -0.5175
   15MOL   H370 5718   2.148   4.795   0.571 -0.5915 -1.2057 -0.4501
   15MOL   H371 5719   2.069   4.905   0.291  1.5654  1.2973 -0.4711
   15MOL   H372 5720   2.069   4.975   0.443 -0.1921 -1.4532  1.2560
   15MOL   H373 5721   2.275   4.977   0.255 -2.1948 -2.0290 -2.2115
   15MOL   H374 5722   2.296   5.034   0.414  2.6970 -0.7745 -0.5236
   15MOL   H375 5723   2.405   4.836   0.485 -0.2312  1.6089 -0.3890
   15MOL   H376 5724   2.527   4.725   0.291  0.8937  0.5977  0.6807
   15MOL   H377 5725   2.411   4.799   0.182 -0.2967 -0.3131 -0.3550
   15MOL   H378 5726   2.654   4.900   0.218 -2.1497 -1.5830 -2.2043
   15MOL   H379 5727   2.576   4.978   0.366  3.9925 -2.3068  0.3500
   15MOL   H380 5728   2.262   4.639   0.332  0.1502  0.9987 -1.5211
   15MOL   H381 5729   2.317   4.647   0.485  0.9858 -1.4521 -2.1783
   15MOL   H382 5730   2.516   5.013   0.206  1.7449  0.9533 -0.2484
   16MOL     C1 5731   2.953   0.006   1.021 -0.1782 -0.3247 -0.6026
   16MOL     C2 5732   2.914   0.041   0.878 -0.5083 -0.6339 -0.3937
   16MOL     C3 5733   2.798   0.137   0.886 -0.3488 -0.6599  0.3547
   16MOL     C4 5734   2.795   0.209   1.024  0.3614  0.1948 -0.1319
   16MOL     C5 5735   2.650   0.261   1.059  0.5374 -1.3008  0.1045
   16MOL     C6 5736   2.638   0.356   1.181 -0.3876  0.1949 -0.4830
   16MOL     C7 5737   2.855   0.094   1.111 -0.5329 -0.3852  0.6632
   16MOL     H8 5738   2.938   7.548   1.048 -0.8720 -0.4614 -1.4736
   16MOL     H9 5739   2.882   7.607   0.812  1.0488 -3.1181  1.7969
   16MOL    H10 5740   3.002   0.089   0.834 -1.1290  0.5153 -0.3814
   16MOL    H11 5741   2.781   0.201   0.800  0.0883  0.8604  1.3910
   16MOL    H12 5742   2.702   0.085   0.877 -1.9289  2.6346 -3.2671
   16MOL    H13 5743   2.861   0.295   1.022 -1.2987  1.4626 -2.3650
   16MOL    H14 5744   2.605   0.310   0.973  0.2103  0.0718  1.0443
   16MOL    H15 5745   2.576   0.182   1.073  0.1372 -1.3145 -1.8567
   16MOL    H16 5746   2.687   0.313   1.268 -0.0950 -5.4140 -3.2246
   16MOL    H17 5747   2.702   0.440   1.154 -1.0842  0.9983  0.3350
   16MOL    H18 5748   2.905   0.129   1.201  0.6675 -1.0939  0.2841
   16MOL    H19 5749   2.782   0.024   1.152  1.2931 -1.7118  1.7153
   16MOL    H20 5750   3.061   0.018   1.030 -0.1860 -0.7191 -0.0106
   16MOL    C21 5751   2.492   0.402   1.209  0.0295  0.1802  0.3407
   16MOL    C22 5752   2.410   0.290   1.270 -0.3988 -0.2153 -0.9796
   16MOL    C23 5753   2.293   0.362   1.343 -0.2579 -0.3545 -0.1491
   16MOL    C24 5754   2.332   0.507   1.346 -0.5601  0.3263 -0.0044
   16MOL    C25 5755   2.313   0.573   1.486 -0.7954  0.7731  0.0313
   16MOL    C26 5756   2.165   0.582   1.522  0.1722 -0.6709 -0.1755
   16MOL    C27 5757   2.480   0.507   1.309 -0.5738  0.3763 -0.3343
   16MOL    H28 5758   2.443   0.433   1.117 -0.4388  1.4389  1.0063
   16MOL    H29 5759   2.374   0.235   1.183 -1.1989 -1.9897  0.4432
   16MOL    H30 5760   2.475   0.229   1.333 -0.4026  0.3180 -0.4516
   16MOL    H31 5761   2.196   0.347   1.295  0.6630 -2.1924 -1.5454
   16MOL    H32 5762   2.287   0.329   1.447 -0.3601  0.4684  0.1106
   16MOL    H33 5763   2.278   0.558   1.266  0.9598  0.0852 -1.2116
   16MOL    H34 5764   2.359   0.670   1.466  1.9393 -0.3042  0.8771
   16MOL    H35 5765   2.366   0.511   1.558  0.5322 -0.9324 -2.3362
   16MOL    H36 5766   2.145   0.508   1.599 -0.8314 -0.0957  0.1331
   16MOL    H37 5767   2.102   0.560   1.436 -0.4802 -1.1743  0.4263
   16MOL    H38 5768   2.513   0.602   1.267 -0.0877  0.3885  0.0620
   16MOL    H39 5769   2.537   0.489   1.400  1.8187 -1.1917 -2.0544
   16MOL    C40 5770   2.119   0.716   1.589 -0.4581  0.2148 -0.7966
   16MOL    C41 5771   1.969   0.717   1.608  0.1782 -0.5141 -0.1167
   16MOL    C42 5772   1.941   0.812   1.731 -0.0874  0.1798  0.5405
   16MOL    C43 5773   2.059   0.774   1.821  0.0378 -0.0936  0.2009
   16MOL    C44 5774   2.090   0.873   1.933  0.2258  0.0386 -0.3702
   16MOL    C45 5775   1.984   0.875   2.046 -0.0757 -0.2907  0.2851
   16MOL    C46 5776   2.179   0.745   1.728  0.2656 -0.5665  0.9233
   16MOL    H47 5777   2.153   0.799   1.527  0.2879 -0.9923 -2.0601
   16MOL    H48 5778   1.929   0.619   1.634 -0.4437  0.3552  2.3588
   16MOL    H49 5779   1.912   0.746   1.520 -1.4482 -0.3996  0.9489
   16MOL    H50 5780   1.956   0.919   1.716  0.5341  0.0261  0.0281
   16MOL    H51 5781   1.844   0.804   1.779 -0.1099 -0.4348  0.3913
   16MOL    H52 5782   2.051   0.671   1.856  1.3505 -1.0954 -2.3418
   16MOL    H53 5783   2.190   0.843   1.964  0.0741 -0.5205 -0.4023
   16MOL    H54 5784   2.095   0.976   1.900  0.6545 -0.1362 -0.8559
   16MOL    H55 5785   1.884   0.891   2.006 -0.1683 -2.0536 -0.2422
   16MOL    H56 5786   1.999   0.963   2.109  0.7684 -0.3068  0.1140
   16MOL    H57 5787   2.243   0.833   1.719 -0.4206 -0.0986  0.6429
   16MOL    H58 5788   2.250   0.666   1.751  0.7863 -1.3068 -3.0119
   16MOL    C59 5789   1.983   0.756   2.140  0.0441  0.4004 -0.1237
   16MOL    C60 5790   2.113   0.733   2.221  0.1176 -0.0336  0.1759
   16MOL    C61 5791   2.073   0.665   2.351  0.2951 -0.1359 -0.3119
   16MOL    C62 5792   1.937   0.725   2.374 -0.8639  0.6919  0.2459
   16MOL    C63 5793   1.858   0.632   2.470  0.7324 -0.2416 -0.4642
   16MOL    C64 5794   1.713   0.680   2.508  0.1475 -0.0635  0.0946
   16MOL    C65 5795   1.871   0.742   2.236 -0.5097  0.3570  0.4255
   16MOL    H66 5796   1.975   0.670   2.075 -0.4327  0.9302 -0.7753
   16MOL    H67 5797   2.183   0.665   2.172  0.9407 -0.3043  1.6747
   16MOL    H68 5798   2.158   0.832   2.237 -0.6300  0.2615  0.4575
   16MOL    H69 5799   2.066   0.558   2.329 -0.1496  0.0385 -0.9955
   16MOL    H70 5800   2.139   0.692   2.434 -0.5763 -1.7283  0.9564
   16MOL    H71 5801   1.958   0.820   2.422 -1.1133 -0.4650  2.7018
   16MOL    H72 5802   1.920   0.592   2.551 -1.1991  0.6494  1.4935
   16MOL    H73 5803   1.849   0.543   2.408  2.9327 -0.1782 -0.9261
   16MOL    H74 5804   1.718   0.781   2.549  1.4823 -0.5235  1.1092
   16MOL    H75 5805   1.647   0.680   2.421  0.2826  1.5313 -0.0333
   16MOL    H76 5806   1.814   0.656   2.202 -1.1484  0.5270  1.0517
   16MOL    H77 5807   1.797   0.821   2.242 -1.6993 -0.6405 -0.8659
   16MOL    C78 5808   1.661   0.585   2.619  0.0197 -0.5039  0.0146
   16MOL    C79 5809   1.535   0.637   2.683  0.1670 -0.4876 -0.0155
   16MOL    C80 5810   1.448   0.514   2.712 -0.1605 -0.1246  0.0376
   16MOL    C81 5811   1.540   0.391   2.686  0.1545  0.0076 -0.2738
   16MOL    C82 5812   1.465   0.263   2.652  0.0953  0.7173  0.1343
   16MOL    C83 5813   1.546   0.130   2.657  0.5423 -0.5003  0.5887
   16MOL    C84 5814   1.640   0.438   2.584  0.0907 -0.0713 -0.0673
   16MOL    H85 5815   1.736   0.592   2.698  1.4348  0.2967 -1.3835
   16MOL    H86 5816   1.549   0.690   2.777  0.9615 -0.6194 -0.0532
   16MOL    H87 5817   1.484   0.707   2.617  1.2583  0.2354 -0.1030
   16MOL    H88 5818   1.402   0.522   2.810 -1.4700  1.7754 -0.7104
   16MOL    H89 5819   1.364   0.492   2.647 -0.3411  0.3949  0.0968
   16MOL    H90 5820   1.599   0.377   2.777 -2.2183 -1.2760  1.1130
   16MOL    H91 5821   1.416   0.270   2.555 -1.3196  1.4534  0.8827
   16MOL    H92 5822   1.381   0.255   2.721 -0.2317 -0.9680 -0.4323
   16MOL    H93 5823   1.581   0.124   2.760 -3.9673 -0.2756  2.2542
   16MOL    H94 5824   1.623   0.138   2.581 -1.9707  1.3336 -1.8445
   16MOL    H95 5825   1.599   0.443   2.483 -2.5709 -1.2103  0.9185
   16MOL    H96 5826   1.737   0.389   2.580  1.7556  2.7773  2.6823
   16MOL    C97 5827   1.483   7.645   2.612  0.2587  0.2455  0.5569
   16MOL    C98 5828   1.351   7.619   2.679  0.8636 -0.1135  0.1805
   16MOL    C99 5829   1.346   7.462   2.688 -0.0057  0.2709 -0.4237
   16MOL   C100 5830   1.468   7.410   2.610 -0.0974  0.0299  0.1150
   16MOL   C101 5831   1.520   7.274   2.658  0.3020 -0.1550 -0.0539
   16MOL   C102 5832   1.653   7.219   2.594 -0.5393  0.8988 -0.1878
   16MOL   C103 5833   1.572   7.526   2.635  0.0202  0.5264  0.2539
   16MOL   H104 5834   1.464   0.006   2.505 -1.4453  1.2815  0.9344
   16MOL   H105 5835   1.349   0.013   2.779 -0.7326 -1.6405  0.8130
   16MOL   H106 5836   1.263   0.013   2.629 -0.3916 -0.8351  1.7453
   16MOL   H107 5837   1.346   7.430   2.793 -1.6264 -1.5623 -0.9583
   16MOL   H108 5838   1.265   7.415   2.632 -1.5712  0.0445  1.9336
   16MOL   H109 5839   1.438   7.413   2.506  3.4365  1.8364 -0.9121
   16MOL   H110 5840   1.525   7.276   2.767 -0.7183  0.0680 -0.0095
   16MOL   H111 5841   1.449   7.192   2.647  2.4490 -2.0338 -0.4006
   16MOL   H112 5842   1.644   7.226   2.485 -2.7766 -0.1141 -0.1106
   16MOL   H113 5843   1.728   7.295   2.615  0.6416  0.0600 -1.2439
   16MOL   H114 5844   1.615   7.534   2.734  0.8704 -0.3181 -0.0410
   16MOL   H115 5845   1.656   7.516   2.566 -0.7328 -2.6954 -0.2451
   16MOL   C116 5846   1.695   7.077   2.640 -0.9488  0.0394  0.5454
   16MOL   C117 5847   1.599   6.963   2.604 -0.8880 -0.1455  0.2670
   16MOL   C118 5848   1.677   6.865   2.510  0.3162  0.3871 -0.1738
   16MOL   C119 5849   1.820   6.883   2.547 -0.7696 -0.3966  0.2585
   16MOL   C120 5850   1.919   6.826   2.449 -0.4689 -0.4479 -0.2053
   16MOL   C121 5851   1.908   6.677   2.423 -0.1842 -0.0143 -0.1268
   16MOL   C122 5852   1.827   7.032   2.578 -0.4283  0.3927  0.6399
   16MOL   H123 5853   1.726   7.076   2.745 -1.6171 -2.3116  0.7406
   16MOL   H124 5854   1.506   7.002   2.563 -0.5484  2.0209  1.5027
   16MOL   H125 5855   1.570   6.908   2.695 -0.0860  3.2173  2.6426
   16MOL   H126 5856   1.661   6.897   2.407 -0.1854  1.9364  0.3619
   16MOL   H127 5857   1.644   6.763   2.531 -0.4130  0.9279  1.3337
   16MOL   H128 5858   1.865   6.828   2.629  2.5123 -0.7761 -1.7022
   16MOL   H129 5859   2.023   6.834   2.481 -0.6468 -0.4207  0.3827
   16MOL   H130 5860   1.909   6.875   2.353  3.7430  2.6053  0.7885
   16MOL   H131 5861   1.809   6.662   2.381  1.3892 -1.2995 -3.5793
   16MOL   H132 5862   1.916   6.627   2.520 -1.8877 -0.7557 -0.3590
   16MOL   H133 5863   1.921   7.058   2.626  0.9282 -0.3120 -1.5350
   16MOL   H134 5864   1.835   7.081   2.481  1.3035  1.8234  1.4797
   16MOL   C135 5865   2.005   6.628   2.311  0.4635  0.1215 -0.0023
   16MOL   C136 5866   2.150   6.658   2.343  0.4305 -0.1561  0.1717
   16MOL   C137 5867   2.215   6.570   2.242  0.0762  0.1101  0.2132
   16MOL   C138 5868   2.140   6.435   2.268  0.5486 -0.3433  0.0683
   16MOL   C139 5869   2.156   6.356   2.134 -1.0516 -0.2319  0.6041
   16MOL   C140 5870   2.082   6.213   2.134  0.0532  0.0727 -0.3516
   16MOL   C141 5871   1.994   6.477   2.286  0.4076  0.7597 -0.9254
   16MOL   H142 5872   1.990   6.677   2.214 -0.5841 -2.1623 -1.0339
   16MOL   H143 5873   2.182   6.762   2.339  0.9843 -0.2382  2.0068
   16MOL   H144 5874   2.183   6.636   2.444 -0.0410  1.6781  0.7326
   16MOL   H145 5875   2.204   6.606   2.139  1.9660 -2.4454 -0.9487
   16MOL   H146 5876   2.316   6.563   2.280 -0.4949 -0.5829  1.6157
   16MOL   H147 5877   2.166   6.383   2.360 -0.5403  0.4499  0.8350
   16MOL   H148 5878   2.261   6.347   2.107 -0.9464  0.4378  0.7690
   16MOL   H149 5879   2.113   6.417   2.054  1.7498  0.8738 -0.1083
   16MOL   H150 5880   2.108   6.153   2.222  1.2734 -0.9583 -1.3843
   16MOL   H151 5881   1.975   6.212   2.155  0.1479  1.6156  0.2422
   16MOL   H152 5882   1.944   6.427   2.369 -0.1677  0.1116 -1.6697
   16MOL   H153 5883   1.940   6.451   2.196  0.6164 -2.2338 -0.2328
   16MOL   C154 5884   2.094   6.133   2.005 -0.5708 -0.3494 -0.7118
   16MOL   C155 5885   2.019   6.183   1.886  0.7027 -0.0414  0.6905
   16MOL   C156 5886   2.019   6.061   1.789  0.2762  0.4846 -0.1476
   16MOL   C157 5887   2.019   5.936   1.877  0.7641 -0.0051 -0.3290
   16MOL   C158 5888   1.906   5.833   1.855  0.0218 -0.1532 -0.0505
   16MOL   C159 5889   1.908   5.712   1.957  0.4709  0.6369  0.9586
   16MOL   C160 5890   2.037   5.992   2.014 -0.3094  0.4880  0.3779
   16MOL   H161 5891   2.198   6.121   1.975 -0.6235  2.2636 -2.0612
   16MOL   H162 5892   1.912   6.192   1.905  0.5461  0.9799 -0.5449
   16MOL   H163 5893   2.060   6.278   1.850 -2.2718  1.5071  1.2594
   16MOL   H164 5894   1.928   6.065   1.728 -0.1918 -0.3871  0.4755
   16MOL   H165 5895   2.104   6.065   1.722  0.1107  0.9489 -0.3292
   16MOL   H166 5896   2.117   5.893   1.860  0.8337 -0.1048  0.3327
   16MOL   H167 5897   1.928   5.785   1.760  0.1437  1.2015 -0.7118
   16MOL   H168 5898   1.811   5.883   1.839 -0.6557 -1.6132 -0.6546
   16MOL   H169 5899   2.003   5.660   1.971 -1.1063 -2.5862  0.2343
   16MOL   H170 5900   1.887   5.757   2.054 -1.0826  0.5472  0.6679
   16MOL   H171 5901   2.093   5.924   2.080 -0.3436 -0.7085 -0.7963
   16MOL   H172 5902   1.936   5.988   2.056 -0.4247 -1.6458 -0.0386
   16MOL   C173 5903   1.801   5.601   1.937  0.1318  0.0751  0.8874
   16MOL   C174 5904   1.803   5.507   1.814  0.5351  0.8285 -1.0263
   16MOL   C175 5905   1.716   5.392   1.846  0.0737  0.3350 -0.4198
   16MOL   C176 5906   1.739   5.371   2.003 -0.0227  0.9746  0.3377
   16MOL   C177 5907   1.842   5.255   2.026 -0.1126 -0.3380  0.0265
   16MOL   C178 5908   1.788   5.115   1.993  0.5846 -0.1856 -0.5456
   16MOL   C179 5909   1.794   5.502   2.053  0.3345 -0.1037 -0.0417
   16MOL   H180 5910   1.713   5.658   1.911  0.2780 -0.0009  0.2125
   16MOL   H181 5911   1.904   5.466   1.816 -0.7330 -2.4329 -0.0188
   16MOL   H182 5912   1.789   5.552   1.716 -1.3185 -0.8785 -1.5739
   16MOL   H183 5913   1.611   5.418   1.833  0.3271  1.4244 -0.3625
   16MOL   H184 5914   1.731   5.310   1.776  0.3055  1.5615 -1.8244
   16MOL   H185 5915   1.644   5.331   2.040 -0.3480 -0.7985 -2.2466
   16MOL   H186 5916   1.876   5.263   2.129  2.7501 -1.2482 -0.7829
   16MOL   H187 5917   1.928   5.267   1.959  0.8912  0.0209  1.3621
   16MOL   H188 5918   1.865   5.068   1.932 -1.4359 -0.6613 -2.8101
   16MOL   H189 5919   1.711   5.119   1.915  0.1611  1.3016 -0.0759
   16MOL   H190 5920   1.885   5.494   2.113  0.1729 -0.1534  0.1963
   16MOL   H191 5921   1.715   5.541   2.117  0.2936 -0.2525 -0.0017
   16MOL   C192 5922   1.756   5.033   2.118 -0.1134  0.2743 -0.0793
   16MOL   C193 5923   1.737   4.888   2.094  0.2012 -0.1978 -0.4663
   16MOL   C194 5924   1.669   4.845   2.228 -0.0427 -0.3208 -0.1325
   16MOL   C195 5925   1.565   4.957   2.250 -0.2634  0.4340  0.2681
   16MOL   C196 5926   1.531   4.979   2.404 -0.0732  0.0833 -0.2224
   16MOL   C197 5927   1.383   5.013   2.426 -0.1780  0.8215 -0.2858
   16MOL   C198 5928   1.626   5.079   2.176  0.2466 -0.1901 -0.1414
   16MOL   H199 5929   1.833   5.033   2.195  0.7047  1.9342 -0.8768
   16MOL   H200 5930   1.667   4.879   2.011  0.5536  0.2710 -0.8152
   16MOL   H201 5931   1.824   4.829   2.069  1.4663  2.0049 -1.3680
   16MOL   H202 5932   1.742   4.849   2.309  1.6149  0.1665 -1.6138
   16MOL   H203 5933   1.634   4.742   2.227  1.9842 -1.0489  1.1581
   16MOL   H204 5934   1.469   4.933   2.204  0.0069  1.3698 -0.7892
   16MOL   H205 5935   1.599   5.048   2.453 -1.1138  0.8926  0.1092
   16MOL   H206 5936   1.554   4.883   2.448 -3.0502 -0.0604  1.1041
   16MOL   H207 5937   1.321   4.938   2.376 -1.2109  2.2680 -1.1927
   16MOL   H208 5938   1.362   5.101   2.365 -2.3158  0.4754 -0.1151
   16MOL   H209 5939   1.643   5.158   2.250 -3.9947  0.7399 -0.0260
   16MOL   H210 5940   1.564   5.115   2.094 -1.1720 -2.0653  0.0857
   16MOL   C211 5941   1.357   5.039   2.572  0.1574  0.4186 -0.7350
   16MOL   C212 5942   1.305   4.919   2.647  0.2819  0.2130  0.0722
   16MOL   C213 5943   1.235   4.977   2.770  0.3031 -0.0846 -0.0272
   16MOL   C214 5944   1.186   5.118   2.731  0.0716  0.6487 -0.8292
   16MOL   C215 5945   1.033   5.144   2.718  0.2953  0.4826  0.0958
   16MOL   C216 5946   0.991   5.282   2.655  0.0113  0.4055  0.5448
   16MOL   C217 5947   1.237   5.132   2.583 -0.6090 -0.0568  0.3139
   16MOL   H218 5948   1.440   5.088   2.622  0.9247 -2.6359  1.1007
   16MOL   H219 5949   1.230   4.877   2.580 -2.7179  1.0074  2.7960
   16MOL   H220 5950   1.377   4.842   2.673 -0.4178 -0.5451 -0.1962
   16MOL   H221 5951   1.156   4.914   2.811 -0.7031  0.3859 -1.2114
   16MOL   H222 5952   1.309   4.992   2.849  0.2003  0.5249 -0.0507
   16MOL   H223 5953   1.231   5.196   2.793 -1.2174  0.0737  0.8590
   16MOL   H224 5954   1.001   5.152   2.822  0.0650 -0.9435  0.1521
   16MOL   H225 5955   0.971   5.059   2.689  0.5324  0.5136 -0.5140
   16MOL   H226 5956   1.050   5.356   2.708  1.7166 -1.2054  0.9482
   16MOL   H227 5957   1.003   5.298   2.548 -0.0131  0.3718  0.5367
   16MOL   H228 5958   1.277   5.229   2.556 -1.2426 -0.0781 -0.7152
   16MOL   H229 5959   1.160   5.107   2.509  1.0748  0.3880 -1.6117
   16MOL   C230 5960   0.844   5.316   2.674  0.4867  0.0071 -0.9901
   16MOL   C231 5961   0.758   5.234   2.576  0.7830 -0.7434 -0.8638
   16MOL   C232 5962   0.661   5.335   2.515  0.4342  0.5774  0.0818
   16MOL   C233 5963   0.748   5.457   2.496  0.4706  0.1766  0.5431
   16MOL   C234 5964   0.662   5.586   2.507 -0.0445 -1.2418  0.3977
   16MOL   C235 5965   0.530   5.587   2.417  0.4818  0.1192 -0.4951
   16MOL   C236 5966   0.836   5.459   2.621 -0.1800  0.1225  0.3091
   16MOL   H237 5967   0.800   5.306   2.773 -2.0710  0.7460 -2.0171
   16MOL   H238 5968   0.819   5.184   2.500  2.8463 -1.2485  1.0656
   16MOL   H239 5969   0.700   5.154   2.622  2.0552 -2.0464 -1.4673
   16MOL   H240 5970   0.586   5.359   2.591 -0.1737 -0.3348 -0.2228
   16MOL   H241 5971   0.622   5.299   2.420  4.3410 -1.0605 -0.9824
   16MOL   H242 5972   0.812   5.451   2.408 -1.6360 -1.2052 -0.9646
   16MOL   H243 5973   0.714   5.676   2.474  0.5234 -1.7116 -0.0015
   16MOL   H244 5974   0.627   5.613   2.607  0.8956  2.5807 -0.2545
   16MOL   H245 5975   0.469   5.505   2.454 -0.4509  1.6488  1.4629
   16MOL   H246 5976   0.469   5.677   2.428 -0.6700 -0.6708 -0.3394
   16MOL   H247 5977   0.792   5.524   2.696 -0.8545 -0.9305  0.8403
   16MOL   H248 5978   0.934   5.503   2.605  0.2583 -1.5143 -1.8626
   16MOL   C249 5979   0.571   5.570   2.267 -0.4025 -0.4676 -0.0484
   16MOL   C250 5980   0.458   5.551   2.181  0.1129  0.2386  0.3265
   16MOL   C251 5981   0.518   5.553   2.040 -0.8585  0.4991  0.5929
   16MOL   C252 5982   0.624   5.666   2.047  0.8156 -0.0671  0.1160
   16MOL   C253 5983   0.752   5.629   1.971 -0.4310  0.5082  0.6481
   16MOL   C254 5984   0.736   5.657   1.823 -0.2518  0.0998 -0.3668
   16MOL   C255 5985   0.636   5.690   2.198 -0.6185 -0.2722 -0.3236
   16MOL   H256 5986   0.631   5.480   2.257  2.1798  1.2179 -0.1934
   16MOL   H257 5987   0.413   5.453   2.202 -1.5456  0.7028 -0.9873
   16MOL   H258 5988   0.386   5.632   2.192  0.0428  0.7138 -3.1429
   16MOL   H259 5989   0.437   5.564   1.968 -1.5442 -0.9387  1.1326
   16MOL   H260 5990   0.575   5.460   2.037  1.0346  1.5861  1.8032
   16MOL   H261 5991   0.590   5.766   2.024  2.9121  0.4988 -0.6462
   16MOL   H262 5992   0.782   5.528   2.000  1.5697 -0.9663 -5.7264
   16MOL   H263 5993   0.838   5.683   2.012  1.0381 -0.0763 -1.5589
   16MOL   H264 5994   0.720   5.765   1.824 -0.9934  0.0039  1.9548
   16MOL   H265 5995   0.651   5.606   1.779  0.4396 -2.2000  0.8736
   16MOL   H266 5996   0.574   5.775   2.227 -0.7697  0.1880 -1.9520
   16MOL   H267 5997   0.736   5.709   2.237 -0.0944 -1.5371 -0.9936
   16MOL   C268 5998   0.865   5.649   1.739 -0.1074  0.4017 -0.8603
   16MOL   C269 5999   0.868   5.750   1.627  0.0343  1.0355  0.3582
   16MOL   C270 6000   0.927   5.688   1.496  0.3084  0.3058 -0.2809
   16MOL   C271 6001   0.983   5.554   1.545  0.1830  0.1438 -0.4396
   16MOL   C272 6002   0.979   5.442   1.436 -0.4009 -0.4179  0.5191
   16MOL   C273 6003   1.092   5.470   1.346  0.3211  0.3251 -0.5814
   16MOL   C274 6004   0.897   5.512   1.671  0.4084  0.1360  0.3637
   16MOL   H275 6005   0.942   5.668   1.814 -0.7210 -1.6384  0.3321
   16MOL   H276 6006   0.764   5.773   1.607 -1.0094 -1.9080  2.1368
   16MOL   H277 6007   0.918   5.845   1.647 -0.3446  2.2533 -3.9609
   16MOL   H278 6008   0.849   5.679   1.420 -1.4647 -0.0805  1.5371
   16MOL   H279 6009   1.006   5.754   1.461  3.7428 -2.8877  1.0936
   16MOL   H280 6010   1.087   5.566   1.575  0.4818 -0.0580 -1.3629
   16MOL   H281 6011   0.877   5.436   1.397 -0.5345  0.1061  0.7778
   16MOL   H282 6012   0.998   5.339   1.468  2.0165 -0.7267 -1.7512
   16MOL   H283 6013   1.087   5.575   1.318  1.6987  0.3923 -0.6221
   16MOL   H284 6014   1.179   5.465   1.411  0.3997  0.9485 -0.6316
   16MOL   H285 6015   0.805   5.463   1.640  0.9798  0.7996 -2.5349
   16MOL   H286 6016   0.960   5.447   1.732  0.5861 -0.7296 -0.7380
   16MOL   C287 6017   1.098   5.393   1.217 -0.0850  0.3536 -0.3261
   16MOL   C288 6018   0.989   5.424   1.114 -0.2765 -0.0862 -1.0777
   16MOL   C289 6019   1.063   5.434   0.979 -0.3616  0.2495  0.0505
   16MOL   C290 6020   1.196   5.498   1.016 -0.3017  0.3411  0.6356
   16MOL   C291 6021   1.196   5.649   1.027  0.3464  0.4157  0.5852
   16MOL   C292 6022   1.344   5.704   1.032  0.4039 -0.3084 -0.3102
   16MOL   C293 6023   1.232   5.423   1.145  0.0654  0.2503  0.3185
   16MOL   H294 6024   1.091   5.288   1.247 -3.7298  0.5403 -0.3316
   16MOL   H295 6025   0.910   5.348   1.113 -1.9066  1.5691  0.1236
   16MOL   H296 6026   0.937   5.516   1.141  0.9822  0.0084  1.1242
   16MOL   H297 6027   1.005   5.495   0.910  0.2946  0.1450 -0.6009
   16MOL   H298 6028   1.071   5.331   0.945  1.9498  0.2252  0.5361
   16MOL   H299 6029   1.271   5.466   0.944  1.3165 -0.2709  2.5639
   16MOL   H300 6030   1.148   5.669   1.123 -0.5306  0.4516  0.1469
   16MOL   H301 6031   1.144   5.700   0.946  0.7491  0.2902  0.2515
   16MOL   H302 6032   1.403   5.696   0.941  0.1654  0.9772 -0.5964
   16MOL   H303 6033   1.408   5.642   1.094  1.2835  1.0952  0.2338
   16MOL   H304 6034   1.294   5.487   1.207 -1.1790  3.2631 -1.4243
   16MOL   H305 6035   1.291   5.337   1.115  0.2538  0.5884 -0.2938
   16MOL   C306 6036   1.357   5.845   1.092  0.3985  0.2869 -0.6635
   16MOL   C307 6037   1.299   5.953   0.998 -0.6240 -0.2981  0.9187
   16MOL   C308 6038   1.250   6.057   1.093  0.3551 -0.2129  0.2326
   16MOL   C309 6039   1.207   5.991   1.223  0.0188  0.1318 -0.4058
   16MOL   C310 6040   1.058   5.962   1.226 -0.1155 -0.6788  0.5710
   16MOL   C311 6041   0.965   6.085   1.264  0.8536 -0.1623 -0.0501
   16MOL   C312 6042   1.296   5.867   1.230  0.4449 -0.4017 -0.8187
   16MOL   H313 6043   1.462   5.861   1.117  0.7281  0.3120 -2.0546
   16MOL   H314 6044   1.378   5.986   0.932 -0.8611 -0.0748  0.7502
   16MOL   H315 6045   1.206   5.923   0.950  0.4262  0.8085 -1.8914
   16MOL   H316 6046   1.326   6.134   1.109  0.4135  0.0544 -1.3031
   16MOL   H317 6047   1.171   6.110   1.040  0.6121 -0.5596 -0.5070
   16MOL   H318 6048   1.240   6.059   1.302  0.8892 -1.9478  1.0489
   16MOL   H319 6049   1.026   5.914   1.134 -1.0117 -0.9760  1.0358
   16MOL   H320 6050   1.052   5.880   1.298 -0.7751 -1.3376 -0.2316
   16MOL   H321 6051   0.954   6.159   1.185  0.0788  0.8058  0.9516
   16MOL   H322 6052   1.025   6.142   1.335 -0.8599  1.1558  0.3803
   16MOL   H323 6053   1.249   5.781   1.279 -0.5443 -0.8165 -2.4452
   16MOL   H324 6054   1.380   5.893   1.294 -1.1177  0.7549  0.8419
   16MOL   C325 6055   0.827   6.059   1.328  0.3623 -0.0135 -0.5929
   16MOL   C326 6056   0.776   6.199   1.378  0.4387 -0.6769 -0.9210
   16MOL   C327 6057   0.622   6.185   1.381 -0.1179  0.3866  0.0693
   16MOL   C328 6058   0.588   6.070   1.278 -0.5351  0.2482  0.2530
   16MOL   C329 6059   0.476   5.982   1.335  0.0452  0.0100 -0.7272
   16MOL   C330 6060   0.522   5.879   1.440  0.7989  0.8244  0.1380
   16MOL   C331 6061   0.721   6.002   1.235 -0.1604  0.3871  0.2373
   16MOL   H332 6062   0.828   5.998   1.419 -0.1008  1.0417  0.1373
   16MOL   H333 6063   0.792   6.273   1.300 -0.7657  2.3484  1.5852
   16MOL   H334 6064   0.809   6.247   1.470  2.3152 -1.2101 -1.2833
   16MOL   H335 6065   0.588   6.153   1.480  1.5989 -0.2962  0.4685
   16MOL   H336 6066   0.575   6.281   1.364 -1.9855 -0.2830  1.3310
   16MOL   H337 6067   0.539   6.120   1.195 -0.5656 -0.4367 -0.1456
   16MOL   H338 6068   0.405   6.042   1.392  0.2849  1.7970 -2.2304
   16MOL   H339 6069   0.428   5.926   1.254  1.4983 -0.1539 -1.4972
   16MOL   H340 6070   0.567   5.793   1.390 -2.9805 -0.1927 -1.7121
   16MOL   H341 6071   0.593   5.929   1.506  1.2556  0.8380 -0.3578
   16MOL   H342 6072   0.743   6.032   1.133  1.4982  1.8036  0.9865
   16MOL   H343 6073   0.721   5.893   1.243 -1.1133  0.3689  0.0178
   16MOL   C344 6074   0.404   5.830   1.528 -0.5389  0.2816  0.5517
   16MOL   C345 6075   0.444   5.738   1.642 -0.0746 -0.7683 -0.8355
   16MOL   C346 6076   0.334   5.634   1.656  0.0517 -0.2499  0.0683
   16MOL   C347 6077   0.285   5.617   1.512 -0.0730 -0.1051  0.3257
   16MOL   C348 6078   0.150   5.554   1.498 -0.0979  0.3721 -0.0401
   16MOL   C349 6079   0.123   5.416   1.563 -0.0863 -0.1724 -0.2958
   16MOL   C350 6080   0.303   5.755   1.445 -0.7899  0.1835  0.5941
   16MOL   H351 6081   0.350   5.916   1.567  1.4587  1.8955 -0.1119
   16MOL   H352 6082   0.462   5.803   1.727  2.3207 -2.2548 -0.1590
   16MOL   H353 6083   0.536   5.687   1.614  0.1434 -0.5039 -0.5970
   16MOL   H354 6084   0.386   5.540   1.672  0.4099  0.0319  0.5533
   16MOL   H355 6085   0.249   5.655   1.720  0.7268 -1.7753  1.4826
   16MOL   H356 6086   0.360   5.555   1.464 -0.1486 -1.3908  1.8653
   16MOL   H357 6087   0.065   5.619   1.522  0.9690  2.2535 -1.2019
   16MOL   H358 6088   0.138   5.534   1.391 -0.3447  1.8423 -0.2993
   16MOL   H359 6089   0.160   5.413   1.666 -0.6468  1.3913 -0.0400
   16MOL   H360 6090   0.197   5.351   1.515  0.3247 -0.3070  0.5126
   16MOL   H361 6091   0.344   5.730   1.347 -0.5080 -0.4323  0.8686
   16MOL   H362 6092   0.214   5.815   1.427 -0.9145 -0.1086  0.2311
   16MOL   C363 6093   7.628   5.363   1.548 -0.2198 -0.4173 -0.3752
   16MOL   C364 6094   7.587   5.250   1.632  0.0809 -0.0883  0.3541
   16MOL   C365 6095   7.495   5.158   1.550  0.8416 -0.4049  0.0735
   16MOL   C366 6096   7.464   5.243   1.423  0.1868  0.2093  0.6728
   16MOL   C367 6097   7.416   5.151   1.307 -0.7140 -0.8136  0.5604
   16MOL   C368 6098   7.437   5.202   1.164 -0.2658 -0.4583  0.2206
   16MOL   C369 6099   7.594   5.321   1.404 -0.7999  0.4369 -0.2912
   16MOL   H370 6100   7.560   5.444   1.575 -0.9099 -0.9248 -0.5796
   16MOL   H371 6101   0.021   5.184   1.662  2.6787  1.7828 -2.2474
   16MOL   H372 6102   7.531   5.279   1.721  1.7290  1.4846  0.9301
   16MOL   H373 6103   7.562   5.074   1.536  1.0759 -0.3313  0.7201
   16MOL   H374 6104   7.403   5.127   1.599 -1.5402  2.9293 -2.0610
   16MOL   H375 6105   7.390   5.321   1.440 -2.1338 -1.7319 -0.1685
   16MOL   H376 6106   7.479   5.062   1.305  0.3746 -0.0310 -1.6683
   16MOL   H377 6107   7.309   5.133   1.319 -0.7776 -1.2580 -0.6014
   16MOL   H378 6108   7.397   5.300   1.140 -2.6119 -1.7493 -1.3264
   16MOL   H379 6109   7.412   5.130   1.086  2.2069 -1.9751  0.7663
   16MOL   H380 6110   0.026   5.252   1.373  1.1797  3.1639 -1.5501
   16MOL   H381 6111   7.563   5.388   1.325 -0.2478 -1.7280 -2.4031
   16MOL   H382 6112   7.543   5.222   1.152 -0.3672  0.6674  1.1055
   17MOL     C1 6113   7.447   0.170   5.056 -0.0259  0.0107 -0.5134
   17MOL     C2 6114   7.416   0.059   4.962 -0.0046 -0.6629  0.1971
   17MOL     C3 6115   7.327   0.114   4.857  0.0453 -0.2247  0.9359
   17MOL     C4 6116   7.389   0.249   4.825 -0.8867  0.7762 -0.4468
   17MOL     C5 6117   7.309   0.345   4.723 -0.3588 -0.3818  0.0581
   17MOL     C6 6118   7.281   0.278   4.594  0.6560  0.4479 -0.1986
   17MOL     C7 6119   7.410   0.292   4.971 -0.0337  0.2620 -0.2083
   17MOL     H8 6120   7.398   0.174   5.153  2.0857  0.6978  0.5510
   17MOL     H9 6121   7.367   7.632   5.025 -1.7980  0.4819  0.1790
   17MOL    H10 6122   7.501   0.005   4.919  0.9119 -0.2340  1.4230
   17MOL    H11 6123   7.332   0.039   4.778  0.8971 -1.2108  1.9019
   17MOL    H12 6124   7.225   0.132   4.891  0.2514 -0.2547  1.5761
   17MOL    H13 6125   7.484   0.231   4.774 -1.6346 -0.7696 -1.3301
   17MOL    H14 6126   7.222   0.369   4.785 -1.0556 -1.7550 -0.3759
   17MOL    H15 6127   7.368   0.435   4.708 -0.3185 -0.0433  2.0531
   17MOL    H16 6128   7.372   0.241   4.546  1.6169 -0.1521  2.0620
   17MOL    H17 6129   7.211   0.196   4.603 -1.7978  2.7068  2.0527
   17MOL    H18 6130   7.486   0.369   4.985 -0.3801  0.7567 -1.0459
   17MOL    H19 6131   7.321   0.346   5.004 -0.9077 -0.7288 -0.9190
   17MOL    H20 6132   7.554   0.180   5.074  0.2788 -3.4197 -0.1311
   17MOL    C21 6133   7.220   0.375   4.490  0.1664 -0.2282  0.5014
   17MOL    C22 6134   7.313   0.492   4.454 -0.8460 -0.4400  0.0823
   17MOL    C23 6135   7.277   0.522   4.310  0.1034 -0.3828 -0.2108
   17MOL    C24 6136   7.175   0.420   4.256 -0.4383  0.4258  0.3086
   17MOL    C25 6137   7.192   0.404   4.108 -0.4000 -0.0586 -0.0524
   17MOL    C26 6138   7.138   0.529   4.036  1.0193 -0.4961 -0.2866
   17MOL    C27 6139   7.194   0.298   4.358  0.3851  0.3776  0.1470
   17MOL    H28 6140   7.122   0.401   4.529 -0.0356 -0.7814  0.3723
   17MOL    H29 6141   7.290   0.576   4.520  2.0814 -0.1203  0.7419
   17MOL    H30 6142   7.411   0.445   4.461 -0.2034  0.1898 -3.6390
   17MOL    H31 6143   7.239   0.624   4.313 -0.8177 -0.7860  2.7745
   17MOL    H32 6144   7.369   0.519   4.251 -0.0567 -0.4026 -0.4620
   17MOL    H33 6145   7.073   0.456   4.268 -0.7865 -0.9839  1.7266
   17MOL    H34 6146   7.124   0.324   4.078 -0.0544 -0.4684  0.2418
   17MOL    H35 6147   7.289   0.371   4.069 -0.1411  1.6748 -0.9395
   17MOL    H36 6148   7.185   0.616   4.083 -0.3964  0.5446 -0.7800
   17MOL    H37 6149   7.030   0.540   4.038  1.0616 -0.1294  0.1852
   17MOL    H38 6150   7.101   0.242   4.364 -0.3068  1.2005 -2.1383
   17MOL    H39 6151   7.271   0.228   4.325  0.4591  0.1818  0.7302
   17MOL    C40 6152   7.165   0.537   3.885  0.1126  0.5095  0.6073
   17MOL    C41 6153   7.103   0.417   3.810 -0.4629 -0.1801 -0.1452
   17MOL    C42 6154   7.099   0.461   3.661 -0.0220 -0.3158  0.2307
   17MOL    C43 6155   7.057   0.610   3.672 -0.2916 -0.7804 -1.0924
   17MOL    C44 6156   7.097   0.701   3.559 -0.0608  0.6309 -0.2275
   17MOL    C45 6157   7.240   0.681   3.506 -0.3757  0.2958 -0.5148
   17MOL    C46 6158   7.108   0.662   3.813 -0.6476  0.6958 -0.0719
   17MOL    H47 6159   7.273   0.535   3.869  0.0547 -0.1029  0.2711
   17MOL    H48 6160   7.008   0.391   3.857  0.3962 -0.7089  1.3074
   17MOL    H49 6161   7.159   0.325   3.825 -2.2443 -0.9999  1.5781
   17MOL    H50 6162   7.198   0.440   3.621  1.3935  0.3453  3.2632
   17MOL    H51 6163   7.023   0.404   3.606  0.1569 -0.8893  0.5805
   17MOL    H52 6164   6.948   0.615   3.682 -0.1416  1.1216 -0.1887
   17MOL    H53 6165   7.027   0.676   3.479  1.2184  0.7332 -1.3889
   17MOL    H54 6166   7.091   0.803   3.596 -1.2981  0.9462 -1.2509
   17MOL    H55 6167   7.243   0.592   3.444  1.8922 -0.0327  0.0272
   17MOL    H56 6168   7.319   0.678   3.582 -1.1884 -0.7104  0.2972
   17MOL    H57 6169   7.180   0.744   3.820  0.8883 -0.6151 -0.3092
   17MOL    H58 6170   7.026   0.710   3.867  0.4980  0.2102  2.1554
   17MOL    C59 6171   7.290   0.795   3.408  0.6330 -0.0414 -0.0150
   17MOL    C60 6172   7.220   0.789   3.271 -0.0704 -0.4168  0.2690
   17MOL    C61 6173   7.261   0.924   3.218  0.3554  0.2578 -0.0346
   17MOL    C62 6174   7.248   1.014   3.336 -0.0273  0.0919  0.2935
   17MOL    C63 6175   7.304   1.155   3.308 -0.0736  0.0100 -0.4270
   17MOL    C64 6176   7.290   1.261   3.418 -0.1332 -0.0416  0.7306
   17MOL    C65 6177   7.297   0.943   3.453 -0.0890  0.7222 -0.7512
   17MOL    H66 6178   7.396   0.775   3.389  0.5597 -0.7320  0.2576
   17MOL    H67 6179   7.235   0.700   3.211  1.7992  0.3832 -0.5015
   17MOL    H68 6180   7.113   0.795   3.290 -0.4001 -0.1644 -1.5794
   17MOL    H69 6181   7.361   0.908   3.177  1.3089  3.2427  0.9530
   17MOL    H70 6182   7.202   0.970   3.138  1.1470 -0.2833 -0.9521
   17MOL    H71 6183   7.141   1.034   3.347  0.1979  1.5189 -0.0547
   17MOL    H72 6184   7.278   1.193   3.209  1.7026 -0.3999 -1.0690
   17MOL    H73 6185   7.410   1.132   3.315  0.3575  2.3915  1.0138
   17MOL    H74 6186   7.320   1.239   3.520 -0.4714 -2.1297  0.4004
   17MOL    H75 6187   7.357   1.340   3.385 -0.8991  0.3590  0.1137
   17MOL    H76 6188   7.402   0.965   3.475  0.1978 -1.8398  0.7434
   17MOL    H77 6189   7.229   0.958   3.537 -1.2744 -1.2231 -1.3241
   17MOL    C78 6190   7.148   1.310   3.421 -0.2349  0.3106  0.7173
   17MOL    C79 6191   7.131   1.423   3.522 -0.1265  0.6509 -0.7034
   17MOL    C80 6192   7.030   1.524   3.468 -0.2136 -0.1747 -0.0956
   17MOL    C81 6193   7.010   1.496   3.316 -1.0953  0.4992  0.0797
   17MOL    C82 6194   7.009   1.631   3.227  0.4524 -0.1484 -0.2393
   17MOL    C83 6195   6.975   1.603   3.077 -0.3717 -0.3019 -0.0686
   17MOL    C84 6196   7.108   1.381   3.286 -0.4084 -0.6667  1.1630
   17MOL    H85 6197   7.068   1.237   3.434  2.1133 -2.0007  2.5171
   17MOL    H86 6198   7.097   1.388   3.619  2.3067  1.3896  0.4725
   17MOL    H87 6199   7.225   1.471   3.550 -0.8961  0.9174  1.4363
   17MOL    H88 6200   6.940   1.525   3.529  0.3383 -2.1538  0.7756
   17MOL    H89 6201   7.074   1.623   3.475 -0.8095 -0.0284  1.7885
   17MOL    H90 6202   6.916   1.443   3.306 -0.0906 -1.0449 -1.5890
   17MOL    H91 6203   7.099   1.691   3.243  0.8828 -0.4692 -1.4237
   17MOL    H92 6204   6.935   1.697   3.272  0.1845 -1.9825  2.1456
   17MOL    H93 6205   6.879   1.552   3.072 -0.4573  0.1061 -3.6131
   17MOL    H94 6206   7.039   1.531   3.026 -0.5168 -0.5015  0.0312
   17MOL    H95 6207   7.204   1.418   3.250 -0.6632  0.2743  1.4263
   17MOL    H96 6208   7.066   1.309   3.216 -0.9300 -0.5139  1.3139
   17MOL    C97 6209   6.979   1.727   2.984 -0.0388  0.0445 -0.3499
   17MOL    C98 6210   6.904   1.706   2.855  0.0085 -0.4247  0.3369
   17MOL    C99 6211   7.007   1.663   2.747 -0.1811  0.0784 -0.1341
   17MOL   C100 6212   7.142   1.715   2.801 -0.2965 -0.2200  0.4259
   17MOL   C101 6213   7.259   1.612   2.798 -0.2681  0.2276  0.5261
   17MOL   C102 6214   7.283   1.565   2.649  0.0570  0.0459 -0.0386
   17MOL   C103 6215   7.122   1.766   2.947 -0.7253 -0.4490  0.6651
   17MOL   H104 6216   6.935   1.811   3.038 -0.5763 -1.3015  1.3598
   17MOL   H105 6217   6.825   1.633   2.875 -0.0878 -0.0313  1.4246
   17MOL   H106 6218   6.854   1.801   2.838 -0.8493 -1.0309 -0.5964
   17MOL   H107 6219   7.006   1.554   2.746  1.9645  0.0342 -0.5123
   17MOL   H108 6220   6.980   1.706   2.650  0.3704  1.9372  0.5064
   17MOL   H109 6221   7.167   1.804   2.744  0.7288 -0.6074  0.2670
   17MOL   H110 6222   7.350   1.655   2.841  1.2111 -1.9018 -0.3737
   17MOL   H111 6223   7.239   1.528   2.864 -1.4512  0.5896  0.6475
   17MOL   H112 6224   7.207   1.492   2.619 -0.6076  1.2809 -1.4386
   17MOL   H113 6225   7.286   1.651   2.582  2.1782  0.1603  0.1750
   17MOL   H114 6226   7.191   1.730   3.024  0.9007  3.0693  0.9458
   17MOL   H115 6227   7.139   1.873   2.937 -1.8948 -0.5002 -2.1364
   17MOL   C116 6228   7.418   1.489   2.631  0.6461  0.2061  0.4176
   17MOL   C117 6229   7.427   1.416   2.498 -0.1481  0.3254 -0.1485
   17MOL   C118 6230   7.559   1.434   2.438 -0.9079 -0.4012 -0.2669
   17MOL   C119 6231   7.641   1.503   2.545 -0.0288 -0.1276 -0.4188
   17MOL   C120 6232   0.108   1.590   2.485 -0.4775 -0.1245  0.8634
   17MOL   C121 6233   0.237   1.516   2.437 -1.0793  0.6478 -0.0474
   17MOL   C122 6234   7.541   1.586   2.626 -0.0633 -0.0108 -0.2984
   17MOL   H123 6235   7.426   1.418   2.714  2.0859  0.4591  0.5105
   17MOL   H124 6236   7.338   1.437   2.438 -1.8594  0.6983  2.4199
   17MOL   H125 6237   7.410   1.313   2.529  1.3003 -0.5848 -2.2811
   17MOL   H126 6238   7.569   1.491   2.345  1.1639 -0.0626  0.1322
   17MOL   H127 6239   7.605   1.338   2.414 -1.4500 -1.1620  1.6621
   17MOL   H128 6240   0.041   1.425   2.604  1.7347 -0.1130 -1.7711
   17MOL   H129 6241   0.129   1.658   2.568 -2.1480  0.1313  1.1015
   17MOL   H130 6242   0.058   1.657   2.415  3.3284  3.4812  1.4007
   17MOL   H131 6243   0.204   1.459   2.350 -0.2319 -1.6041  1.0548
   17MOL   H132 6244   0.277   1.448   2.512 -0.8491  1.2485  0.3828
   17MOL   H133 6245   7.566   1.619   2.727  0.1719 -1.3907  0.1066
   17MOL   H134 6246   7.505   1.674   2.571  0.1020  0.7069  0.7275
   17MOL   C135 6247   0.345   1.623   2.404 -0.1599 -0.2493  0.0484
   17MOL   C136 6248   0.489   1.581   2.399  0.5819  0.2004 -1.0349
   17MOL   C137 6249   0.537   1.601   2.257  0.2758  0.2247  0.0652
   17MOL   C138 6250   0.416   1.617   2.165 -0.2014 -0.2060 -0.1142
   17MOL   C139 6251   0.449   1.697   2.047  0.2317 -0.4253  0.5999
   17MOL   C140 6252   0.329   1.715   1.953 -0.5631 -0.0969  0.5064
   17MOL   C141 6253   0.320   1.681   2.264 -0.2788  0.4672  0.0955
   17MOL   H142 6254   0.325   1.713   2.462 -0.8234  0.1650 -0.8127
   17MOL   H143 6255   0.538   1.649   2.469 -0.6087 -0.6816  0.6816
   17MOL   H144 6256   0.501   1.480   2.437  4.0622  0.5995 -0.9093
   17MOL   H145 6257   0.593   1.694   2.246  0.8796 -0.2530 -0.9947
   17MOL   H146 6258   0.612   1.530   2.225  0.0369  0.2096 -0.4657
   17MOL   H147 6259   0.378   1.518   2.137 -1.1031  0.7633 -2.4961
   17MOL   H148 6260   0.530   1.643   1.999  1.1667  0.1224  1.5576
   17MOL   H149 6261   0.494   1.790   2.082  0.2364  0.2617 -1.1774
   17MOL   H150 6262   0.265   1.626   1.958 -0.2663 -0.3693 -0.5157
   17MOL   H151 6263   0.264   1.798   1.978 -1.2818 -0.3733 -0.4413
   17MOL   H152 6264   0.214   1.690   2.241 -1.2016 -2.7342  2.7063
   17MOL   H153 6265   0.349   1.786   2.267  1.2383  0.0787 -0.5064
   17MOL   C154 6266   0.376   1.714   1.806  0.5635  0.1647 -0.0455
   17MOL   C155 6267   0.423   1.846   1.764  0.0498  0.0492 -0.4156
   17MOL   C156 6268   0.392   1.860   1.613 -0.1524  0.6223 -0.0863
   17MOL   C157 6269   0.335   1.728   1.564  0.4520  0.5720  0.0821
   17MOL   C158 6270   0.237   1.750   1.455 -0.1365  0.9960  0.0198
   17MOL   C159 6271   0.227   1.618   1.379  0.3589 -0.3433  0.1155
   17MOL   C160 6272   0.277   1.669   1.695 -0.2103 -0.0221 -0.0315
   17MOL   H161 6273   0.457   1.643   1.790 -0.7206 -1.2431 -0.4948
   17MOL   H162 6274   0.386   1.936   1.814  2.6854  0.8411  0.2017
   17MOL   H163 6275   0.531   1.838   1.776 -0.2154 -3.6390  0.0583
   17MOL   H164 6276   0.318   1.937   1.592 -2.3517 -1.6351 -0.8590
   17MOL   H165 6277   0.483   1.894   1.563  0.7775 -1.8439 -0.1113
   17MOL   H166 6278   0.416   1.666   1.527 -0.2290 -0.2457 -0.0616
   17MOL   H167 6279   0.262   1.834   1.390 -1.3661  1.7835  0.5340
   17MOL   H168 6280   0.147   1.776   1.511 -0.2240 -0.7640  0.7486
   17MOL   H169 6281   0.317   1.621   1.318  0.3489  0.7153  0.1521
   17MOL   H170 6282   0.247   1.530   1.441 -0.2428 -1.3213 -1.0458
   17MOL   H171 6283   0.256   1.562   1.701 -0.7904  0.0120 -1.2805
   17MOL   H172 6284   0.179   1.711   1.718 -0.4166 -1.0375  0.9951
   17MOL   C173 6285   0.110   1.590   1.292  0.2389 -0.1600  0.6039
   17MOL   C174 6286   0.115   1.447   1.226  0.6346 -0.4525 -1.2585
   17MOL   C175 6287   7.625   1.388   1.253 -0.3866 -0.4259 -0.1485
   17MOL   C176 6288   7.527   1.498   1.292  0.5783  0.0494 -0.3059
   17MOL   C177 6289   7.401   1.446   1.365 -0.1057  0.0781  0.4338
   17MOL   C178 6290   7.286   1.546   1.349 -0.3574  0.3367 -0.3524
   17MOL   C179 6291   7.620   1.586   1.366  0.2026  0.3251  0.0403
   17MOL   H180 6292   0.100   1.670   1.218 -0.0239  1.2649  2.1584
   17MOL   H181 6293   0.192   1.381   1.267  0.6143 -0.3269 -1.0162
   17MOL   H182 6294   0.145   1.467   1.123 -0.0220  0.2058 -1.3243
   17MOL   H183 6295   7.591   1.326   1.169 -0.8023 -0.9004  0.3642
   17MOL   H184 6296   7.619   1.315   1.334 -2.2425  1.6167  1.6259
   17MOL   H185 6297   7.478   1.546   1.208  1.0011  0.2412 -0.4472
   17MOL   H186 6298   7.433   1.418   1.465  0.1897 -0.6795  0.1359
   17MOL   H187 6299   7.365   1.353   1.320  0.8171  0.7249 -1.7428
   17MOL   H188 6300   7.240   1.523   1.253  0.0940 -0.8974 -0.2781
   17MOL   H189 6301   7.319   1.650   1.343 -1.1981  0.5393 -1.5903
   17MOL   H190 6302   7.636   1.536   1.462 -1.1343 -1.8213 -0.7952
   17MOL   H191 6303   7.566   1.680   1.380  0.5139  0.2604  1.7227
   17MOL   C192 6304   7.172   1.516   1.448  0.2607 -0.5975 -0.4042
   17MOL   C193 6305   7.032   1.561   1.400  0.1226 -0.5936  0.2303
   17MOL   C194 6306   6.952   1.591   1.530 -0.5468  0.5830 -0.3784
   17MOL   C195 6307   7.061   1.659   1.617  0.0559  0.1155  0.5386
   17MOL   C196 6308   7.025   1.666   1.760 -0.0050  0.2550 -0.1479
   17MOL   C197 6309   7.128   1.747   1.838 -0.1109  0.4607 -0.0710
   17MOL   C198 6310   7.192   1.587   1.582  0.5096 -0.0436  0.0156
   17MOL   H199 6311   7.179   1.412   1.479 -3.7067 -0.4540  1.2230
   17MOL   H200 6312   7.046   1.656   1.349  2.6135 -1.4783 -0.8473
   17MOL   H201 6313   6.981   1.501   1.324 -1.6336 -0.4581  1.2887
   17MOL   H202 6314   6.915   1.498   1.573 -0.0031 -0.2977 -1.7976
   17MOL   H203 6315   6.862   1.651   1.515 -0.8794 -0.2697 -1.9180
   17MOL   H204 6316   7.081   1.756   1.573  3.9926 -1.4633 -1.4192
   17MOL   H205 6317   7.029   1.564   1.799 -1.2466  0.4275  0.4283
   17MOL   H206 6318   6.925   1.706   1.776 -0.5149 -0.1724 -2.1673
   17MOL   H207 6319   7.156   1.834   1.780 -3.4848  1.6021 -0.1004
   17MOL   H208 6320   7.221   1.692   1.856 -0.7512 -0.7711 -0.4540
   17MOL   H209 6321   7.213   1.512   1.658  4.2413  1.5642  0.6787
   17MOL   H210 6322   7.274   1.658   1.581  1.4533 -1.1191  0.4159
   17MOL   C211 6323   7.078   1.794   1.971 -0.0396 -0.4795  0.4687
   17MOL   C212 6324   6.958   1.891   1.972  0.5607 -0.5956 -0.2395
   17MOL   C213 6325   6.979   1.970   2.104 -0.2623 -0.3769  0.5995
   17MOL   C214 6326   7.097   1.913   2.183  1.0925  0.2805  0.1093
   17MOL   C215 6327   7.163   2.015   2.282  0.5982  0.0311  0.4562
   17MOL   C216 6328   7.067   2.043   2.397  0.1961 -0.4998 -0.4621
   17MOL   C217 6329   7.181   1.868   2.065  0.7096  0.2667 -0.4745
   17MOL   H218 6330   7.042   1.700   2.014 -0.6569  0.0763  1.1795
   17MOL   H219 6331   6.964   1.960   1.888 -1.3128  1.2553  1.1044
   17MOL   H220 6332   6.864   1.836   1.972  0.8074 -1.0248 -0.7711
   17MOL   H221 6333   6.999   2.075   2.083  0.0920 -0.1673  1.9225
   17MOL   H222 6334   6.892   1.965   2.170 -0.9112  1.1641 -0.1160
   17MOL   H223 6335   7.061   1.827   2.240  0.6741  1.0166  0.9842
   17MOL   H224 6336   7.197   2.100   2.222  2.0824 -0.5925  0.4119
   17MOL   H225 6337   7.251   1.969   2.324  0.9785 -0.0421 -0.4117
   17MOL   H226 6338   6.986   2.107   2.361  1.2555  1.5892  0.7971
   17MOL   H227 6339   7.016   1.956   2.438  0.9487 -0.5009  0.4764
   17MOL   H228 6340   7.261   1.800   2.094 -1.1008 -2.5924 -2.0215
   17MOL   H229 6341   7.235   1.951   2.019  0.4597 -1.2135 -3.5667
   17MOL   C230 6342   7.134   2.125   2.507 -0.1862 -0.0044  0.4764
   17MOL   C231 6343   7.244   2.051   2.577  0.2045 -0.0960  0.0842
   17MOL   C232 6344   7.248   2.111   2.715 -0.0896 -0.1622  0.3505
   17MOL   C233 6345   7.096   2.132   2.753 -0.3652 -0.3782  0.3250
   17MOL   C234 6346   7.070   2.245   2.863 -0.2464  0.3772 -0.7761
   17MOL   C235 6347   7.098   2.190   3.006  0.2105 -0.2211  0.6061
   17MOL   C236 6348   7.036   2.157   2.617 -0.3956 -0.7470 -0.1841
   17MOL   H237 6349   7.161   2.219   2.459  1.1105 -0.5683  0.0999
   17MOL   H238 6350   7.232   1.944   2.596 -1.2764  0.0392 -0.0596
   17MOL   H239 6351   7.338   2.056   2.522 -0.3834  1.0786 -0.8184
   17MOL   H240 6352   7.300   2.207   2.719 -0.6860  0.1384  1.1074
   17MOL   H241 6353   7.294   2.043   2.786  1.5866  0.8052  0.2090
   17MOL   H242 6354   7.043   2.042   2.784 -1.0147  0.2255  1.0006
   17MOL   H243 6355   6.965   2.272   2.869 -0.5879 -1.1449  0.4272
   17MOL   H244 6356   7.133   2.334   2.857  0.3924  0.0852  1.1135
   17MOL   H245 6357   7.039   2.257   3.068  2.8291  2.6842  0.0442
   17MOL   H246 6358   7.050   2.093   3.020 -2.5310  1.2288  1.6030
   17MOL   H247 6359   7.009   2.262   2.609  0.6056 -0.5314 -0.8377
   17MOL   H248 6360   6.941   2.111   2.588 -1.8875  2.2976 -0.3088
   17MOL   C249 6361   7.248   2.195   3.048  0.0047 -0.4909 -0.0024
   17MOL   C250 6362   7.297   2.336   3.088 -0.1112 -0.1806 -0.1310
   17MOL   C251 6363   7.244   2.335   3.233 -0.5731 -0.0376  0.0563
   17MOL   C252 6364   7.243   2.187   3.286 -0.4181  0.2877  0.4532
   17MOL   C253 6365   7.341   2.163   3.398  0.1429  0.0830  0.4379
   17MOL   C254 6366   7.333   2.020   3.459 -0.5991 -0.2437 -0.6163
   17MOL   C255 6367   7.283   2.106   3.165 -0.2430 -0.2069  0.4564
   17MOL   H256 6368   7.303   2.151   2.966  0.3580  0.6580 -0.3905
   17MOL   H257 6369   7.406   2.337   3.082 -0.0684  1.1498  0.6909
   17MOL   H258 6370   7.251   2.413   3.026 -0.5299  0.3076  0.7764
   17MOL   H259 6371   7.142   2.372   3.230  0.0678  1.8675  0.6073
   17MOL   H260 6372   7.292   2.407   3.299  1.2323 -0.4256 -0.7908
   17MOL   H261 6373   7.144   2.149   3.313 -0.6193 -0.8171 -1.6881
   17MOL   H262 6374   7.334   2.245   3.470 -0.9901 -0.8727  1.4436
   17MOL   H263 6375   7.441   2.180   3.357 -0.0184  1.2120  0.5010
   17MOL   H264 6376   7.306   1.945   3.386  1.1631 -1.0734 -0.4352
   17MOL   H265 6377   7.242   2.014   3.519 -0.0988  0.3997  0.2265
   17MOL   H266 6378   7.231   2.010   3.154  0.4985 -0.4789 -0.7277
   17MOL   H267 6379   7.390   2.089   3.164 -0.2398 -0.1764 -2.0953
   17MOL   C268 6380   7.447   1.968   3.544 -0.0415  0.1238  0.1141
   17MOL   C269 6381   7.572   1.956   3.463  0.0395  0.0118 -0.0215
   17MOL   C270 6382   7.640   1.834   3.520 -0.0874  0.8826 -0.2769
   17MOL   C271 6383   7.562   1.780   3.640  0.3227  0.4612  0.0901
   17MOL   C272 6384   7.562   1.629   3.650  0.2648 -0.3348 -0.6841
   17MOL   C273 6385   0.058   1.580   3.679  0.1678  0.9700  0.0372
   17MOL   C274 6386   7.423   1.832   3.612  0.3955  0.0628  0.0958
   17MOL   H275 6387   7.469   2.036   3.626 -1.6955  0.3058  0.4412
   17MOL   H276 6388   7.546   1.940   3.358  1.8539 -0.0334 -0.4831
   17MOL   H277 6389   7.627   2.047   3.487  1.2078 -1.1229  1.6715
   17MOL   H278 6390   7.645   1.754   3.447 -1.3048  0.3341  0.2376
   17MOL   H279 6391   0.090   1.859   3.563 -0.7792 -1.0710  2.6252
   17MOL   H280 6392   7.599   1.829   3.729  1.8265 -0.4098 -0.0405
   17MOL   H281 6393   7.519   1.591   3.557 -0.6255 -0.0694 -0.3844
   17MOL   H282 6394   7.489   1.596   3.723 -0.7136 -0.6077 -1.7742
   17MOL   H283 6395   0.137   1.640   3.636 -0.4293  0.8914 -1.1843
   17MOL   H284 6396   0.069   1.579   3.788  0.3939 -0.2519  0.0137
   17MOL   H285 6397   7.378   1.758   3.545  0.7003  0.2445 -0.3032
   17MOL   H286 6398   7.363   1.827   3.703  1.6726 -0.5108  0.9240
   17MOL   C287 6399   0.086   1.432   3.646  1.1013  0.0671  0.4350
   17MOL   C288 6400   7.621   1.331   3.699  0.1522  0.1883 -0.9666
   17MOL   C289 6401   0.016   1.202   3.627  0.1818  0.2139  0.7370
   17MOL   C290 6402   0.118   1.230   3.516 -0.0334  0.1107 -0.3384
   17MOL   C291 6403   0.098   1.147   3.400  0.2657 -0.8089 -0.3572
   17MOL   C292 6404   0.111   0.992   3.425 -0.3775 -0.4870 -0.0248
   17MOL   C293 6405   0.095   1.382   3.500 -0.5597 -0.0677  0.6069
   17MOL   H294 6406   0.181   1.416   3.698  1.5486  0.9363 -0.0831
   17MOL   H295 6407   7.615   1.332   3.808  1.8259  1.3168 -0.8750
   17MOL   H296 6408   7.516   1.346   3.674 -0.2921  0.1741  0.7683
   17MOL   H297 6409   7.575   1.154   3.585  0.4857 -0.6701  1.1002
   17MOL   H298 6410   0.060   1.129   3.696 -0.4266  1.3604  2.3723
   17MOL   H299 6411   0.218   1.216   3.557 -0.6167  1.4992  1.6249
   17MOL   H300 6412   0.179   1.160   3.328 -0.9911  2.0369 -1.3214
   17MOL   H301 6413   0.003   1.166   3.350 -0.7556 -3.4709  0.4384
   17MOL   H302 6414   0.064   0.961   3.518  0.7081 -0.6326  0.4809
   17MOL   H303 6415   0.214   0.957   3.428  0.5065  2.0803  0.8681
   17MOL   H304 6416   0.001   1.405   3.450  0.7690  0.7149 -1.6483
   17MOL   H305 6417   0.168   1.439   3.442 -0.9151  1.0354  1.2321
   17MOL   C306 6418   0.032   0.901   3.325 -0.1942  0.9403  0.2381
   17MOL   C307 6419   0.090   0.902   3.182 -0.7237 -0.2179  0.3091
   17MOL   C308 6420   0.083   0.753   3.126  0.7333 -0.5601  0.5145
   17MOL   C309 6421   7.647   0.674   3.228 -0.5037 -0.2833  0.9259
   17MOL   C310 6422   0.031   0.523   3.226  0.0120 -0.2173 -0.3995
   17MOL   C311 6423   7.589   0.451   3.129  1.0619 -0.1695 -0.2003
   17MOL   C312 6424   0.035   0.746   3.358  0.0791 -0.0483 -0.3979
   17MOL   H313 6425   7.576   0.934   3.312 -0.1422  0.7457 -0.6793
   17MOL   H314 6426   0.041   0.971   3.114  1.1975 -0.4251 -1.3335
   17MOL   H315 6427   0.195   0.929   3.196 -0.8935 -0.2193  1.6615
   17MOL   H316 6428   0.034   0.754   3.028  0.3932 -0.2904  0.6889
   17MOL   H317 6429   0.186   0.719   3.109  0.2856 -0.5289 -2.4906
   17MOL   H318 6430   7.542   0.698   3.210  0.3146  1.6998 -1.3968
   17MOL   H319 6431   0.137   0.507   3.206 -0.1178  1.1423 -2.2919
   17MOL   H320 6432   0.002   0.493   3.326 -2.3503  2.4252 -0.2162
   17MOL   H321 6433   7.610   0.348   3.102  4.3682  0.8627 -1.8437
   17MOL   H322 6434   7.595   0.515   3.041  1.7266 -0.5985 -0.4679
   17MOL   H323 6435   0.137   0.717   3.383 -0.2060  0.2893  1.2404
   17MOL   H324 6436   7.609   0.702   3.426 -0.3528  0.0262 -0.8080
   17MOL   C325 6437   7.440   0.444   3.168  0.2662  1.1046  0.5245
   17MOL   C326 6438   7.346   0.441   3.049 -0.1059  0.0881 -0.9038
   17MOL   C327 6439   7.227   0.360   3.108 -0.3843 -0.5139  1.0601
   17MOL   C328 6440   7.294   0.250   3.197  0.5215 -0.3359  0.4523
   17MOL   C329 6441   7.202   0.205   3.311  0.4107  0.3922  0.3048
   17MOL   C330 6442   7.283   0.099   3.398  0.4671 -0.0582 -0.4450
   17MOL   C331 6443   7.421   0.308   3.241  0.6643 -0.4999  0.0900
   17MOL   H332 6444   7.403   0.529   3.225 -0.2366  0.4410  1.2071
   17MOL   H333 6445   7.404   0.407   2.963  0.9250  1.2162 -0.6753
   17MOL   H334 6446   7.308   0.543   3.039 -0.4595  0.0874  0.3802
   17MOL   H335 6447   7.156   0.424   3.161  0.7469 -0.1563  2.1600
   17MOL   H336 6448   7.169   0.328   3.021 -1.3275  0.5025  1.3002
   17MOL   H337 6449   7.315   0.167   3.130 -1.5364 -0.0970 -0.5205
   17MOL   H338 6450   7.175   0.289   3.375  3.9665  1.1268  0.9876
   17MOL   H339 6451   7.112   0.162   3.268  0.0762 -0.4927  1.8547
   17MOL   H340 6452   7.329   0.027   3.330  0.3720 -0.0450 -0.5246
   17MOL   H341 6453   7.367   0.140   3.453 -1.4721  4.4132 -0.6068
   17MOL   H342 6454   7.499   0.234   3.219 -0.5862 -1.4357 -1.2426
   17MOL   H343 6455   7.420   0.337   3.346 -1.9885 -2.2051  0.5782
   17MOL   C344 6456   7.204   0.025   3.504 -0.1377 -0.5520 -0.0557
   17MOL   C345 6457   7.216   0.091   3.642 -0.5164  0.2635  0.3228
   17MOL   C346 6458   7.209   7.619   3.737 -0.5257 -0.2118  0.4715
   17MOL   C347 6459   7.212   7.493   3.657 -0.1246 -0.7650  0.9531
   17MOL   C348 6460   7.084   7.407   3.652 -0.0807 -0.1493 -0.3455
   17MOL   C349 6461   7.046   7.338   3.783  0.5546  0.5575  0.8567
   17MOL   C350 6462   7.258   7.534   3.520  1.0741 -0.3559 -0.1894
   17MOL   H351 6463   7.098   0.023   3.482  0.2404 -0.4327 -2.0290
   17MOL   H352 6464   7.130   0.155   3.660 -0.9041  0.2386 -1.3427
   17MOL   H353 6465   7.298   0.161   3.653  0.9388 -0.9958 -2.0856
   17MOL   H354 6466   7.297   7.636   3.799  0.9027 -0.3051 -1.4778
   17MOL   H355 6467   7.115   7.622   3.792 -0.6327 -0.6368  0.3115
   17MOL   H356 6468   7.301   7.439   3.690 -1.0224 -2.3018  0.8826
   17MOL   H357 6469   6.997   7.457   3.610  1.2489  0.1356 -2.8630
   17MOL   H358 6470   7.111   7.330   3.579  0.3420  0.4868 -0.8698
   17MOL   H359 6471   7.043   7.418   3.858 -0.6952 -0.9562  2.4521
   17MOL   H360 6472   7.123   7.262   3.798  1.0627  0.4012 -2.1605
   17MOL   H361 6473   7.366   7.548   3.526  1.1283 -1.0465  0.5077
   17MOL   H362 6474   7.244   7.455   3.446  1.4628 -0.9943  0.4052
   17MOL   C363 6475   6.901   7.280   3.778 -0.0841  0.3842  0.2283
   17MOL   C364 6476   6.847   7.239   3.916 -0.4243 -0.5444 -0.2826
   17MOL   C365 6477   6.771   7.111   3.911 -0.5523 -0.3765 -0.4923
   17MOL   C366 6478   6.782   7.066   3.767  0.6377  0.2735  0.5025
   17MOL   C367 6479   6.805   6.919   3.748  0.1292  0.1309 -0.3104
   17MOL   C368 6480   6.705   6.823   3.815 -0.2358  0.1074 -0.3367
   17MOL   C369 6481   6.900   7.143   3.705  0.2654  0.3472 -0.5864
   17MOL   H370 6482   6.832   7.345   3.724  2.2610  1.3182 -1.7737
   17MOL   H371 6483   6.912   7.248   4.002 -2.9486 -0.2623  1.6401
   17MOL   H372 6484   6.768   7.312   3.930 -0.0713 -0.2655  0.2421
   17MOL   H373 6485   6.807   7.049   3.994 -0.9059  0.5519  0.3668
   17MOL   H374 6486   6.669   7.141   3.935 -0.5112  0.7845 -1.7097
   17MOL   H375 6487   6.688   7.101   3.725 -0.2456  2.1172  3.8584
   17MOL   H376 6488   6.815   6.886   3.644 -0.6860  1.0431 -0.6946
   17MOL   H377 6489   6.903   6.888   3.782 -0.2744 -0.3537  0.4157
   17MOL   H378 6490   6.731   6.721   3.785  1.3019  0.3363  0.1609
   17MOL   H379 6491   6.601   6.848   3.798  0.5708  3.2967 -0.9386
   17MOL   H380 6492   6.988   7.081   3.720  0.3970  0.8682  0.8780
   17MOL   H381 6493   6.889   7.153   3.597  0.9554 -0.5177 -0.7396
   17MOL   H382 6494   6.721   6.831   3.922 -1.0673  4.8249 -0.4426
   18MOL     C1 6495   2.990   1.268   4.420  0.0870  0.3475 -0.1410
   18MOL     C2 6496   3.015   1.412   4.379 -0.4221 -0.0776  0.2138
   18MOL     C3 6497   2.947   1.500   4.477  0.2695 -0.2754 -0.5304
   18MOL     C4 6498   2.874   1.410   4.581  0.5504  0.3514 -0.3347
   18MOL     C5 6499   2.737   1.461   4.640  0.0007  0.4056  0.0596
   18MOL     C6 6500   2.744   1.556   4.758  0.0955 -0.0367 -0.0223
   18MOL     C7 6501   2.864   1.275   4.510 -1.1855 -0.1928  0.0837
   18MOL     H8 6502   2.989   1.203   4.333 -2.3234 -1.7442  1.3835
   18MOL     H9 6503   2.982   1.449   4.283  0.7265 -0.8539 -0.4903
   18MOL    H10 6504   3.123   1.425   4.375 -0.5637  1.3474  0.6763
   18MOL    H11 6505   3.023   1.562   4.525  0.1271 -0.0849 -0.5510
   18MOL    H12 6506   2.875   1.564   4.426 -0.0438 -1.6551 -1.8688
   18MOL    H13 6507   2.943   1.396   4.664  1.1563 -1.0390 -1.0559
   18MOL    H14 6508   2.679   1.494   4.553 -1.5390 -2.1481  0.0623
   18MOL    H15 6509   2.678   1.374   4.667 -1.3028  1.0745 -0.5133
   18MOL    H16 6510   2.793   1.486   4.826  2.3603  0.8055 -0.7196
   18MOL    H17 6511   2.795   1.650   4.735 -0.5373  0.8247  2.0505
   18MOL    H18 6512   2.856   1.198   4.587  4.0007 -0.0231  0.9949
   18MOL    H19 6513   2.775   1.264   4.449 -1.5279 -2.4224  0.9263
   18MOL    H20 6514   3.077   1.234   4.477  0.7067  0.1031 -1.2197
   18MOL    C21 6515   2.606   1.591   4.815  0.6187  0.0618 -0.5171
   18MOL    C22 6516   2.607   1.639   4.960  0.0132 -1.0060 -0.0379
   18MOL    C23 6517   2.508   1.754   4.968 -0.3264  0.0651 -0.0878
   18MOL    C24 6518   2.437   1.766   4.834 -0.6755  0.2281  0.7093
   18MOL    C25 6519   2.393   1.907   4.798  0.3376  0.3053  0.5056
   18MOL    C26 6520   2.306   1.976   4.907 -0.3832  0.0912  0.7990
   18MOL    C27 6521   2.543   1.706   4.739 -0.9952 -0.6375  0.4229
   18MOL    H28 6522   2.551   1.497   4.804 -2.8978  2.1415 -1.8747
   18MOL    H29 6523   2.572   1.558   5.024 -0.1161 -0.4165  0.6504
   18MOL    H30 6524   2.707   1.668   4.993  0.7405 -0.6954 -2.4381
   18MOL    H31 6525   2.448   1.731   5.056  1.9160 -2.8351  0.8001
   18MOL    H32 6526   2.549   1.852   4.992 -0.4646 -0.2358  1.3979
   18MOL    H33 6527   2.355   1.695   4.820 -1.0464  0.6424  0.7538
   18MOL    H34 6528   2.346   1.903   4.700 -0.5218  0.3740  0.9140
   18MOL    H35 6529   2.483   1.966   4.779 -1.1660  2.4424 -0.1188
   18MOL    H36 6530   2.371   2.025   4.980  1.2936  1.5129 -1.5722
   18MOL    H37 6531   2.244   1.907   4.964  0.4230  1.1124  2.9795
   18MOL    H38 6532   2.512   1.681   4.637  1.0019  0.2948 -0.4370
   18MOL    H39 6533   2.618   1.784   4.727 -1.5427 -0.3597 -1.3351
   18MOL    C40 6534   2.203   2.073   4.845 -0.3293 -0.0848 -0.1320
   18MOL    C41 6535   2.124   2.157   4.951 -0.1266  0.1326  0.7269
   18MOL    C42 6536   2.088   2.289   4.880  0.6230  0.4808  0.3198
   18MOL    C43 6537   2.200   2.314   4.785  0.1177 -0.0353  0.0112
   18MOL    C44 6538   2.165   2.409   4.663 -0.7806  0.0788  0.7017
   18MOL    C45 6539   2.106   2.549   4.691  0.1431 -0.3000  0.0343
   18MOL    C46 6540   2.260   2.177   4.740  0.9520 -0.9056 -0.6863
   18MOL    H47 6541   2.127   2.027   4.782 -0.4623  0.0974 -0.1075
   18MOL    H48 6542   2.192   2.182   5.032 -2.1762 -1.4250  2.9612
   18MOL    H49 6543   2.039   2.102   4.990 -1.3654 -0.1952 -2.2459
   18MOL    H50 6544   1.990   2.291   4.831 -0.2184 -0.1104  1.9632
   18MOL    H51 6545   2.097   2.361   4.961 -0.6287  0.8720  0.1207
   18MOL    H52 6546   2.274   2.355   4.855  1.8874  0.8805 -2.3328
   18MOL    H53 6547   2.254   2.418   4.600 -0.1843  2.0945  1.7747
   18MOL    H54 6548   2.093   2.354   4.603 -1.1148  0.4419  0.7701
   18MOL    H55 6549   2.187   2.609   4.733  0.0456  0.4495 -0.8433
   18MOL    H56 6550   2.030   2.544   4.770  1.9272  2.7675  2.0725
   18MOL    H57 6551   2.224   2.152   4.640  0.1962 -0.5139 -0.5198
   18MOL    H58 6552   2.368   2.175   4.754  0.8253 -0.2682  0.4288
   18MOL    C59 6553   2.047   2.618   4.571 -0.2462 -0.1308  0.2477
   18MOL    C60 6554   1.946   2.729   4.613  0.5590 -0.0680  0.4936
   18MOL    C61 6555   1.936   2.810   4.484 -0.7301 -0.6018  0.4203
   18MOL    C62 6556   2.078   2.819   4.434 -0.1571 -0.0726 -0.4422
   18MOL    C63 6557   2.077   2.861   4.282 -0.5417  0.0590  0.0755
   18MOL    C64 6558   2.227   2.890   4.246 -0.0786  0.0895 -0.2122
   18MOL    C65 6559   2.139   2.683   4.469 -0.4139 -0.4068 -1.0865
   18MOL    H66 6560   1.986   2.551   4.511  2.5477 -2.2994 -0.2974
   18MOL    H67 6561   1.851   2.689   4.649 -0.2317 -1.7562 -3.1953
   18MOL    H68 6562   1.989   2.788   4.693 -1.6455  2.1720  0.0960
   18MOL    H69 6563   1.879   2.749   4.414 -1.5456 -0.4513  0.9610
   18MOL    H70 6564   1.886   2.904   4.505  1.6862  0.6153  0.9983
   18MOL    H71 6565   2.141   2.898   4.475  1.0182 -0.9956 -0.4640
   18MOL    H72 6566   2.021   2.953   4.262 -1.3424 -0.4353  0.0259
   18MOL    H73 6567   2.026   2.792   4.215  1.2666 -0.1932 -1.0755
   18MOL    H74 6568   2.266   2.964   4.316  0.4253 -0.8530  0.5271
   18MOL    H75 6569   2.291   2.803   4.263  0.0931  0.0620 -0.9758
   18MOL    H76 6570   2.145   2.615   4.384  2.0018 -1.1695 -0.3627
   18MOL    H77 6571   2.240   2.700   4.507 -0.8746  0.3807 -0.1942
   18MOL    C78 6572   2.243   2.936   4.102 -0.6246 -0.3528  0.8389
   18MOL    C79 6573   2.383   2.951   4.054  0.7361 -0.0570 -0.4267
   18MOL    C80 6574   2.375   2.952   3.900  1.3069  0.1767 -0.0869
   18MOL    C81 6575   2.262   2.858   3.869 -0.3043  0.4801 -0.4590
   18MOL    C82 6576   2.304   2.724   3.807 -0.3659 -0.3949  0.0222
   18MOL    C83 6577   2.342   2.734   3.654  0.0382  0.1590  0.4918
   18MOL    C84 6578   2.198   2.835   4.000  0.1176  0.6324 -0.5280
   18MOL    H85 6579   2.189   3.030   4.093  0.5282  0.2079 -0.3122
   18MOL    H86 6580   2.430   3.039   4.097 -0.7956  0.9515 -0.7634
   18MOL    H87 6581   2.440   2.860   4.074 -0.4477 -0.5986  0.5822
   18MOL    H88 6582   2.355   3.052   3.862 -3.2993 -0.9481 -0.8977
   18MOL    H89 6583   2.467   2.915   3.856  1.7631  0.3596  0.7037
   18MOL    H90 6584   2.195   2.923   3.811  1.0360  0.6330 -1.8802
   18MOL    H91 6585   2.236   2.640   3.821  0.6739 -1.1261  0.8173
   18MOL    H92 6586   2.391   2.684   3.859  1.5943  1.8691 -1.3823
   18MOL    H93 6587   2.420   2.809   3.645  2.1063 -1.8463  1.0504
   18MOL    H94 6588   2.258   2.773   3.597 -1.1534 -1.3592  1.1720
   18MOL    H95 6589   2.236   2.744   4.046 -1.2490  0.5987  0.5856
   18MOL    H96 6590   2.089   2.834   3.998  0.1110 -0.4510 -0.0948
   18MOL    C97 6591   2.376   2.604   3.589 -0.1133  0.3429 -0.1084
   18MOL    C98 6592   2.515   2.552   3.624 -0.4230  0.3956 -0.1983
   18MOL    C99 6593   2.603   2.598   3.505  0.1712 -0.6525  0.0664
   18MOL   C100 6594   2.511   2.588   3.381  0.4421  0.8423 -0.0179
   18MOL   C101 6595   2.560   2.673   3.265 -0.7393 -0.9563  0.1614
   18MOL   C102 6596   2.609   2.823   3.287  0.3014  0.1486  0.0675
   18MOL   C103 6597   2.375   2.626   3.435  0.0621  0.0756 -0.7811
   18MOL   H104 6598   2.304   2.529   3.624 -1.6563  1.5074 -0.7600
   18MOL   H105 6599   2.554   2.587   3.720 -2.4648 -1.0055  1.1596
   18MOL   H106 6600   2.519   2.443   3.626  1.3953  0.4226 -0.7327
   18MOL   H107 6601   2.631   2.696   3.542 -1.1745  0.4773 -1.8048
   18MOL   H108 6602   2.695   2.541   3.500  0.2680 -0.4992  0.1073
   18MOL   H109 6603   2.512   2.482   3.354  1.9100  1.3811 -2.2082
   18MOL   H110 6604   2.643   2.615   3.224 -0.1166  1.4471 -2.1570
   18MOL   H111 6605   2.480   2.673   3.191 -0.9854 -1.4598  0.4331
   18MOL   H112 6606   2.550   2.888   3.352 -1.3142 -1.0043 -0.2111
   18MOL   H113 6607   2.699   2.819   3.347 -0.4297  0.9121  1.2377
   18MOL   H114 6608   2.356   2.731   3.415  1.4963  0.4013 -0.4183
   18MOL   H115 6609   2.298   2.566   3.385 -0.3872  1.5051 -1.8452
   18MOL   C116 6610   2.642   2.893   3.148  0.4412 -0.6100  0.4920
   18MOL   C117 6611   2.526   2.904   3.052  0.5177 -0.8331 -0.0882
   18MOL   C118 6612   2.568   3.020   2.957  0.6142  0.3071  0.3325
   18MOL   C119 6613   2.681   3.104   3.024  0.2006 -0.4304 -0.9196
   18MOL   C120 6614   2.637   3.253   3.020  0.0395 -0.8009  0.3160
   18MOL   C121 6615   2.759   3.331   3.073 -0.0932 -0.4319  0.2168
   18MOL   C122 6616   2.692   3.035   3.158 -0.2768 -0.4185 -0.5125
   18MOL   H123 6617   2.713   2.833   3.092 -0.8471 -0.7887 -0.9828
   18MOL   H124 6618   2.433   2.936   3.098 -0.1534 -1.9038 -0.6605
   18MOL   H125 6619   2.499   2.807   3.009  0.0961 -1.1285  0.8197
   18MOL   H126 6620   2.484   3.083   2.928 -0.4409 -1.4392 -0.4683
   18MOL   H127 6621   2.614   2.974   2.869 -1.3226 -0.6036 -0.2491
   18MOL   H128 6622   2.777   3.089   2.975 -0.0670  0.5762 -1.7591
   18MOL   H129 6623   2.550   3.272   3.083 -1.1601  1.0545 -1.8477
   18MOL   H130 6624   2.621   3.279   2.916 -0.0079  1.1491  0.7949
   18MOL   H131 6625   2.842   3.301   3.009  0.4416  0.7503  0.3531
   18MOL   H132 6626   2.783   3.298   3.174  1.2992 -0.1834 -0.0194
   18MOL   H133 6627   2.796   3.040   3.190 -0.2775  0.9585 -0.6633
   18MOL   H134 6628   2.634   3.091   3.232  0.2395  0.6154 -0.8695
   18MOL   C135 6629   2.748   3.484   3.051  0.7890 -0.4660  0.4768
   18MOL   C136 6630   2.671   3.556   3.163 -0.9501  0.0555  0.2853
   18MOL   C137 6631   2.708   3.702   3.169  0.0281  0.3332 -0.3944
   18MOL   C138 6632   2.847   3.708   3.104 -0.5108 -0.4470  0.1425
   18MOL   C139 6633   2.866   3.823   3.013  0.7378 -0.1994  0.0835
   18MOL   C140 6634   3.000   3.838   2.932 -0.0505  0.1759 -0.0156
   18MOL   C141 6635   2.877   3.570   3.048  0.5207  0.0563  0.2634
   18MOL   H142 6636   2.701   3.503   2.955 -0.3400 -2.0055  0.7035
   18MOL   H143 6637   2.567   3.533   3.140 -0.0958 -0.1640 -3.6332
   18MOL   H144 6638   2.698   3.506   3.256 -0.6016  0.1104  0.2123
   18MOL   H145 6639   2.626   3.753   3.118  0.7677  0.1426 -1.8055
   18MOL   H146 6640   2.726   3.724   3.274  1.7646 -2.3789 -0.0795
   18MOL   H147 6641   2.923   3.713   3.181 -0.2196  0.8031 -0.2110
   18MOL   H148 6642   2.847   3.916   3.067 -1.9686 -1.0052  0.6106
   18MOL   H149 6643   2.777   3.819   2.949  1.4744 -0.9003 -0.9103
   18MOL   H150 6644   3.017   3.756   2.862 -3.9779 -0.0050 -0.8912
   18MOL   H151 6645   2.983   3.926   2.871  0.1506  0.2674  0.0572
   18MOL   H152 6646   2.954   3.513   3.099  0.1257 -1.6278 -0.9717
   18MOL   H153 6647   2.908   3.579   2.943  1.8843 -1.4103  0.5234
   18MOL   C154 6648   3.127   3.858   3.015 -0.5441 -0.4649  0.3294
   18MOL   C155 6649   3.232   3.931   2.931 -0.1253 -0.1959 -0.7711
   18MOL   C156 6650   3.367   3.895   2.983  0.6398 -0.6848 -0.0352
   18MOL   C157 6651   3.334   3.778   3.087 -0.2698  0.3439  0.9106
   18MOL   C158 6652   3.442   3.668   3.075  0.6735  0.2810  0.3375
   18MOL   C159 6653   3.584   3.717   3.108  0.5833 -0.3336  0.6493
   18MOL   C160 6654   3.190   3.732   3.068  0.5681 -0.0078  0.0786
   18MOL   H161 6655   3.095   3.908   3.106 -1.0190  1.2161 -0.7347
   18MOL   H162 6656   3.227   3.888   2.831 -4.0815 -0.6207 -0.4502
   18MOL   H163 6657   3.225   4.040   2.928 -0.5241 -0.1925  0.1959
   18MOL   H164 6658   3.439   3.868   2.906  0.1151  0.6777 -1.0055
   18MOL   H165 6659   3.405   3.988   3.024  2.7313 -1.8605  0.7713
   18MOL   H166 6660   3.341   3.816   3.189  0.8016 -1.4348  1.5355
   18MOL   H167 6661   3.441   3.628   2.974 -2.3789 -0.0982  0.4771
   18MOL   H168 6662   3.424   3.588   3.147 -0.0973 -0.0009 -0.1649
   18MOL   H169 6663   3.616   3.795   3.038  1.0300 -1.6063 -0.5709
   18MOL   H170 6664   3.577   3.769   3.204 -2.2090  0.1561  0.2139
   18MOL   H171 6665   3.146   3.705   3.165  0.2747  0.1992  0.0041
   18MOL   H172 6666   3.183   3.643   3.005  1.3774 -0.7960  1.0792
   18MOL   C173 6667   3.686   3.605   3.119 -0.1479 -0.4552  0.2261
   18MOL   C174 6668   3.744   3.561   2.983  0.2652 -0.0978 -0.1379
   18MOL   C175 6669   3.893   3.520   3.007 -0.2409 -0.0262  0.4550
   18MOL   C176 6670   3.929   3.545   3.152  0.1025 -0.4670  0.2688
   18MOL   C177 6671   4.071   3.598   3.176  0.5264 -0.3141 -0.1511
   18MOL   C178 6672   4.184   3.497   3.152  0.8969 -0.1409 -0.4241
   18MOL   C179 6673   3.816   3.650   3.193 -0.2065  0.3103 -0.2511
   18MOL   H180 6674   3.641   3.514   3.159 -0.4735  0.1961  1.3455
   18MOL   H181 6675   3.748   3.653   2.924  1.9280  0.5684  0.9442
   18MOL   H182 6676   3.690   3.490   2.922  1.1499 -0.2094 -0.8099
   18MOL   H183 6677   3.898   3.411   3.000  2.0868  0.1226 -0.5836
   18MOL   H184 6678   3.962   3.550   2.929 -0.8614 -1.2695 -0.5883
   18MOL   H185 6679   3.908   3.460   3.217 -1.1079 -0.0138  0.4973
   18MOL   H186 6680   4.076   3.641   3.276 -0.2355 -1.3306  0.3376
   18MOL   H187 6681   4.079   3.679   3.104  3.0130 -0.4173 -0.0065
   18MOL   H188 6682   4.161   3.440   3.062  2.5044 -1.3305 -0.1098
   18MOL   H189 6683   4.195   3.424   3.232 -1.9360  0.9976  1.0723
   18MOL   H190 6684   3.846   3.754   3.177  0.1522  1.0606  4.6721
   18MOL   H191 6685   3.790   3.656   3.298  0.3532  2.3926 -0.1990
   18MOL   C192 6686   4.322   3.564   3.150 -0.8346 -0.3611  0.0786
   18MOL   C193 6687   4.444   3.481   3.099 -0.7422 -0.0502 -0.4507
   18MOL   C194 6688   4.563   3.511   3.192 -0.3494 -0.6169  1.1918
   18MOL   C195 6689   4.524   3.647   3.263 -0.3167 -0.1744 -0.1068
   18MOL   C196 6690   4.561   3.782   3.191 -0.1566 -0.7160 -0.0741
   18MOL   C197 6691   4.706   3.799   3.152  0.4825 -0.2191  0.0073
   18MOL   C198 6692   4.373   3.616   3.283  0.5587  0.3744 -0.2376
   18MOL   H199 6693   4.314   3.646   3.079  0.4556 -0.7560 -0.5502
   18MOL   H200 6694   4.417   3.376   3.110 -1.1537 -0.0170 -1.1235
   18MOL   H201 6695   4.460   3.501   2.993 -0.3058  3.0776  0.1582
   18MOL   H202 6696   4.652   3.528   3.131 -1.0973  2.3736  0.8552
   18MOL   H203 6697   4.561   3.434   3.269 -0.8379 -0.3528  1.4467
   18MOL   H204 6698   4.561   3.644   3.365  0.5230 -0.4391 -0.4106
   18MOL   H205 6699   4.534   3.873   3.244 -0.1141  0.0839 -1.4004
   18MOL   H206 6700   4.505   3.777   3.097 -0.8452 -0.9257  0.3413
   18MOL   H207 6701   4.720   3.731   3.068  2.5027  0.1724 -0.0074
   18MOL   H208 6702   4.761   3.763   3.239  0.2944  1.4492  0.8414
   18MOL   H209 6703   4.315   3.700   3.320 -0.4152 -0.7887  0.9664
   18MOL   H210 6704   4.356   3.540   3.360 -1.7198 -0.0786 -1.1374
   18MOL   C211 6705   4.738   3.942   3.097  0.5319  0.2156  0.0011
   18MOL   C212 6706   4.657   3.995   2.984  0.1156  0.4837  0.5525
   18MOL   C213 6707   4.740   4.115   2.927  0.3620 -0.5567 -0.7614
   18MOL   C214 6708   4.886   4.069   2.936  0.3703  0.3313 -0.5286
   18MOL   C215 6709   4.922   4.017   2.800  0.0989 -0.2338 -0.3252
   18MOL   C216 6710   5.074   3.985   2.791 -0.2119  0.5214  0.4335
   18MOL   C217 6711   4.883   3.962   3.049 -0.3767 -0.6142 -0.6441
   18MOL   H218 6712   4.722   4.012   3.178 -1.4842  1.1365 -1.1731
   18MOL   H219 6713   4.627   3.919   2.912  0.0230  0.5706  0.4983
   18MOL   H220 6714   4.564   4.040   3.018 -0.2481 -0.0816  0.3153
   18MOL   H221 6715   4.703   4.135   2.826 -0.3741  0.9751 -0.2172
   18MOL   H222 6716   4.730   4.211   2.978 -0.7919 -0.5218 -1.0334
   18MOL   H223 6717   4.949   4.155   2.959  0.6499  0.4875 -1.8516
   18MOL   H224 6718   4.907   4.093   2.723 -0.4198  0.5398  0.5213
   18MOL   H225 6719   4.855   3.938   2.768 -0.4439  0.1498 -0.1515
   18MOL   H226 6720   5.123   4.082   2.785  0.0195  0.3548 -0.4246
   18MOL   H227 6721   5.102   3.932   2.881  1.0243  0.9637  0.3095
   18MOL   H228 6722   4.937   4.007   3.133 -0.4009  0.8636 -1.4022
   18MOL   H229 6723   4.928   3.867   3.020  0.1282 -0.6365  0.1930
   18MOL   C230 6724   5.105   3.892   2.673 -0.4997 -0.3435  0.5706
   18MOL   C231 6725   5.255   3.853   2.660  0.0008  0.5470 -1.0844
   18MOL   C232 6726   5.262   3.810   2.512  0.6113 -0.3906  0.1328
   18MOL   C233 6727   5.170   3.914   2.430  0.4439  0.5528  0.3616
   18MOL   C234 6728   5.114   3.857   2.294  1.1277 -0.2588  0.2998
   18MOL   C235 6729   5.215   3.827   2.182 -0.1950  0.7483 -0.2618
   18MOL   C236 6730   5.061   3.948   2.535 -0.4367 -0.2834  0.1132
   18MOL   H237 6731   5.051   3.798   2.687  2.1234 -2.1703 -1.3028
   18MOL   H238 6732   5.317   3.941   2.677  0.2496  0.3423 -0.9452
   18MOL   H239 6733   5.290   3.772   2.724  0.0218  0.7121 -0.8887
   18MOL   H240 6734   5.244   3.703   2.507 -1.0974 -0.1431  0.4598
   18MOL   H241 6735   5.367   3.813   2.483  0.4921 -0.7613 -0.3385
   18MOL   H242 6736   5.234   4.000   2.412  3.1944 -1.3022  1.0267
   18MOL   H243 6737   5.052   3.941   2.262 -1.6013 -1.6241  1.8595
   18MOL   H244 6738   5.053   3.768   2.307 -0.1165  0.3971 -0.8665
   18MOL   H245 6739   5.279   3.915   2.170 -0.0560  0.8069  0.9101
   18MOL   H246 6740   5.282   3.745   2.207 -0.4951  0.7167  0.4549
   18MOL   H247 6741   4.968   3.901   2.504 -1.6544  0.9285  1.8019
   18MOL   H248 6742   5.044   4.056   2.533 -0.3691 -0.2765 -0.2295
   18MOL   C249 6743   5.155   3.795   2.047 -0.3253  0.0494 -0.6799
   18MOL   C250 6744   5.060   3.904   1.997 -0.3350 -0.4673  0.0044
   18MOL   C251 6745   5.048   3.879   1.844 -0.3197 -0.1997 -0.5285
   18MOL   C252 6746   5.180   3.809   1.795  0.1608  0.1428  0.0719
   18MOL   C253 6747   5.165   3.679   1.717 -0.1283  0.0933  0.8842
   18MOL   C254 6748   5.101   3.687   1.576 -0.4037 -0.4466 -0.8065
   18MOL   C255 6749   5.253   3.781   1.924 -0.2566 -0.2376  0.2418
   18MOL   H256 6750   5.098   3.702   2.047 -0.5909  0.2039 -2.1204
   18MOL   H257 6751   4.968   3.896   2.056 -2.9820 -1.3448 -4.0546
   18MOL   H258 6752   5.094   4.003   2.025 -1.8332 -0.1105  0.6543
   18MOL   H259 6753   5.042   3.969   1.782 -1.0036  0.8077  0.9834
   18MOL   H260 6754   4.957   3.820   1.831 -0.8569  0.5488 -0.2195
   18MOL   H261 6755   5.238   3.875   1.730  0.2181 -0.1990 -0.2277
   18MOL   H262 6756   5.091   3.631   1.781 -2.1398  0.8759 -0.8071
   18MOL   H263 6757   5.258   3.623   1.713 -0.4443 -0.4042  0.5470
   18MOL   H264 6758   5.013   3.750   1.577  0.9740  1.6220  4.0469
   18MOL   H265 6759   5.046   3.596   1.554 -0.6506 -0.6515  0.6413
   18MOL   H266 6760   5.325   3.860   1.942  1.2291 -1.5445  0.0972
   18MOL   H267 6761   5.307   3.686   1.930  1.2395  0.3783 -2.8283
   18MOL   C268 6762   5.203   3.719   1.464 -0.1772 -0.0267 -0.0602
   18MOL   C269 6763   5.145   3.736   1.325 -0.0727  0.1394 -0.5402
   18MOL   C270 6764   5.260   3.709   1.221  0.5175  0.1533  0.5952
   18MOL   C271 6765   5.374   3.641   1.308  0.9312  0.0950  0.2711
   18MOL   C272 6766   5.439   3.525   1.237  0.0838 -0.1157  0.3545
   18MOL   C273 6767   5.347   3.399   1.227  0.7473  0.2433  0.4551
   18MOL   C274 6768   5.308   3.614   1.444 -0.3639  0.3022  0.4234
   18MOL   H275 6769   5.251   3.816   1.480 -0.5407 -0.0129  0.9551
   18MOL   H276 6770   5.060   3.670   1.313  0.6668 -1.2754  1.8782
   18MOL   H277 6771   5.106   3.837   1.314  0.6561  0.2950 -1.8940
   18MOL   H278 6772   5.228   3.640   1.143 -1.3946  1.6810 -0.0015
   18MOL   H279 6773   5.282   3.805   1.176 -3.1635  0.9085  0.2603
   18MOL   H280 6774   5.445   3.721   1.328  0.7770 -0.1653  1.8819
   18MOL   H281 6775   5.532   3.500   1.289  0.9723 -1.5820 -1.8700
   18MOL   H282 6776   5.461   3.569   1.140  1.1616 -2.4743 -0.4985
   18MOL   H283 6777   5.327   3.354   1.324 -0.5513  1.4186  0.7642
   18MOL   H284 6778   5.248   3.423   1.186  1.5434  0.9579 -1.0996
   18MOL   H285 6779   5.250   3.522   1.449 -0.7864  0.4301 -1.6979
   18MOL   H286 6780   5.381   3.610   1.525  1.5029  2.2814 -1.0900
   18MOL   C287 6781   5.410   3.297   1.129  0.3111 -0.3959 -0.0713
   18MOL   C288 6782   5.314   3.180   1.094  0.3884  0.6648  0.4273
   18MOL   C289 6783   5.352   3.124   0.955  0.2053 -0.2331  0.3073
   18MOL   C290 6784   5.457   3.220   0.902 -0.5748 -0.2803  0.1999
   18MOL   C291 6785   5.436   3.238   0.750 -0.3436 -0.6741  0.7445
   18MOL   C292 6786   5.538   3.328   0.683 -0.2003  0.4198  0.1451
   18MOL   C293 6787   5.446   3.346   0.989 -0.4212 -0.1255  0.1253
   18MOL   H294 6788   5.500   3.247   1.165 -0.3186 -0.0095  2.1154
   18MOL   H295 6789   5.308   3.107   1.175  0.7570 -0.4814 -0.5608
   18MOL   H296 6790   5.215   3.226   1.094 -0.3212 -0.8376  1.6714
   18MOL   H297 6791   5.272   3.117   0.881  0.9314 -0.2546 -0.4801
   18MOL   H298 6792   5.389   3.022   0.964 -1.3548 -0.8361  0.1000
   18MOL   H299 6793   5.556   3.181   0.923 -0.2577 -0.0626 -0.8433
   18MOL   H300 6794   5.338   3.282   0.729 -0.9409 -2.2650  0.0262
   18MOL   H301 6795   5.436   3.139   0.703  4.1031  0.4577 -1.9534
   18MOL   H302 6796   5.636   3.288   0.710 -0.1786  0.0915 -0.4056
   18MOL   H303 6797   5.526   3.428   0.725 -2.1357  2.2111 -4.4252
   18MOL   H304 6798   5.370   3.411   0.947 -0.7844 -1.1657 -0.8316
   18MOL   H305 6799   5.538   3.405   0.989 -0.3479 -0.2182 -1.0407
   18MOL   C306 6800   5.533   3.354   0.532 -0.0305 -0.2477  0.2018
   18MOL   C307 6801   5.635   3.463   0.484  0.3108  0.4087 -0.0006
   18MOL   C308 6802   5.702   3.391   0.359  0.4129 -0.4610 -0.2604
   18MOL   C309 6803   5.608   3.278   0.305 -0.5059 -0.3252 -0.2597
   18MOL   C310 6804   5.663   3.173   0.204 -0.1553  0.3010  0.5325
   18MOL   C311 6805   5.670   3.228   0.061 -0.0873 -0.7997  0.4277
   18MOL   C312 6806   5.556   3.229   0.446 -0.6754 -0.1876 -0.5897
   18MOL   H313 6807   5.437   3.402   0.512 -0.3222 -0.8913  0.0218
   18MOL   H314 6808   5.582   3.556   0.464 -1.3748 -0.5448 -0.0231
   18MOL   H315 6809   5.718   3.488   0.551 -0.0352  0.0850  0.5504
   18MOL   H316 6810   5.720   3.466   0.282  1.2207  0.1499  0.5076
   18MOL   H317 6811   5.793   3.343   0.396  0.5425  0.2828  0.3836
   18MOL   H318 6812   5.515   3.320   0.264 -0.5948 -0.1456  0.1238
   18MOL   H319 6813   5.756   3.129   0.240 -0.7083 -0.0859  1.5137
   18MOL   H320 6814   5.586   3.096   0.190 -0.1029  0.3825 -0.2459
   18MOL   H321 6815   5.732   3.317   0.062 -2.8099  1.1484  2.1783
   18MOL   H322 6816   5.570   3.257   0.029  0.4059 -0.9120 -1.2948
   18MOL   H323 6817   5.637   3.166   0.483 -1.0888 -0.1024  0.5049
   18MOL   H324 6818   5.464   3.170   0.440 -0.9415 -0.0653  1.7642
   18MOL   C325 6819   5.720   3.137   7.595 -0.3073  0.7777 -0.0762
   18MOL   C326 6820   5.711   3.203   7.457  0.2411 -0.3777  0.3862
   18MOL   C327 6821   5.845   3.281   7.435  0.3491 -0.1842 -0.1282
   18MOL   C328 6822   5.941   3.226   7.532 -0.6204  0.1431 -0.3080
   18MOL   C329 6823   6.080   3.176   7.471 -0.0685 -0.4683  0.4013
   18MOL   C330 6824   6.163   3.282   7.401  0.4877 -0.2305 -1.2974
   18MOL   C331 6825   5.868   3.110   7.600  0.1128 -0.4306  0.4624
   18MOL   H332 6826   5.663   3.045   7.608  1.2313  0.0123  1.4042
   18MOL   H333 6827   5.622   3.266   7.451  1.4576  1.1934 -1.9308
   18MOL   H334 6828   5.694   3.129   7.378  1.7886  0.3587 -0.6541
   18MOL   H335 6829   5.883   3.263   7.335  0.2270  0.2954 -0.2625
   18MOL   H336 6830   5.839   3.390   7.433  2.6753 -0.0061  0.8955
   18MOL   H337 6831   5.958   3.298   7.613  1.2910  0.1626 -0.6887
   18MOL   H338 6832   6.142   3.131   7.549  0.1249  2.0295  1.7235
   18MOL   H339 6833   6.054   3.098   7.400  0.1534 -0.9756  0.8721
   18MOL   H340 6834   6.116   3.297   7.304 -0.1804  0.8901 -0.8018
   18MOL   H341 6835   6.156   3.372   7.462 -1.8379 -1.4398  0.2776
   18MOL   H342 6836   5.910   3.090   0.051  2.6621  2.1681 -0.0386
   18MOL   H343 6837   5.870   3.025   7.531 -0.3929 -0.4331  0.4476
   18MOL   C344 6838   6.307   3.238   7.361 -0.0415 -0.0461 -0.1761
   18MOL   C345 6839   6.398   3.208   7.484  0.6258  0.5551  0.5684
   18MOL   C346 6840   6.533   3.256   7.443  0.2461  0.1764 -0.2993
   18MOL   C347 6841   6.496   3.389   7.381 -0.4859 -0.0631  0.1499
   18MOL   C348 6842   6.616   3.449   7.302 -0.5721  0.1113 -0.4627
   18MOL   C349 6843   6.593   3.586   7.236 -0.6891  0.2260 -0.0762
   18MOL   C350 6844   6.380   3.348   7.292  0.3017 -0.6896  0.8285
   18MOL   H351 6845   6.297   3.151   7.295 -0.8519 -0.7699  0.8856
   18MOL   H352 6846   6.398   3.103   7.515 -3.7899  0.4069  0.3210
   18MOL   H353 6847   6.359   3.262   7.570  0.8827  0.8328  0.5140
   18MOL   H354 6848   6.603   3.257   7.527 -1.0084 -0.8166  0.7737
   18MOL   H355 6849   6.569   3.196   7.359  1.5355 -0.6723  0.8444
   18MOL   H356 6850   6.471   3.457   7.463  1.0953  1.0396 -0.2685
   18MOL   H357 6851   6.688   3.444   7.383  0.5851  0.2256 -1.4727
   18MOL   H358 6852   6.659   3.379   7.230 -1.4452 -2.1647  1.1609
   18MOL   H359 6853   6.572   3.656   7.317  0.0145  0.2629  0.0718
   18MOL   H360 6854   6.511   3.573   7.165  0.2374  1.1385 -1.3395
   18MOL   H361 6855   6.318   3.436   7.275  1.4470 -0.0174 -0.0106
   18MOL   H362 6856   6.412   3.315   7.193 -1.2964  2.8842 -0.9653
   18MOL   C363 6857   6.726   3.629   7.164  0.3313  0.5231  0.7055
   18MOL   C364 6858   6.722   3.775   7.118 -0.7266  0.4921 -0.3824
   18MOL   C365 6859   6.826   3.793   6.997  0.0081 -0.5365 -0.5532
   18MOL   C366 6860   6.865   3.648   6.967 -0.1953 -0.7006 -0.5646
   18MOL   C367 6861   6.884   3.624   6.819 -0.0723 -0.4695 -0.3554
   18MOL   C368 6862   6.955   3.490   6.788  0.1070 -0.1634 -0.3564
   18MOL   C369 6863   6.773   3.547   7.039 -0.2341 -0.0066  0.2150
   18MOL   H370 6864   6.802   3.612   7.240 -1.0474 -1.8380  1.6313
   18MOL   H371 6865   6.625   3.798   7.076 -2.9596 -2.2381  3.0345
   18MOL   H372 6866   6.736   3.831   7.210 -0.1805 -1.5491  0.8056
   18MOL   H373 6867   6.770   3.832   6.912 -1.7780  0.2217  0.9287
   18MOL   H374 6868   6.911   3.854   7.026 -0.0843 -0.2028 -0.9849
   18MOL   H375 6869   6.963   3.646   7.014 -0.0114 -0.1036 -0.9236
   18MOL   H376 6870   6.786   3.618   6.773  0.0797  0.4891 -0.8037
   18MOL   H377 6871   6.946   3.703   6.777  1.4929 -1.4067  0.1454
   18MOL   H378 6872   6.972   3.481   6.681 -0.8336  1.0934 -0.6257
   18MOL   H379 6873   6.884   3.407   6.795 -2.6299  1.9853 -1.8795
   18MOL   H380 6874   6.684   3.528   6.979  0.5757 -0.8300 -0.7254
   18MOL   H381 6875   6.829   3.457   7.062 -0.6017 -0.0471  0.9584
   18MOL   H382 6876   7.045   3.474   6.847 -0.0797 -0.6649 -0.2034
   19MOL     C1 6877   7.552   2.722   0.015  0.3554  0.2539 -0.1444
   19MOL     C2 6878   7.539   2.760   0.166 -0.2349 -0.1700  0.2677
   19MOL     C3 6879   7.392   2.774   0.200 -0.0354 -0.4102  0.4727
   19MOL     C4 6880   7.331   2.673   0.099 -0.2754  0.9055  0.1969
   19MOL     C5 6881   7.177   2.674   0.091 -0.5181  0.7803 -0.4492
   19MOL     C6 6882   7.117   2.648   0.232  0.5191  0.3232 -0.5302
   19MOL     C7 6883   7.406   2.705   7.615 -0.0244 -0.0919 -0.8245
   19MOL     H8 6884   7.586   2.805   7.599 -0.3869  1.5082  1.0694
   19MOL     H9 6885   7.599   2.847   0.193  0.7052 -0.2439 -1.5131
   19MOL    H10 6886   7.570   2.675   0.227 -0.8447 -0.4281  0.2241
   19MOL    H11 6887   7.366   2.754   0.304 -2.1158 -0.9288 -0.1168
   19MOL    H12 6888   7.365   2.876   0.172 -1.3875 -1.0729 -0.7195
   19MOL    H13 6889   7.354   2.572   0.132 -2.8385  0.6955  1.4758
   19MOL    H14 6890   7.161   2.773   0.048 -0.1541  0.4837 -1.2858
   19MOL    H15 6891   7.143   2.593   0.027 -1.5683  0.1047  0.9449
   19MOL    H16 6892   7.188   2.588   0.289 -0.4136 -1.7957 -1.5363
   19MOL    H17 6893   7.112   2.743   0.285 -0.3348  2.1440 -3.7646
   19MOL    H18 6894   7.396   2.625   7.542  2.0018 -0.5758 -0.6161
   19MOL    H19 6895   7.370   2.798   7.572 -1.5817 -0.7625 -0.9942
   19MOL    H20 6896   7.604   2.631   7.633  2.0739  1.6969 -1.7129
   19MOL    C21 6897   6.983   2.588   0.234  0.2388  0.1130 -0.5038
   19MOL    C22 6898   6.874   2.654   0.150  0.9036 -0.7028 -0.6752
   19MOL    C23 6899   6.777   2.536   0.116  0.0300  0.2841 -0.0548
   19MOL    C24 6900   6.833   2.414   0.184  0.2531 -0.1741  0.4637
   19MOL    C25 6901   6.795   2.285   0.106  0.5450  0.1417 -0.7922
   19MOL    C26 6902   6.837   2.153   0.173 -0.1137  0.0916 -0.1197
   19MOL    C27 6903   6.984   2.449   0.190  0.3218  0.5785  0.0989
   19MOL    H28 6904   6.950   2.601   0.337 -1.1161  0.7935 -1.0082
   19MOL    H29 6905   6.813   2.722   0.209 -0.6705 -1.3878 -1.4777
   19MOL    H30 6906   6.914   2.706   0.064 -1.2524 -1.9618 -2.5017
   19MOL    H31 6907   6.675   2.568   0.137  0.3214  0.6991  0.7382
   19MOL    H32 6908   6.776   2.507   0.011 -3.0964  1.7271 -0.4700
   19MOL    H33 6909   6.788   2.423   0.283  0.2065 -0.9318  0.5170
   19MOL    H34 6910   6.846   2.290   0.010 -0.4090  1.8909 -1.2317
   19MOL    H35 6911   6.688   2.283   0.082  0.3407  1.5769 -0.0287
   19MOL    H36 6912   6.755   2.125   0.238  0.0593 -0.8315 -0.3000
   19MOL    H37 6913   6.923   2.182   0.234 -1.2120  2.4474  0.3906
   19MOL    H38 6914   7.041   2.383   0.255 -0.6820 -0.5787 -0.1781
   19MOL    H39 6915   7.020   2.434   0.089 -2.3703  1.0925 -0.9737
   19MOL    C40 6916   6.876   2.037   0.073  0.0050  0.1939 -0.9077
   19MOL    C41 6917   7.016   2.057   0.002  0.4450  0.0378 -0.2912
   19MOL    C42 6918   7.058   1.917   7.605  0.5200 -0.4947 -0.3601
   19MOL    C43 6919   7.004   1.823   0.074 -0.6764  0.8573  0.1700
   19MOL    C44 6920   6.976   1.674   0.017  0.4516 -0.7374  0.0827
   19MOL    C45 6921   7.111   1.615   7.614  0.7050 -0.2031  0.0313
   19MOL    C46 6922   6.889   1.894   0.138 -0.1630  0.7125 -0.1097
   19MOL    H47 6923   6.813   2.031   7.631 -0.4287 -3.3395 -0.4285
   19MOL    H48 6924   7.091   2.103   0.066 -0.6342  0.7361  0.4866
   19MOL    H49 6925   6.989   2.115   7.561 -0.7380 -0.3211 -0.1797
   19MOL    H50 6926   7.006   1.901   7.510 -1.4520  2.2770  0.2041
   19MOL    H51 6927   7.165   1.913   7.584  0.3955  1.6959 -1.6040
   19MOL    H52 6928   7.077   1.820   0.155 -1.4303  0.0050  0.8279
   19MOL    H53 6929   6.926   1.596   0.075 -0.9004 -1.7996 -2.4197
   19MOL    H54 6930   6.910   1.676   7.577 -0.8750  1.8877  1.1038
   19MOL    H55 6931   7.168   1.584   0.054  0.9457 -2.1633 -0.7911
   19MOL    H56 6932   7.175   1.689   7.565  1.9236  0.6640  2.7977
   19MOL    H57 6933   6.801   1.831   0.145  0.0314  0.3133 -1.1422
   19MOL    H58 6934   6.919   1.905   0.243 -0.6820 -1.6498  0.3096
   19MOL    C59 6935   7.109   1.493   7.524 -1.1531 -0.5364 -0.0413
   19MOL    C60 6936   7.241   1.423   7.503 -0.1512 -0.0998  0.4574
   19MOL    C61 6937   7.190   1.310   7.407 -0.2116 -0.3997 -0.2887
   19MOL    C62 6938   7.049   1.259   7.468 -0.1358 -0.3803 -0.6926
   19MOL    C63 6939   6.948   1.232   7.348  0.5306 -0.3187  0.2397
   19MOL    C64 6940   7.000   1.135   7.242  0.2901 -0.3187 -0.0733
   19MOL    C65 6941   7.007   1.380   7.554 -0.5698  0.1268 -0.0683
   19MOL    H66 6942   7.071   1.523   7.426 -1.5341  0.7578  0.4944
   19MOL    H67 6943   7.322   1.486   7.466  0.5380 -0.3147  1.5906
   19MOL    H68 6944   7.290   1.385   7.593  3.8039  0.5214 -1.3004
   19MOL    H69 6945   7.181   1.338   7.303 -0.4129  1.0716  0.1137
   19MOL    H70 6946   7.272   1.237   7.404  0.8388  0.8226 -1.9356
   19MOL    H71 6947   7.067   1.175   7.535  1.2344 -0.3901 -1.0610
   19MOL    H72 6948   6.913   1.328   7.311 -1.0304  0.1114  2.6576
   19MOL    H73 6949   6.858   1.194   7.396  1.7190 -2.9113  0.4919
   19MOL    H74 6950   7.100   1.159   7.203 -0.0082  1.6049  0.2881
   19MOL    H75 6951   7.016   1.036   7.284  1.1525  0.0847  0.5760
   19MOL    H76 6952   6.904   1.413   7.539 -0.4797  0.4206 -0.0422
   19MOL    H77 6953   6.998   1.342   0.008 -0.6765  0.1451 -0.0705
   19MOL    C78 6954   6.893   1.125   7.131  0.5428  0.8963  0.0471
   19MOL    C79 6955   6.934   1.032   7.017  0.5135 -0.3709  0.0944
   19MOL    C80 6956   6.805   0.977   6.953 -0.5887  0.4588  0.1768
   19MOL    C81 6957   6.688   1.024   7.041  0.8889  0.1763 -0.1776
   19MOL    C82 6958   6.553   0.935   7.046 -1.1055  0.2359 -0.2202
   19MOL    C83 6959   6.588   0.794   7.098 -0.5266 -0.0702 -0.5293
   19MOL    C84 6960   6.761   1.065   7.173  0.0477  0.6090 -0.4076
   19MOL    H85 6961   6.883   1.225   7.087  1.6123  0.6154 -0.8641
   19MOL    H86 6962   6.998   1.081   6.944  1.0282 -2.1797 -0.6981
   19MOL    H87 6963   6.990   0.950   7.063  1.7550  0.7712  0.6239
   19MOL    H88 6964   6.791   1.013   6.851 -2.6523 -0.5813  0.0705
   19MOL    H89 6965   6.810   0.869   6.944 -1.7716  0.3805  0.3484
   19MOL    H90 6966   6.641   1.112   6.998  0.3633  0.2637  0.5682
   19MOL    H91 6967   6.501   0.941   6.951 -0.0967  1.3495 -0.7202
   19MOL    H92 6968   6.487   0.985   7.117 -4.6741 -3.6325 -0.6571
   19MOL    H93 6969   6.624   0.797   7.201 -0.0214 -1.2366 -0.6643
   19MOL    H94 6970   6.669   0.749   7.042  0.4654  0.1699  0.6953
   19MOL    H95 6971   6.756   0.978   7.238 -0.7059  1.2846  0.4422
   19MOL    H96 6972   6.698   1.139   7.221 -3.9418 -2.2920 -0.9411
   19MOL    C97 6973   6.467   0.698   7.095 -0.1414  0.1839 -0.9498
   19MOL    C98 6974   6.364   0.743   7.196 -0.4539 -0.9627 -0.0702
   19MOL    C99 6975   6.269   0.626   7.216 -0.1368 -0.2263  0.5229
   19MOL   C100 6976   6.353   0.503   7.213 -0.0310 -0.4429 -0.3184
   19MOL   C101 6977   6.369   0.451   7.354 -0.5527 -0.2747 -0.2180
   19MOL   C102 6978   6.406   0.303   7.355 -0.4258  0.4543  0.3246
   19MOL   C103 6979   6.489   0.552   7.135  0.6569  0.5061 -0.0798
   19MOL   H104 6980   6.417   0.704   6.998 -2.0550  2.2186  0.0950
   19MOL   H105 6981   6.396   0.781   7.293  0.3408 -1.0855 -0.2754
   19MOL   H106 6982   6.306   0.830   7.167 -1.3703 -1.1534  1.1283
   19MOL   H107 6983   6.223   0.646   7.313  1.1932 -0.6716  1.2502
   19MOL   H108 6984   6.204   0.632   7.129  1.1954  1.5242 -0.3950
   19MOL   H109 6985   6.304   0.432   7.147 -0.2065  1.2492 -2.0503
   19MOL   H110 6986   6.440   0.512   7.410 -1.0347  2.6213 -2.6702
   19MOL   H111 6987   6.278   0.462   7.413  0.1331  0.4316  0.7376
   19MOL   H112 6988   6.319   0.245   7.324  0.3383 -0.5225 -0.0290
   19MOL   H113 6989   6.474   0.291   7.271 -0.1840  0.4511  0.5205
   19MOL   H114 6990   6.581   0.548   7.194  1.1649  2.3575 -0.7178
   19MOL   H115 6991   6.501   0.488   7.047  0.1237 -1.0869  0.9825
   19MOL   C116 6992   6.474   0.249   7.475 -0.5678  0.1146  0.4148
   19MOL   C117 6993   6.511   0.099   7.459  0.0162  0.3616  0.0357
   19MOL   C118 6994   6.659   0.082   7.502 -0.1724  0.0509  0.1571
   19MOL   C119 6995   6.686   0.214   7.579 -0.9971 -0.4641 -0.2962
   19MOL   C120 6996   6.835   0.243   7.608 -0.2620 -0.1905 -0.1323
   19MOL   C121 6997   6.855   0.350   0.063 -0.0736 -0.3646 -0.6757
   19MOL   C122 6998   6.613   0.323   7.500 -0.1093 -0.0783  0.2805
   19MOL   H123 6999   6.403   0.266   7.557  0.3242  1.2159  0.9735
   19MOL   H124 7000   6.495   0.067   7.356  0.7760 -0.2780  0.1091
   19MOL   H125 7001   6.453   0.035   7.526  1.6304  0.4071  1.4911
   19MOL   H126 7002   6.732   0.071   7.422 -0.8368 -2.4030 -0.1765
   19MOL   H127 7003   6.687   7.643   7.563  0.0425  0.2292  0.3100
   19MOL   H128 7004   6.641   0.198   0.030  0.3836 -0.8099  0.2981
   19MOL   H129 7005   6.883   0.267   7.514  0.3904 -0.4665  0.1254
   19MOL   H130 7006   6.882   0.152   7.645  2.3678  1.0350 -0.3721
   19MOL   H131 7007   6.797   0.321   0.150  2.5581 -1.8972  0.6123
   19MOL   H132 7008   6.824   0.450   0.032  1.7584  0.8804  1.3321
   19MOL   H133 7009   6.609   0.414   7.560  0.3456  0.6964 -0.8558
   19MOL   H134 7010   6.656   0.357   7.406 -1.6918 -0.9294 -0.7857
   19MOL   C135 7011   7.000   0.358   0.116 -0.1334  0.0311 -0.3969
   19MOL   C136 7012   7.045   0.490   0.180 -0.6725 -0.2625  0.0763
   19MOL   C137 7013   7.137   0.450   0.292 -0.4697  0.7132 -0.4566
   19MOL   C138 7014   7.069   0.322   0.343 -0.1457 -0.2941  0.3536
   19MOL   C139 7015   7.158   0.246   0.435 -0.4350  0.5693  0.3229
   19MOL   C140 7016   7.198   0.336   0.555 -0.4358 -0.9863  0.8866
   19MOL   C141 7017   7.041   0.247   0.212  0.4279 -0.8281  0.5706
   19MOL   H142 7018   7.071   0.345   0.034  0.6629  0.5640  0.1998
   19MOL   H143 7019   7.089   0.555   0.105 -0.6469  0.8941  1.0784
   19MOL   H144 7020   6.962   0.545   0.227 -0.0033  0.2212  0.7063
   19MOL   H145 7021   7.239   0.427   0.263 -0.5618 -1.5497  0.8353
   19MOL   H146 7022   7.152   0.535   0.359  1.4828 -1.6404  2.2068
   19MOL   H147 7023   6.972   0.334   0.390  0.2352  1.8606  0.6492
   19MOL   H148 7024   7.244   0.206   0.382 -1.4244 -0.3938 -0.5948
   19MOL   H149 7025   7.108   0.155   0.471  0.6899 -0.1536  0.0656
   19MOL   H150 7026   7.250   0.422   0.514 -2.0681 -0.6402 -0.4982
   19MOL   H151 7027   7.111   0.373   0.610  0.0723  1.0334  0.3304
   19MOL   H152 7028   6.971   0.168   0.236  0.1754  0.0421  2.8172
   19MOL   H153 7029   7.130   0.201   0.168  0.2566 -0.1281 -0.5299
   19MOL   C154 7030   7.276   0.266   0.671  0.1937  0.5093  0.7319
   19MOL   C155 7031   7.289   0.349   0.804 -0.3755  0.4687 -0.1203
   19MOL   C156 7032   7.438   0.388   0.816  0.1139  0.7814  0.7606
   19MOL   C157 7033   7.515   0.266   0.756 -0.8172 -0.3767 -0.1874
   19MOL   C158 7034   0.009   0.324   0.718  0.1222 -0.5219 -0.1170
   19MOL   C159 7035   0.096   0.210   0.672 -0.8882  0.2101  0.2077
   19MOL   C160 7036   7.420   0.213   0.648  0.5989 -0.4856  0.5793
   19MOL   H161 7037   7.220   0.174   0.689 -0.2671  0.5417 -0.5247
   19MOL   H162 7038   7.225   0.437   0.802  1.5426  1.9131  1.1492
   19MOL   H163 7039   7.258   0.283   0.885 -0.0125  1.1796  0.6039
   19MOL   H164 7040   7.457   0.482   0.763  2.5662 -1.1837 -2.0154
   19MOL   H165 7041   7.468   0.409   0.918 -2.9857  0.8319  1.7233
   19MOL   H166 7042   7.525   0.197   0.840  0.9344 -0.0870 -0.1367
   19MOL   H167 7043   0.055   0.382   0.798 -1.9791  3.2331 -1.4784
   19MOL   H168 7044   0.001   0.387   0.629  0.3241  0.3593  0.4751
   19MOL   H169 7045   0.132   0.149   0.755  0.3205  0.3218 -0.2308
   19MOL   H170 7046   0.047   0.140   0.605  0.0340 -0.3935  0.1494
   19MOL   H171 7047   7.431   0.104   0.646 -2.7585 -0.8786  0.6583
   19MOL   H172 7048   7.455   0.251   0.552 -0.1194 -0.0135  0.4953
   19MOL   C173 7049   0.223   0.263   0.601 -0.1771 -0.0395 -0.2584
   19MOL   C174 7050   0.322   0.338   0.698  0.7482  0.6759 -0.0320
   19MOL   C175 7051   0.468   0.317   0.649 -0.5685  0.4679  0.1499
   19MOL   C176 7052   0.459   0.214   0.532  0.0185  0.1406 -0.1066
   19MOL   C177 7053   0.574   0.107   0.540  0.5525  0.7008  0.7133
   19MOL   C178 7054   0.581   0.032   0.405  0.2915  0.0603 -0.3688
   19MOL   C179 7055   0.322   0.159   0.539 -0.3402  0.7543  0.0954
   19MOL   H180 7056   0.197   0.336   0.524 -1.0005 -0.3654 -0.2858
   19MOL   H181 7057   0.314   0.293   0.798  0.7381 -0.1834 -0.4109
   19MOL   H182 7058   0.300   0.444   0.699 -1.8046  0.1908 -1.0851
   19MOL   H183 7059   0.517   0.407   0.610 -1.2130  0.3561 -0.9421
   19MOL   H184 7060   0.532   0.291   0.733 -0.4105  3.4164  1.0279
   19MOL   H185 7061   0.466   0.267   0.436  2.9072 -1.3645 -0.7996
   19MOL   H186 7062   0.537   0.036   0.614  1.6365 -1.3103 -0.6171
   19MOL   H187 7063   0.655   0.171   0.575 -0.1280  2.0414 -0.1230
   19MOL   H188 7064   0.618   0.111   0.339  1.1320  0.8173  0.9860
   19MOL   H189 7065   0.483   0.004   0.366  0.1811 -0.0805  0.0143
   19MOL   H190 7066   0.321   0.071   0.604  1.0302  0.5691 -0.1337
   19MOL   H191 7067   0.276   0.119   0.448  0.9022  0.9785 -0.6396
   19MOL   C192 7068   0.690   7.566   0.397 -0.1685  0.2368  0.4765
   19MOL   C193 7069   0.713   7.515   0.251  0.2710  0.1240 -0.0619
   19MOL   C194 7070   0.772   7.371   0.260 -0.0768  0.8518  0.0162
   19MOL   C195 7071   0.708   7.318   0.385  0.5374  0.2928  0.1155
   19MOL   C196 7072   0.781   7.192   0.456  0.6308 -0.2152 -0.0624
   19MOL   C197 7073   0.770   7.059   0.375 -0.4968  0.5957 -0.4133
   19MOL   C198 7074   0.663   7.436   0.477 -0.7805 -0.2511  0.2433
   19MOL   H199 7075   0.783   7.604   0.439  0.3243 -0.8304  0.3588
   19MOL   H200 7076   0.618   7.502   0.199 -0.2329  1.2457  0.5481
   19MOL   H201 7077   0.774   7.587   0.196  1.2195 -1.9260 -1.7472
   19MOL   H202 7078   0.880   7.365   0.268 -0.2137 -3.9920 -0.4178
   19MOL   H203 7079   0.740   7.317   0.170  1.1028 -1.9332  1.2183
   19MOL   H204 7080   0.614   7.281   0.343  0.2638  1.3285 -0.1897
   19MOL   H205 7081   0.738   7.172   0.554 -0.1541 -0.1463 -0.3861
   19MOL   H206 7082   0.886   7.215   0.470  0.2332  0.7208  1.4975
   19MOL   H207 7083   0.854   6.994   0.400 -0.0505  0.8215 -1.3165
   19MOL   H208 7084   0.792   7.086   0.272 -0.6116 -1.5771 -1.0314
   19MOL   H209 7085   0.723   7.447   0.567  1.8010 -0.6957 -1.3708
   19MOL   H210 7086   0.556   7.434   0.498 -0.9099 -1.7341 -0.4911
   19MOL   C211 7087   0.645   6.981   0.402  0.2747  0.3202 -0.6540
   19MOL   C212 7088   0.648   6.913   0.539 -0.2516 -0.3087  0.2841
   19MOL   C213 7089   0.661   6.762   0.508 -0.2159  0.3973 -0.2640
   19MOL   C214 7090   0.578   6.746   0.382  0.2701 -0.2831  0.4548
   19MOL   C215 7091   0.603   6.622   0.293  0.3843 -0.2291 -0.2391
   19MOL   C216 7092   0.567   6.492   0.368 -0.4429 -0.1447  0.4461
   19MOL   C217 7093   0.623   6.867   0.299 -0.5248 -0.6748 -0.3595
   19MOL   H218 7094   0.557   7.046   0.401 -0.8823 -1.1432  1.4784
   19MOL   H219 7095   0.729   6.943   0.605  0.9351  0.6790 -1.5908
   19MOL   H220 7096   0.557   6.915   0.600  0.7151 -1.1688  1.7932
   19MOL   H221 7097   0.763   6.729   0.486 -0.2539  0.5365 -0.6450
   19MOL   H222 7098   0.612   6.696   0.580  1.2898  0.0250  0.4405
   19MOL   H223 7099   0.471   6.751   0.403  0.1155 -1.9248  0.0640
   19MOL   H224 7100   0.708   6.612   0.266  0.7356  1.7369  0.3193
   19MOL   H225 7101   0.548   6.642   0.201  1.3779 -1.3386 -1.0862
   19MOL   H226 7102   0.634   6.475   0.452 -0.4349 -1.0329  0.2569
   19MOL   H227 7103   0.464   6.499   0.403 -1.2149  1.3631 -2.0351
   19MOL   H228 7104   0.556   6.898   0.219  0.7710  1.1767 -0.7630
   19MOL   H229 7105   0.719   6.852   0.249 -0.8516 -1.1347 -0.8570
   19MOL   C230 7106   0.592   6.370   0.279  1.1005 -0.0878 -0.3604
   19MOL   C231 7107   0.512   6.375   0.148  0.1237 -0.0819  0.0764
   19MOL   C232 7108   0.482   6.227   0.108  0.0892  0.3705  0.2060
   19MOL   C233 7109   0.457   6.165   0.246 -0.1809 -0.0181 -0.2838
   19MOL   C234 7110   0.451   6.013   0.242  0.1050 -0.8136  0.3432
   19MOL   C235 7111   0.390   5.950   0.361 -0.0949  0.2794  0.7467
   19MOL   C236 7112   0.549   6.238   0.351 -0.4995 -0.1905 -0.1229
   19MOL   H237 7113   0.700   6.364   0.269  1.0988  0.3762 -0.6700
   19MOL   H238 7114   0.416   6.424   0.161 -1.1411 -1.9802 -1.7064
   19MOL   H239 7115   0.562   6.431   0.069 -0.2580 -0.3276 -0.3426
   19MOL   H240 7116   0.570   6.192   0.054 -0.6029  2.1833 -2.2188
   19MOL   H241 7117   0.390   6.216   0.051  0.2916 -3.8493  0.5766
   19MOL   H242 7118   0.357   6.194   0.278 -0.0331 -0.2141  0.3509
   19MOL   H243 7119   0.553   5.977   0.234  0.9883  1.7990 -0.6346
   19MOL   H244 7120   0.401   5.980   0.151 -0.2619  3.0762 -0.9761
   19MOL   H245 7121   0.443   5.985   0.450  0.5881  2.0061 -0.3229
   19MOL   H246 7122   0.292   5.998   0.370 -0.5927 -0.6838  0.4676
   19MOL   H247 7123   0.622   6.161   0.375  1.2851  0.9230 -1.9240
   19MOL   H248 7124   0.494   6.261   0.443  1.8533 -0.3141  1.3681
   19MOL   C249 7125   0.378   5.795   0.369  0.0115 -0.2179 -0.3665
   19MOL   C250 7126   0.290   5.735   0.256 -0.5039  0.4485 -0.4418
   19MOL   C251 7127   0.386   5.621   0.201  0.6294 -0.1206  0.1884
   19MOL   C252 7128   0.526   5.668   0.216 -0.1179 -0.0319  1.2174
   19MOL   C253 7129   0.636   5.565   0.193  0.1726  0.3522 -1.0041
   19MOL   C254 7130   0.779   5.624   0.187 -0.4791  0.1444 -0.0909
   19MOL   C255 7131   0.524   5.732   0.357  0.3295  0.2439 -0.3205
   19MOL   H256 7132   0.330   5.782   0.466 -0.7572  1.1533 -0.5510
   19MOL   H257 7133   0.205   5.673   0.285  0.9740 -1.4299 -0.0427
   19MOL   H258 7134   0.255   5.811   0.186 -0.4799  0.1531 -0.7742
   19MOL   H259 7135   0.364   5.601   0.096 -2.8394  1.1025  0.6194
   19MOL   H260 7136   0.374   5.531   0.261  0.5165 -0.2975 -0.1016
   19MOL   H261 7137   0.545   5.750   0.147  1.2304 -0.7094  0.7720
   19MOL   H262 7138   0.631   5.529   0.091 -0.4094  0.7127 -1.1028
   19MOL   H263 7139   0.633   5.485   0.268 -0.9228  1.2592 -0.0576
   19MOL   H264 7140   0.795   5.672   0.284  3.0131 -1.7127  0.3238
   19MOL   H265 7141   0.786   5.702   0.111 -0.3422  0.3995  0.1796
   19MOL   H266 7142   0.593   5.808   0.394  1.8637 -1.8678  1.3070
   19MOL   H267 7143   0.531   5.646   0.425 -0.5383 -0.4128 -1.0494
   19MOL   C268 7144   0.884   5.509   0.172  0.5123 -0.3491 -0.0389
   19MOL   C269 7145   1.023   5.554   0.121 -0.3234 -0.6244 -0.4091
   19MOL   C270 7146   1.084   5.431   0.047 -0.2970 -0.4748  0.6399
   19MOL   C271 7147   0.977   5.322   0.045  0.1797 -0.1824 -0.2556
   19MOL   C272 7148   0.958   5.248   7.564 -0.0060  0.2932  0.4380
   19MOL   C273 7149   1.080   5.171   7.520  0.6468 -0.9661  0.0934
   19MOL   C274 7150   0.849   5.393   0.076 -0.5304  0.4196  0.3798
   19MOL   H275 7151   0.899   5.467   0.271 -0.8733 -1.5684 -0.3215
   19MOL   H276 7152   1.017   5.630   0.044 -1.0828  1.1663  1.3753
   19MOL   H277 7153   1.094   5.598   0.190  1.3665 -0.5670 -2.1513
   19MOL   H278 7154   1.132   5.458   7.600  0.3431 -1.2208  0.7519
   19MOL   H279 7155   1.174   5.395   0.097 -1.3490 -2.0409  1.4504
   19MOL   H280 7156   1.003   5.257   0.128 -1.2617 -1.2985 -0.6501
   19MOL   H281 7157   0.928   5.319   7.487  4.7364  1.4693 -0.4784
   19MOL   H282 7158   0.874   5.178   7.568  0.8811 -0.8247 -0.1475
   19MOL   H283 7159   1.172   5.230   7.517  0.6021 -0.9430 -1.6284
   19MOL   H284 7160   1.095   5.087   7.587  2.6449 -2.2335 -1.8705
   19MOL   H285 7161   0.804   5.424   7.628 -2.1823 -3.0983 -0.0549
   19MOL   H286 7162   0.785   5.316   0.119  0.2609 -0.4024  0.1004
   19MOL   C287 7163   1.070   5.114   7.380 -0.7798 -0.4065 -0.0697
   19MOL   C288 7164   1.183   5.015   7.357 -0.0684 -0.8182  0.2561
   19MOL   C289 7165   1.129   4.913   7.256 -0.0574  0.1284 -0.3952
   19MOL   C290 7166   0.976   4.918   7.256 -0.3257 -0.2204 -0.2681
   19MOL   C291 7167   0.908   4.784   7.286  0.3151  0.0863  1.1546
   19MOL   C292 7168   0.752   4.794   7.282  0.4801  0.2556 -0.6943
   19MOL   C293 7169   0.941   5.022   7.359  0.1326 -0.4935  0.0869
   19MOL   H294 7170   1.079   5.194   7.307  0.7130  0.3508  0.9165
   19MOL   H295 7171   1.280   5.062   7.343  0.6895 -2.3949  0.0715
   19MOL   H296 7172   1.202   4.959   7.448  0.9014 -0.2503  0.4121
   19MOL   H297 7173   1.158   4.812   7.285 -0.5611 -0.2527 -1.1933
   19MOL   H298 7174   1.171   4.923   7.155 -0.3551 -0.8213 -0.6189
   19MOL   H299 7175   0.940   4.961   7.164 -1.9794  1.9468  1.3503
   19MOL   H300 7176   0.937   4.734   7.378 -1.1200  0.5165  1.8631
   19MOL   H301 7177   0.941   4.714   7.209  0.6525  0.2756  1.1301
   19MOL   H302 7178   0.719   4.829   7.184  1.1517  1.4682 -0.4864
   19MOL   H303 7179   0.719   4.862   7.360  1.1077  1.4177 -1.4347
   19MOL   H304 7180   0.920   4.984   7.458 -0.4443  2.7635  1.2785
   19MOL   H305 7181   0.851   5.078   7.331  0.6055 -0.2129 -0.9164
   19MOL   C306 7182   0.686   4.657   7.313 -0.4765  0.1761  0.0509
   19MOL   C307 7183   0.706   4.605   7.461  0.2326  0.5320  0.6153
   19MOL   C308 7184   0.587   4.512   7.486 -0.9625  0.5215  0.0233
   19MOL   C309 7185   0.479   4.547   7.392 -0.4048 -0.1310 -0.8168
   19MOL   C310 7186   0.349   4.587   7.458  0.0689 -0.0901  1.2673
   19MOL   C311 7187   0.226   4.605   7.364  0.5168 -0.4948  0.7572
   19MOL   C312 7188   0.536   4.650   7.292 -0.2732 -0.3877 -1.3178
   19MOL   H313 7189   0.719   4.593   7.232  2.2195 -0.2134  1.4055
   19MOL   H314 7190   0.801   4.553   7.463 -0.8907 -1.5658  0.8705
   19MOL   H315 7191   0.707   4.686   7.534  0.2043  1.5621 -0.5134
   19MOL   H316 7192   0.627   4.411   7.476  2.4075  1.7461  0.6142
   19MOL   H317 7193   0.567   4.521   7.593  1.2432 -1.3733  0.6337
   19MOL   H318 7194   0.454   4.448   7.354 -0.4175 -0.9647  1.2849
   19MOL   H319 7195   0.322   4.534   7.550  1.4185 -1.4085  0.9094
   19MOL   H320 7196   0.373   4.683   7.504  0.9158 -0.3318  1.3407
   19MOL   H321 7197   0.218   4.520   7.296  2.0370 -0.5150  0.5887
   19MOL   H322 7198   0.235   4.685   7.290  2.0670 -0.2062  1.2302
   19MOL   H323 7199   0.502   4.751   7.317  0.7205 -0.3237 -0.1890
   19MOL   H324 7200   0.494   4.627   7.194 -0.6209  1.9352 -1.7622
   19MOL   C325 7201   0.092   4.621   7.438 -0.3714  0.3721 -0.6649
   19MOL   C326 7202   7.615   4.645   7.340 -0.5193  0.3956 -0.0894
   19MOL   C327 7203   7.500   4.614   7.433 -0.3571 -0.1884  0.7825
   19MOL   C328 7204   7.549   4.485   7.502 -0.0368 -0.4947 -0.0370
   19MOL   C329 7205   7.462   4.438   7.611  0.0766  0.3145 -0.0294
   19MOL   C330 7206   7.451   4.282   7.638  0.6980 -0.0147  0.0942
   19MOL   C331 7207   0.056   4.493   7.521  0.0476 -0.2895 -0.4747
   19MOL   H332 7208   0.105   4.706   7.505  1.0908 -0.5523  0.2318
   19MOL   H333 7209   7.624   4.582   7.252  1.6486  1.0104 -0.3450
   19MOL   H334 7210   7.591   4.748   7.314 -1.4423  0.2224  0.0562
   19MOL   H335 7211   7.485   4.690   7.510 -1.8279  0.1503  0.1985
   19MOL   H336 7212   7.407   4.610   7.375 -0.4668  2.0387  0.7757
   19MOL   H337 7213   7.531   4.415   7.421  0.8744  0.0688 -0.7344
   19MOL   H338 7214   7.497   4.487   0.056 -0.3425 -1.3294  1.0269
   19MOL   H339 7215   7.362   4.481   7.610 -2.0525 -4.3101  1.4794
   19MOL   H340 7216   7.445   4.232   7.541 -0.5550  0.9074 -0.3118
   19MOL   H341 7217   7.543   4.236   0.026 -0.1392 -0.8276  1.2496
   19MOL   H342 7218   0.105   4.407   7.475  0.9150  0.2162 -0.4990
   19MOL   H343 7219   0.086   4.495   7.626  1.8225 -1.0257 -0.9401
   19MOL   C344 7220   7.341   4.246   0.087  0.6598 -0.0382  0.6152
   19MOL   C345 7221   7.376   4.277   0.229 -0.2692  0.2501 -0.6293
   19MOL   C346 7222   7.275   4.204   0.318  0.6451  0.0810 -0.0954
   19MOL   C347 7223   7.254   4.073   0.235  0.2888  0.6356 -0.1939
   19MOL   C348 7224   7.105   4.031   0.250  0.6027  0.1756  0.1714
   19MOL   C349 7225   7.072   4.003   0.401  0.0648 -0.1783  0.8790
   19MOL   C350 7226   7.309   4.097   0.089 -0.2919 -0.2115  0.1745
   19MOL   H351 7227   7.251   4.303   0.069  1.7418  1.7818  0.8781
   19MOL   H352 7228   7.370   4.381   0.259 -4.7903  0.2764 -1.2393
   19MOL   H353 7229   7.475   4.234   0.242 -0.9302 -1.9984 -2.6466
   19MOL   H354 7230   7.321   4.183   0.415  0.7571 -1.4799 -0.4777
   19MOL   H355 7231   7.179   4.251   0.336  1.0927  0.5589  1.0995
   19MOL   H356 7232   7.305   3.984   0.272 -3.3342 -0.9705  1.1445
   19MOL   H357 7233   7.049   4.114   0.208  0.6820 -0.1741 -0.6319
   19MOL   H358 7234   7.082   3.946   0.186 -0.3853  0.8446 -0.3689
   19MOL   H359 7235   7.081   4.092   0.464  0.9955  0.1688  0.2557
   19MOL   H360 7236   7.135   3.928   0.448 -0.0191 -1.4906 -1.0241
   19MOL   H361 7237   7.396   4.034   0.071 -1.1015 -1.0460 -0.8845
   19MOL   H362 7238   7.237   4.070   0.012 -1.0197  1.5665  0.1941
   19MOL   C363 7239   6.922   3.966   0.418  0.3938  0.3913 -0.0797
   19MOL   C364 7240   6.880   3.963   0.572 -0.4200  0.3899  0.2155
   19MOL   C365 7241   6.812   3.824   0.576  0.2662  0.9770  0.3924
   19MOL   C366 7242   6.765   3.789   0.438 -0.1679 -0.4556  0.7255
   19MOL   C367 7243   6.726   3.646   0.420  0.3547 -0.5823 -0.3761
   19MOL   C368 7244   6.608   3.616   0.510  0.2998  0.0468  0.5803
   19MOL   C369 7245   6.882   3.842   0.354 -0.2144  0.5478  0.1758
   19MOL   H370 7246   6.865   4.045   0.369 -0.7579 -0.6021 -0.3525
   19MOL   H371 7247   6.968   3.955   0.636 -1.2411  1.4772  1.5449
   19MOL   H372 7248   6.814   4.046   0.602 -1.3762 -0.7664  1.3895
   19MOL   H373 7249   6.881   3.747   0.608  0.3761  0.9036 -0.0162
   19MOL   H374 7250   6.736   3.836   0.654 -0.5420 -1.8617  0.0845
   19MOL   H375 7251   6.686   3.862   0.421  1.3405  0.9396 -0.4350
   19MOL   H376 7252   6.707   3.643   0.313  0.3133 -1.9105 -0.3419
   19MOL   H377 7253   6.809   3.578   0.438  0.7031 -0.5235 -1.7623
   19MOL   H378 7254   6.630   3.616   0.617  0.7609 -0.8999  0.4952
   19MOL   H379 7255   6.573   3.513   0.507  0.1383 -0.0771  4.0578
   19MOL   H380 7256   6.963   3.769   0.350 -0.4174  0.3266  0.0889
   19MOL   H381 7257   6.859   3.851   0.248  0.7909 -1.9493 -0.2955
   19MOL   H382 7258   6.518   3.674   0.494 -0.1587 -0.0074  2.8103
   20MOL     C1 7259   0.344   0.675   2.434 -0.1337  1.0910  0.4956
   20MOL     C2 7260   0.405   0.545   2.379  0.1737  0.4435 -0.5433
   20MOL     C3 7261   0.465   0.486   2.503  0.2104 -0.0045 -0.3598
   20MOL     C4 7262   0.371   0.518   2.614  0.4856  0.1592  0.4806
   20MOL     C5 7263   0.452   0.529   2.748 -0.5573  0.2639  0.7357
   20MOL     C6 7264   0.374   0.505   2.878 -0.3978 -0.1558 -0.2520
   20MOL     C7 7265   0.289   0.640   2.576 -0.0143 -0.1785 -0.5283
   20MOL     H8 7266   0.433   0.736   2.449  2.4464 -2.0960 -1.2178
   20MOL     H9 7267   0.465   0.547   2.288  1.8400 -0.6752  0.5000
   20MOL    H10 7268   0.334   0.472   2.337  0.3197  0.4696 -0.8390
   20MOL    H11 7269   0.489   0.379   2.496 -1.2361 -0.3883  0.4126
   20MOL    H12 7270   0.560   0.538   2.513 -1.0735  2.7803 -1.9774
   20MOL    H13 7271   0.310   0.428   2.619 -0.4048  0.7776  0.8299
   20MOL    H14 7272   0.534   0.458   2.753  1.6979  2.6986 -0.1683
   20MOL    H15 7273   0.501   0.626   2.740 -1.9851  0.9756  0.3538
   20MOL    H16 7274   0.431   0.540   2.964 -1.4523  1.1186 -0.0598
   20MOL    H17 7275   0.288   0.573   2.876 -2.4212 -2.6410  0.3784
   20MOL    H18 7276   0.187   0.609   2.552 -0.1250  0.6933 -1.2018
   20MOL    H19 7277   0.289   0.711   2.658  2.6348 -1.9953  1.1484
   20MOL    H20 7278   0.278   0.729   2.366 -0.4408 -0.3691 -0.3855
   20MOL    C21 7279   0.324   0.354   2.893  0.5555  0.9953  0.3545
   20MOL    C22 7280   0.440   0.258   2.877 -0.4742  0.2124  0.3401
   20MOL    C23 7281   0.392   0.131   2.941  0.1802  0.6651 -0.5931
   20MOL    C24 7282   0.266   0.161   3.018 -0.0386  0.0695 -0.1962
   20MOL    C25 7283   0.253   0.086   3.155 -0.3722  0.0657  0.8679
   20MOL    C26 7284   0.116   0.102   3.235 -0.0577 -0.1816  0.5691
   20MOL    C27 7285   0.264   0.312   3.024  0.6059 -0.1555  0.0570
   20MOL    H28 7286   0.249   0.330   2.818 -1.2509  0.5606  2.2460
   20MOL    H29 7287   0.462   0.245   2.771  1.4120 -1.1208  0.8626
   20MOL    H30 7288   0.515   0.301   2.944 -0.5278 -0.6279  0.9529
   20MOL    H31 7289   0.373   0.069   2.853 -1.8815 -0.1437  0.3780
   20MOL    H32 7290   0.475   0.088   2.996  0.5287  1.1632 -0.7314
   20MOL    H33 7291   0.189   0.119   2.953  1.7977 -1.1649 -1.6429
   20MOL    H34 7292   0.337   0.108   3.220  0.0401  1.4180 -0.0918
   20MOL    H35 7293   0.264   7.626   3.141  1.7057  0.2044  1.3266
   20MOL    H36 7294   0.036   0.076   3.166  0.7481 -2.6084  0.4957
   20MOL    H37 7295   0.100   0.204   3.269 -0.8704 -0.3090  0.5680
   20MOL    H38 7296   0.171   0.367   3.039 -0.3774 -1.9690  0.7058
   20MOL    H39 7297   0.328   0.344   3.106  1.4449 -0.5967 -0.4238
   20MOL    C40 7298   0.125   0.016   3.357 -0.6120 -0.3717 -0.2683
   20MOL    C41 7299   0.177   0.075   3.488  0.0680  0.3943  0.2510
   20MOL    C42 7300   0.145   7.626   3.598  0.3122  0.3283 -0.4796
   20MOL    C43 7301   0.009   7.558   3.561 -0.0624  0.0789  0.6820
   20MOL    C44 7302   0.009   7.403   3.572  0.0936 -0.4257  0.3468
   20MOL    C45 7303   0.030   7.363   3.722  0.5740 -0.3120 -0.4365
   20MOL    C46 7304   7.636   7.607   3.407  0.2982  1.0203  0.6851
   20MOL    H47 7305   0.207   7.592   3.350 -1.4109 -1.1975 -1.3502
   20MOL    H48 7306   0.118   0.166   3.506 -0.5819 -0.0797  0.5232
   20MOL    H49 7307   0.283   0.099   3.488  0.2479 -0.3621 -0.7487
   20MOL    H50 7308   0.222   7.549   3.604 -0.0436 -0.0530 -0.8101
   20MOL    H51 7309   0.142   0.015   3.700  0.8439 -0.9101 -0.0095
   20MOL    H52 7310   7.570   7.599   3.614  0.4681  0.4734  1.2552
   20MOL    H53 7311   7.562   7.372   3.526  1.0625  0.8698 -2.6101
   20MOL    H54 7312   0.077   7.352   3.505 -0.7533 -0.7900 -0.2419
   20MOL    H55 7313   7.603   7.422   3.775  0.5961  0.7848 -1.5938
   20MOL    H56 7314   0.127   7.402   3.750  0.4153  0.2004 -0.5921
   20MOL    H57 7315   7.603   7.527   3.341  0.4486  0.1582  1.6421
   20MOL    H58 7316   7.562   0.040   3.408  0.0785  0.8138  1.2092
   20MOL    C59 7317   0.018   7.211   3.742 -0.2459  0.1812 -0.0574
   20MOL    C60 7318   0.086   7.171   3.883  0.2962  0.5606  0.5703
   20MOL    C61 7319   7.620   7.130   3.977  0.0836 -0.2566 -0.4147
   20MOL    C62 7320   7.493   7.168   3.907  0.4181  0.0049 -0.5127
   20MOL    C63 7321   7.373   7.089   3.962  0.2623 -0.5474 -0.1325
   20MOL    C64 7322   7.317   7.140   4.091 -0.4842 -0.2893 -0.3466
   20MOL    C65 7323   7.524   7.157   3.758  0.5094  0.0432  0.4267
   20MOL    H66 7324   0.063   7.173   3.650 -1.1960  0.3579 -0.5970
   20MOL    H67 7325   0.153   7.085   3.873 -1.8510 -0.8130 -2.9289
   20MOL    H68 7326   0.137   7.260   3.920 -3.3017  1.9713  2.3895
   20MOL    H69 7327   7.633   7.024   3.996 -1.7581 -0.2144  1.1857
   20MOL    H70 7328   7.630   7.169   4.078 -1.0453  0.6516 -0.6419
   20MOL    H71 7329   7.476   7.275   3.920  1.3210  0.1246 -0.3088
   20MOL    H72 7330   7.413   6.990   3.980  1.6253 -0.1739 -1.0670
   20MOL    H73 7331   7.306   7.078   3.877  0.2138  0.3762 -0.2212
   20MOL    H74 7332   7.389   7.147   4.172  0.0747 -1.9981 -0.6769
   20MOL    H75 7333   7.265   7.235   4.082 -0.0163 -0.0527 -0.5153
   20MOL    H76 7334   7.523   7.054   3.722  1.2176  0.0917  0.2611
   20MOL    H77 7335   7.450   7.216   3.702 -0.4245 -0.1786  1.4196
   20MOL    C78 7336   7.213   7.041   4.159  0.4057  0.3104 -0.2021
   20MOL    C79 7337   7.080   7.010   4.084  0.1133  0.2853  0.3060
   20MOL    C80 7338   7.041   6.879   4.152  0.2969  0.4029 -0.1183
   20MOL    C81 7339   7.146   6.841   4.252 -0.6055  0.2721 -0.7477
   20MOL    C82 7340   7.161   6.698   4.286 -0.5407 -0.0612  0.2544
   20MOL    C83 7341   7.038   6.615   4.307 -0.0698  0.1381 -1.0379
   20MOL    C84 7342   7.270   6.917   4.204 -0.2588  0.2976  0.4894
   20MOL    H85 7343   7.182   7.090   4.251  1.8503 -0.8233  0.9168
   20MOL    H86 7344   7.001   7.085   4.085 -1.0285 -0.9088  0.2049
   20MOL    H87 7345   7.094   6.994   3.977 -0.9061 -0.1120  0.2257
   20MOL    H88 7346   6.948   6.900   4.206 -0.8234 -2.3982 -0.8457
   20MOL    H89 7347   7.020   6.791   4.091  1.3890  0.0745 -0.0224
   20MOL    H90 7348   7.110   6.882   4.347  1.0565 -0.7989  0.3781
   20MOL    H91 7349   7.240   6.686   4.360  0.4602 -3.1084 -1.2487
   20MOL    H92 7350   7.202   6.653   4.196  1.3375  0.4257  0.8464
   20MOL    H93 7351   6.989   6.609   4.209  0.9854  1.5884 -1.6747
   20MOL    H94 7352   6.969   6.662   4.377 -0.0838 -0.4189 -0.6856
   20MOL    H95 7353   7.322   6.863   4.125 -0.5807  0.4775  0.1529
   20MOL    H96 7354   7.346   6.929   4.281 -1.0588  0.1286  1.3111
   20MOL    C97 7355   7.058   6.465   4.346 -0.2422 -0.1499  0.0338
   20MOL    C98 7356   7.126   6.385   4.231  0.2766  0.0278 -0.0888
   20MOL    C99 7357   7.066   6.237   4.241  0.2052  0.1257  0.2257
   20MOL   C100 7358   6.959   6.239   4.344  0.4754  0.4589 -0.8317
   20MOL   C101 7359   6.834   6.157   4.304 -0.0077 -1.1109  0.3681
   20MOL   C102 7360   6.720   6.154   4.405  0.9843 -0.3297  0.3756
   20MOL   C103 7361   6.927   6.390   4.360 -1.2191  0.6135 -0.0673
   20MOL   H104 7362   7.121   6.457   4.435  0.1178 -0.0810 -0.2108
   20MOL   H105 7363   7.105   6.429   4.134  4.2422 -0.8501 -1.4701
   20MOL   H106 7364   7.235   6.383   4.236  0.3287  1.0076 -0.7369
   20MOL   H107 7365   7.033   6.210   4.141 -0.7032  1.2487  0.2054
   20MOL   H108 7366   7.128   6.155   4.277  0.9392  0.7767  0.4690
   20MOL   H109 7367   6.998   6.199   4.438 -0.3190  3.2130  0.7377
   20MOL   H110 7368   6.798   6.200   4.211  1.9194 -0.4686 -0.0860
   20MOL   H111 7369   6.873   6.058   4.280  2.1809  0.0774 -1.0352
   20MOL   H112 7370   6.749   6.165   4.510 -0.7370  1.1049  0.7210
   20MOL   H113 7371   6.662   6.245   4.389  1.3158 -0.0985  0.4745
   20MOL   H114 7372   6.865   6.417   4.275 -2.0831 -2.5074 -0.5197
   20MOL   H115 7373   6.868   6.399   4.452 -0.2099 -1.2960  0.8002
   20MOL   C116 7374   6.618   6.041   4.392  0.6151  0.1676  0.0323
   20MOL   C117 7375   6.504   6.056   4.493  0.5714 -0.5199  0.2391
   20MOL   C118 7376   6.380   6.121   4.418  0.4773 -0.2242  0.1965
   20MOL   C119 7377   6.392   6.053   4.282 -0.3053  0.5365  0.3014
   20MOL   C120 7378   6.332   6.131   4.165  0.6259 -0.8885 -0.1369
   20MOL   C121 7379   6.178   6.144   4.168  0.1737 -0.7517 -0.3056
   20MOL   C122 7380   6.542   6.038   4.259  0.6234 -0.3195  0.5558
   20MOL   H123 7381   6.674   5.950   4.415  0.9680  0.3675 -0.0234
   20MOL   H124 7382   6.536   6.093   4.590 -1.2577  1.0957  0.2363
   20MOL   H125 7383   6.470   5.954   4.511 -0.9455  0.0300  0.5499
   20MOL   H126 7384   6.397   6.229   4.423 -0.9804  0.0014  0.5584
   20MOL   H127 7385   6.285   6.101   4.469 -0.5207  1.3098 -1.0094
   20MOL   H128 7386   6.340   5.957   4.282  0.6623  0.0003  1.0725
   20MOL   H129 7387   6.361   6.074   4.077  1.3812 -2.0392  0.8433
   20MOL   H130 7388   6.362   6.234   4.146 -1.6999 -0.1686 -0.0281
   20MOL   H131 7389   6.149   6.219   4.241 -0.0109 -0.1581 -0.9881
   20MOL   H132 7390   6.135   6.046   4.191 -1.5744 -0.0011 -0.2643
   20MOL   H133 7391   6.573   5.951   4.201  1.3413 -0.8915  1.7904
   20MOL   H134 7392   6.576   6.119   4.195  2.2526 -0.4166  1.2687
   20MOL   C135 7393   6.107   6.199   4.039 -0.3832 -0.4616 -0.7577
   20MOL   C136 7394   6.120   6.109   3.920 -0.1320  0.1681  0.0804
   20MOL   C137 7395   5.983   6.118   3.848 -0.3971 -0.0950 -0.3890
   20MOL   C138 7396   5.889   6.124   3.966 -0.3015 -0.4709  0.2334
   20MOL   C139 7397   5.743   6.167   3.927  0.0467  0.2235  0.3091
   20MOL   C140 7398   5.650   6.161   4.053  0.0190  0.5127  0.0446
   20MOL   C141 7399   5.958   6.214   4.068 -0.6848 -0.1340  0.2823
   20MOL   H142 7400   6.143   6.299   4.015 -3.1338  0.2761 -1.9369
   20MOL   H143 7401   6.202   6.130   3.852  0.1816  0.5536  0.5710
   20MOL   H144 7402   6.145   6.004   3.936 -0.0803  0.3655  1.3591
   20MOL   H145 7403   5.968   6.184   3.762 -0.7477 -1.8330 -1.6977
   20MOL   H146 7404   5.971   6.019   3.803  2.2230 -0.1758 -1.0099
   20MOL   H147 7405   5.885   6.025   4.012 -2.2622 -1.0286 -1.0365
   20MOL   H148 7406   5.707   6.102   3.848  1.8508  0.5832 -0.8347
   20MOL   H149 7407   5.739   6.264   3.878  1.6588  0.7683  1.1797
   20MOL   H150 7408   5.667   6.074   4.116 -1.5725 -0.0342 -0.2585
   20MOL   H151 7409   5.677   6.247   4.115  2.6563  0.2565 -0.6942
   20MOL   H152 7410   5.938   6.171   4.166  3.4984 -1.0142  0.8001
   20MOL   H153 7411   5.922   6.316   4.054  0.0632  0.2492  1.1551
   20MOL   C154 7412   5.497   6.160   4.021 -0.9568 -0.2215  0.2159
   20MOL   C155 7413   5.405   6.218   4.130 -0.1030  0.1489 -0.3503
   20MOL   C156 7414   5.379   6.102   4.219 -0.1507 -0.6657  0.1291
   20MOL   C157 7415   5.367   5.987   4.114 -0.5131 -0.6442 -0.3814
   20MOL   C158 7416   5.401   5.845   4.167  0.1416 -0.0481 -0.2830
   20MOL   C159 7417   5.338   5.733   4.087  0.5150  0.8779  0.4361
   20MOL   C160 7418   5.447   6.021   3.992  0.0600  0.2510 -0.6563
   20MOL   H161 7419   5.484   6.226   3.935 -0.6621 -0.0078  0.3361
   20MOL   H162 7420   5.438   6.305   4.185  0.9918 -0.2828 -0.3110
   20MOL   H163 7421   5.313   6.249   4.080 -1.3443 -3.3010 -0.3947
   20MOL   H164 7422   5.454   6.091   4.298 -0.1420  1.1972  0.4214
   20MOL   H165 7423   5.281   6.112   4.265  0.0492 -2.9900  1.1210
   20MOL   H166 7424   5.261   5.991   4.088 -0.3644  1.6247 -0.7353
   20MOL   H167 7425   5.372   5.825   4.271  1.5442 -1.0267 -0.0634
   20MOL   H168 7426   5.510   5.841   4.164  0.3750  3.8841  0.5028
   20MOL   H169 7427   5.241   5.706   4.129  0.4889 -1.5944 -1.0889
   20MOL   H170 7428   5.314   5.763   3.985 -0.6187 -0.3060  0.3407
   20MOL   H171 7429   5.379   6.037   3.908  1.4945 -1.1873 -2.1044
   20MOL   H172 7430   5.521   5.951   3.955 -0.8605 -0.7655 -0.6107
   20MOL   C173 7431   5.416   5.604   4.078 -0.4937  0.5974  0.2833
   20MOL   C174 7432   5.359   5.482   4.003  0.3969  0.5923 -0.1437
   20MOL   C175 7433   5.473   5.433   3.912  0.3298  0.2043  0.7468
   20MOL   C176 7434   5.599   5.492   3.977 -0.5510 -0.5321 -0.1151
   20MOL   C177 7435   5.723   5.475   3.891 -0.1685 -0.5752  0.9449
   20MOL   C178 7436   5.771   5.333   3.871  0.2393  0.6827  0.9972
   20MOL   C179 7437   5.557   5.628   4.026  0.0480  0.0107  0.5877
   20MOL   H180 7438   5.445   5.567   4.176 -0.4451  1.9903  0.8029
   20MOL   H181 7439   5.265   5.506   3.954  0.4880  2.2579  0.4701
   20MOL   H182 7440   5.311   5.398   4.054 -3.5480  3.1131  0.4582
   20MOL   H183 7441   5.480   5.324   3.910  0.3509  0.2294 -0.8937
   20MOL   H184 7442   5.455   5.456   3.807  1.7019  0.7130  0.6051
   20MOL   H185 7443   5.615   5.432   4.067  1.6637  1.7188  1.0558
   20MOL   H186 7444   5.793   5.536   3.948 -1.3205 -0.4053  2.2140
   20MOL   H187 7445   5.714   5.532   3.799 -0.6826 -0.5801  0.9904
   20MOL   H188 7446   5.710   5.294   3.789  1.0816  1.9896 -0.2905
   20MOL   H189 7447   5.761   5.269   3.958 -2.0120 -1.2356 -0.6192
   20MOL   H190 7448   5.557   5.696   3.941  0.2008 -0.7131  0.0055
   20MOL   H191 7449   5.629   5.667   4.098 -1.5381  1.6899  1.2767
   20MOL   C192 7450   5.921   5.326   3.832  0.2348 -0.4218 -0.7160
   20MOL   C193 7451   5.966   5.195   3.769 -0.4583 -0.2478 -1.0451
   20MOL   C194 7452   6.102   5.160   3.819 -0.1396  0.1094 -0.0237
   20MOL   C195 7453   6.095   5.220   3.956 -0.2762 -0.2520  0.0481
   20MOL   C196 7454   6.235   5.228   4.011 -0.7555  0.9505 -0.2380
   20MOL   C197 7455   6.300   5.099   4.047 -0.0011 -0.8938  0.1914
   20MOL   C198 7456   6.024   5.357   3.940  0.0345  0.6513 -0.9085
   20MOL   H199 7457   5.928   5.398   3.750  1.3909 -0.6933 -0.8652
   20MOL   H200 7458   5.896   5.115   3.793 -0.2392  0.3891  1.8195
   20MOL   H201 7459   5.970   5.190   3.660  1.6697  2.6731 -1.1736
   20MOL   H202 7460   6.161   5.215   3.745  1.0210  1.8915  2.1605
   20MOL   H203 7461   6.138   5.057   3.821  0.3130  0.2761  0.9768
   20MOL   H204 7462   6.036   5.146   4.009 -0.3429  1.1356  1.9462
   20MOL   H205 7463   6.223   5.298   4.094 -1.0579  1.1993 -0.4905
   20MOL   H206 7464   6.305   5.273   3.941  1.9076 -3.3161 -0.4791
   20MOL   H207 7465   6.344   5.050   3.960  0.1892  1.7301 -1.2352
   20MOL   H208 7466   6.227   5.026   4.082 -0.4112 -0.3577  0.4554
   20MOL   H209 7467   6.086   5.441   3.911  1.1592  0.8953  1.9739
   20MOL   H210 7468   5.982   5.394   4.034  0.4235  2.6153 -1.4932
   20MOL   C211 7469   6.394   5.100   4.166 -0.0103  0.4581 -0.6117
   20MOL   C212 7470   6.460   4.973   4.202  0.5002  0.3625 -0.1250
   20MOL   C213 7471   6.447   4.944   4.352  0.1505  0.1293  0.3604
   20MOL   C214 7472   6.405   5.080   4.411 -0.0242 -1.0329 -0.2202
   20MOL   C215 7473   6.333   5.067   4.549  1.0498 -1.3866 -0.3876
   20MOL   C216 7474   6.282   5.208   4.589  0.7365  0.0819  0.0572
   20MOL   C217 7475   6.324   5.143   4.297  0.2136 -0.1823 -0.7951
   20MOL   H218 7476   6.481   5.162   4.145 -1.4191  2.4009 -0.7946
   20MOL   H219 7477   6.413   4.898   4.139 -0.1484  0.6588  0.0036
   20MOL   H220 7478   6.568   4.979   4.188  0.8593  1.1449  2.6144
   20MOL   H221 7479   6.369   4.868   4.357  1.2189 -1.2151 -2.3534
   20MOL   H222 7480   6.543   4.905   4.389 -0.4133 -0.9858  0.6853
   20MOL   H223 7481   6.496   5.139   4.426  0.6705 -2.3528  0.8832
   20MOL   H224 7482   6.409   5.030   4.618 -0.9497  1.3030  3.4081
   20MOL   H225 7483   6.258   4.989   4.546 -2.1614  1.4999  0.6278
   20MOL   H226 7484   6.360   5.284   4.581  0.7355  0.0330 -0.4646
   20MOL   H227 7485   6.214   5.244   4.513  1.0794  2.7519  0.9819
   20MOL   H228 7486   6.320   5.251   4.312  0.2151 -0.1480 -1.0424
   20MOL   H229 7487   6.220   5.112   4.304  0.5607 -0.6251  3.6742
   20MOL   C230 7488   6.207   5.206   4.724 -0.2552  0.0751  0.2758
   20MOL   C231 7489   6.293   5.160   4.840  0.2980  0.0495 -0.3541
   20MOL   C232 7490   6.197   5.074   4.926 -0.2959 -0.5119  0.4581
   20MOL   C233 7491   6.112   5.000   4.821  0.1542  0.1236 -0.4186
   20MOL   C234 7492   5.983   4.934   4.879 -0.3948  0.3868 -0.4925
   20MOL   C235 7493   5.876   4.883   4.776  0.0553 -0.6862 -0.3099
   20MOL   C236 7494   6.086   5.112   4.726 -0.9457 -0.1825 -0.2377
   20MOL   H237 7495   6.177   5.310   4.739 -0.0454 -0.0303  1.4596
   20MOL   H238 7496   6.373   5.091   4.815 -0.6768 -1.7017  1.2208
   20MOL   H239 7497   6.335   5.247   4.890  2.2819 -0.2566 -1.4291
   20MOL   H240 7498   6.136   5.146   4.982  0.4443 -1.0698  2.0073
   20MOL   H241 7499   6.241   5.013   5.005 -1.6424 -0.9011  0.9206
   20MOL   H242 7500   6.183   4.940   4.763 -1.1713 -0.4542 -1.4839
   20MOL   H243 7501   5.951   5.011   4.949  2.3122  0.1487  1.0898
   20MOL   H244 7502   6.007   4.854   4.949  0.6990  0.4571 -0.7840
   20MOL   H245 7503   5.778   4.873   4.821  0.4627  2.8976  1.5450
   20MOL   H246 7504   5.859   4.951   4.693 -0.4365 -3.3600 -2.4483
   20MOL   H247 7505   5.997   5.167   4.759 -1.8926 -2.6636  1.4485
   20MOL   H248 7506   6.063   5.067   4.630  0.2828 -3.2796  0.8826
   20MOL   C249 7507   5.921   4.748   4.703  0.6734 -0.8386  0.0344
   20MOL   C250 7508   5.942   4.628   4.792  0.0321 -0.0697  0.5500
   20MOL   C251 7509   5.816   4.536   4.772  0.1486  0.3150 -0.2233
   20MOL   C252 7510   5.712   4.613   4.688 -0.4644 -0.3499  0.2122
   20MOL   C253 7511   5.626   4.541   4.592 -0.3427  0.0994  0.2632
   20MOL   C254 7512   5.522   4.627   4.523 -0.5335 -0.2675 -0.6991
   20MOL   C255 7513   5.816   4.700   4.611 -0.5150 -0.5344  0.4432
   20MOL   H256 7514   6.010   4.781   4.650  1.4244  0.1543  1.8468
   20MOL   H257 7515   6.033   4.576   4.763  1.3654  2.0195  0.8655
   20MOL   H258 7516   5.938   4.652   4.898 -0.2920  0.6329  0.3842
   20MOL   H259 7517   5.762   4.520   4.865 -0.4100 -1.1267 -0.7700
   20MOL   H260 7518   5.843   4.437   4.736 -3.5224 -0.9672  0.2784
   20MOL   H261 7519   5.661   4.680   4.757 -0.9543 -0.0641 -0.4284
   20MOL   H262 7520   5.580   4.462   4.652  0.2056  0.4058  1.0942
   20MOL   H263 7521   5.701   4.496   4.527 -0.5748 -0.9623  0.7135
   20MOL   H264 7522   5.565   4.696   4.451 -1.5471 -0.4837 -1.5303
   20MOL   H265 7523   5.474   4.684   4.602  0.1986 -1.2982  0.5194
   20MOL   H266 7524   5.776   4.787   4.559  0.0602 -0.1681  0.6138
   20MOL   H267 7525   5.867   4.640   4.535  0.8950  0.7585  0.3591
   20MOL   C268 7526   5.415   4.536   4.453 -0.3827  0.5554 -0.5980
   20MOL   C269 7527   5.452   4.492   4.313  0.8629  0.0549  0.4529
   20MOL   C270 7528   5.320   4.426   4.270 -0.7101 -0.1647  0.4059
   20MOL   C271 7529   5.209   4.527   4.316  0.7945 -0.2300 -0.0617
   20MOL   C272 7530   5.161   4.629   4.210 -0.2558  0.0254 -0.0427
   20MOL   C273 7531   5.077   4.565   4.096  0.2102  0.7476  0.7596
   20MOL   C274 7532   5.281   4.599   4.430  0.2503 -0.3187  0.0649
   20MOL   H275 7533   5.398   4.446   4.513  2.0286  0.9815  0.7849
   20MOL   H276 7534   5.474   4.580   4.252 -2.8188  0.5190 -0.3687
   20MOL   H277 7535   5.538   4.426   4.324  1.7356  1.0330 -0.3557
   20MOL   H278 7536   5.330   4.396   4.166  1.5141  0.9115  0.2850
   20MOL   H279 7537   5.320   4.333   4.326 -0.7128 -1.6261 -1.9556
   20MOL   H280 7538   5.122   4.481   4.363 -0.1324  0.5134 -1.0198
   20MOL   H281 7539   5.246   4.682   4.169 -0.5884 -0.2980 -1.1647
   20MOL   H282 7540   5.106   4.708   4.261 -2.0651 -1.4161  0.2901
   20MOL   H283 7541   5.130   4.479   4.053 -2.4455 -0.4028 -0.3417
   20MOL   H284 7542   4.988   4.523   4.144  0.2858 -0.0790  0.1961
   20MOL   H285 7543   5.295   4.706   4.411  0.4068 -0.1795  0.9501
   20MOL   H286 7544   5.220   4.591   4.519  0.0269 -0.8648 -0.1375
   20MOL   C287 7545   5.050   4.659   3.974  0.6152 -0.0729  0.4052
   20MOL   C288 7546   5.004   4.599   3.839  0.0401  1.6001 -0.1188
   20MOL   C289 7547   4.899   4.695   3.778  0.3451  0.4178  0.2550
   20MOL   C290 7548   4.895   4.814   3.874  0.1229 -0.2000  0.0861
   20MOL   C291 7549   4.756   4.875   3.878  0.1727 -0.5824 -0.8433
   20MOL   C292 7550   4.707   4.949   3.750 -0.1842  0.0347 -0.5434
   20MOL   C293 7551   4.951   4.768   4.012  0.0840  0.0871 -0.0073
   20MOL   H294 7552   5.137   4.721   3.949  1.4454 -2.5728 -3.4408
   20MOL   H295 7553   5.092   4.598   3.774  0.9330 -2.4516  1.0191
   20MOL   H296 7554   4.968   4.496   3.836  2.3915  0.7531 -0.3644
   20MOL   H297 7555   4.809   4.634   3.791 -0.7938  2.1873  0.8262
   20MOL   H298 7556   4.919   4.729   3.676  3.2959  0.1758  0.6938
   20MOL   H299 7557   4.961   4.891   3.833  0.3149 -1.0975 -1.3418
   20MOL   H300 7558   4.740   4.939   3.964 -2.2010 -0.0686 -1.6278
   20MOL   H301 7559   4.693   4.794   3.914  0.3531 -0.0330  0.7455
   20MOL   H302 7560   4.610   4.995   3.770 -0.3853  0.2715 -2.0202
   20MOL   H303 7561   4.693   4.874   3.673 -2.3983 -0.9160  0.7429
   20MOL   H304 7562   4.868   4.725   4.067  1.6106 -1.3200  1.2608
   20MOL   H305 7563   4.986   4.845   4.080  0.1968 -0.2243  0.2829
   20MOL   C306 7564   4.797   5.056   3.694 -0.1304  0.0571  0.3884
   20MOL   C307 7565   4.716   5.139   3.597 -0.4481  0.3002  0.1700
   20MOL   C308 7566   4.796   5.262   3.579  0.5080  0.1665 -0.4341
   20MOL   C309 7567   4.883   5.274   3.714 -0.3378 -0.2115  0.3997
   20MOL   C310 7568   4.876   5.407   3.790 -1.1953  0.0174 -0.4435
   20MOL   C311 7569   4.962   5.521   3.723  0.1861  0.2238  0.7023
   20MOL   C312 7570   4.838   5.150   3.799 -0.2975 -0.1937 -0.2137
   20MOL   H313 7571   4.886   5.010   3.650  0.8163  1.9936  0.2231
   20MOL   H314 7572   4.686   5.087   3.506 -0.3650  0.1526  0.2270
   20MOL   H315 7573   4.623   5.170   3.645 -0.4462  1.3741 -0.5022
   20MOL   H316 7574   4.859   5.254   3.491  1.2041 -3.2118  0.2967
   20MOL   H317 7575   4.727   5.346   3.570 -1.0783 -1.1301 -0.4207
   20MOL   H318 7576   4.985   5.253   3.683  0.5146  1.5460  1.8807
   20MOL   H319 7577   4.775   5.441   3.815 -1.1404 -2.0816  2.8516
   20MOL   H320 7578   4.921   5.395   3.888 -2.0083 -0.4372 -0.1221
   20MOL   H321 7579   4.929   5.528   3.620 -1.3507 -1.3684  1.0626
   20MOL   H322 7580   5.069   5.503   3.729  0.0502 -0.6874  0.4437
   20MOL   H323 7581   4.763   5.170   3.875  0.0245  3.5037 -0.7747
   20MOL   H324 7582   4.914   5.106   3.863  1.5390  2.7895 -0.2391
   20MOL   C325 7583   4.946   5.669   3.785  0.4866  0.5301 -0.0082
   20MOL   C326 7584   4.967   5.691   3.938  0.3575  0.2334 -0.0191
   20MOL   C327 7585   4.984   5.841   3.953 -0.1575 -0.5188 -0.9288
   20MOL   C328 7586   5.070   5.873   3.838 -0.8718 -0.2335  0.3319
   20MOL   C329 7587   5.049   6.018   3.804 -0.0705  0.6364 -0.8979
   20MOL   C330 7588   5.145   6.057   3.687 -0.1753  0.0113  0.6200
   20MOL   C331 7589   5.041   5.775   3.726  0.3937  1.0019 -0.0242
   20MOL   H332 7590   4.850   5.707   3.749  0.8345  0.1378 -1.3648
   20MOL   H333 7591   5.058   5.646   3.979  0.8762 -1.2516 -2.6311
   20MOL   H334 7592   4.879   5.663   3.995 -0.0029  1.0508 -0.1576
   20MOL   H335 7593   4.887   5.890   3.946 -0.1238 -0.4484 -0.8981
   20MOL   H336 7594   5.035   5.875   4.044 -2.7888  0.5601  0.1967
   20MOL   H337 7595   5.177   5.864   3.858 -0.7621  2.7778  1.3985
   20MOL   H338 7596   4.950   6.063   3.796  0.5869  1.7997 -2.9364
   20MOL   H339 7597   5.091   6.066   3.892 -0.2819 -1.4911  0.3863
   20MOL   H340 7598   5.248   6.061   3.724 -0.3340  1.6721  0.9142
   20MOL   H341 7599   5.158   5.974   3.617  1.4240  0.9644 -0.2467
   20MOL   H342 7600   5.134   5.732   3.689 -0.5521  0.5829 -1.9447
   20MOL   H343 7601   4.994   5.824   3.641 -1.1655  0.5376  0.5529
   20MOL   C344 7602   5.101   6.172   3.591  0.4002  0.4010 -0.4909
   20MOL   C345 7603   5.189   6.184   3.462 -0.2435 -0.2090  0.4790
   20MOL   C346 7604   5.158   6.326   3.414  0.0308 -0.1247  0.1395
   20MOL   C347 7605   5.106   6.408   3.536  0.8931  0.3975 -0.0970
   20MOL   C348 7606   4.965   6.473   3.524  0.0446  0.4853 -0.3987
   20MOL   C349 7607   4.956   6.577   3.410 -0.2637  0.1512 -0.4729
   20MOL   C350 7608   5.115   6.313   3.654  0.2945 -0.2668  0.0484
   20MOL   H351 7609   4.998   6.157   3.560  0.9712 -0.9287 -1.7810
   20MOL   H352 7610   5.149   6.113   3.389 -1.5969  1.4205 -0.3971
   20MOL   H353 7611   5.293   6.172   3.490  0.4779  0.1758 -1.8767
   20MOL   H354 7612   5.248   6.374   3.377 -0.5398  1.7601  1.0839
   20MOL   H355 7613   5.093   6.332   3.327 -1.9218 -3.5221  1.2836
   20MOL   H356 7614   5.186   6.480   3.553  0.1719  1.6987 -2.0568
   20MOL   H357 7615   4.893   6.394   3.505  1.3299 -0.8377  0.1033
   20MOL   H358 7616   4.941   6.522   3.619 -1.1451  0.3848 -0.6428
   20MOL   H359 7617   4.958   6.535   3.310  0.5797  0.8359 -0.7529
   20MOL   H360 7618   5.043   6.642   3.407 -0.9909  1.1527 -0.3325
   20MOL   H361 7619   5.220   6.321   3.685  0.6333  1.1233 -1.3920
   20MOL   H362 7620   5.042   6.330   3.733  0.4470  1.9167 -0.2696
   20MOL   C363 7621   4.829   6.659   3.427  0.0285 -0.1651 -0.8403
   20MOL   C364 7622   4.777   6.741   3.313  0.1320  0.3154  0.1117
   20MOL   C365 7623   4.690   6.851   3.365 -0.5234 -0.0089  0.1780
   20MOL   C366 7624   4.694   6.831   3.516  0.8730 -0.4666 -0.1926
   20MOL   C367 7625   4.677   6.967   3.585 -0.1132 -0.5562 -0.3188
   20MOL   C368 7626   4.644   6.965   3.731 -0.6537  0.2431 -0.8994
   20MOL   C369 7627   4.827   6.764   3.538 -0.7476 -0.3364 -0.1346
   20MOL   H370 7628   4.749   6.590   3.455  1.1263 -0.4504  1.7497
   20MOL   H371 7629   4.857   6.780   3.249 -1.0718  0.7722 -1.1266
   20MOL   H372 7630   4.717   6.670   3.257  2.0454 -0.8599 -0.4994
   20MOL   H373 7631   4.735   6.945   3.334  0.3693 -0.7492 -0.8068
   20MOL   H374 7632   4.595   6.827   3.317  0.9909 -1.0854 -2.4196
   20MOL   H375 7633   4.611   6.769   3.549  0.4094  0.6047  0.6961
   20MOL   H376 7634   4.773   7.013   3.562 -0.9260  0.2094 -2.3243
   20MOL   H377 7635   4.595   7.019   3.535 -0.9299 -0.4065  1.1420
   20MOL   H378 7636   4.577   7.050   3.748 -2.0920 -1.1511  0.5059
   20MOL   H379 7637   4.728   6.987   3.798 -0.0532  0.0407 -1.5838
   20MOL   H380 7638   4.908   6.837   3.531  0.4932 -1.6628  0.2739
   20MOL   H381 7639   4.834   6.722   3.638  0.6325  1.1889  0.4406
   20MOL   H382 7640   4.596   6.872   3.760 -0.1340 -0.1541 -1.3029
   21MOL     C1 7641   5.221   4.488   0.733  0.0862  0.7676  0.4025
   21MOL     C2 7642   5.193   4.338   0.749 -0.3452  0.7373 -0.3249
   21MOL     C3 7643   5.050   4.318   0.694 -0.0300 -0.0341  0.4720
   21MOL     C4 7644   5.024   4.439   0.604 -0.3597 -0.3281 -0.0210
   21MOL     C5 7645   4.876   4.467   0.571  0.0261 -0.7846  0.6491
   21MOL     C6 7646   4.849   4.606   0.521 -0.1575 -0.8860  0.3636
   21MOL     C7 7647   5.094   4.552   0.682  0.0012 -0.3442  0.4054
   21MOL     H8 7648   5.258   4.531   0.826  2.2460  0.2874 -0.2050
   21MOL     H9 7649   5.210   4.298   0.849  1.3630  1.2173 -0.4078
   21MOL    H10 7650   5.250   4.277   0.679  0.2943 -0.4375  1.1781
   21MOL    H11 7651   5.023   4.227   0.641 -0.4273  0.1432  0.3666
   21MOL    H12 7652   4.991   4.321   0.785  0.1625  3.9298  0.5450
   21MOL    H13 7653   5.086   4.426   0.515 -1.2525 -1.0667 -0.5528
   21MOL    H14 7654   4.843   4.387   0.505 -1.1757 -0.7520  1.2088
   21MOL    H15 7655   4.824   4.447   0.665 -1.8157 -3.4290 -0.8692
   21MOL    H16 7656   4.857   4.679   0.602 -0.0044  0.0957 -0.5212
   21MOL    H17 7657   4.917   4.633   0.439 -0.6022 -0.3063  0.1818
   21MOL    H18 7658   5.119   4.639   0.621  2.0552 -0.6197  0.8256
   21MOL    H19 7659   5.034   4.590   0.766  2.4414  4.1252  0.2888
   21MOL    H20 7660   5.299   4.507   0.659 -1.1053  0.6265 -0.9197
   21MOL    C21 7661   4.706   4.614   0.449  0.6119 -1.0424 -0.9998
   21MOL    C22 7662   4.577   4.555   0.516 -0.3871 -0.2818  0.0666
   21MOL    C23 7663   4.482   4.674   0.547 -0.4342  0.2455  0.4564
   21MOL    C24 7664   4.520   4.768   0.435 -0.0034  0.5518  0.4104
   21MOL    C25 7665   4.465   4.909   0.434  0.2881 -0.5398  0.8053
   21MOL    C26 7666   4.310   4.921   0.424 -0.2854 -0.8873  0.5742
   21MOL    C27 7667   4.675   4.764   0.436  0.2632 -0.8430  0.9891
   21MOL    H28 7668   4.728   4.566   0.354  0.1846  0.1494 -1.7114
   21MOL    H29 7669   4.532   4.484   0.446 -1.6325  1.3304 -0.8010
   21MOL    H30 7670   4.593   4.510   0.614 -0.2242  0.6472  0.4643
   21MOL    H31 7671   4.377   4.643   0.552 -0.7328  1.0757 -0.4692
   21MOL    H32 7672   4.507   4.712   0.645 -0.8006 -0.0559  0.6685
   21MOL    H33 7673   4.478   4.725   0.344  0.3545  0.4993  0.2703
   21MOL    H34 7674   4.509   4.959   0.348 -2.5804 -0.9676 -0.9628
   21MOL    H35 7675   4.487   4.968   0.523  0.8609 -2.3252  1.8852
   21MOL    H36 7676   4.272   4.855   0.502  0.3307  0.7689  2.3294
   21MOL    H37 7677   4.292   4.872   0.328  0.9807 -1.3787  0.5817
   21MOL    H38 7678   4.721   4.799   0.343  0.5907 -1.2309  1.0035
   21MOL    H39 7679   4.711   4.833   0.512  0.3625 -0.8310  0.9316
   21MOL    C40 7680   4.250   5.064   0.413  0.1436  0.3467  0.2406
   21MOL    C41 7681   4.118   5.064   0.338  0.4175 -0.5459  0.3459
   21MOL    C42 7682   4.061   5.196   0.362 -0.6904 -0.4623 -0.3138
   21MOL    C43 7683   4.100   5.233   0.511 -1.0954  0.3451 -0.1646
   21MOL    C44 7684   4.139   5.388   0.526  1.2673 -0.0900 -0.0952
   21MOL    C45 7685   4.029   5.498   0.495  0.0317 -0.4986  0.1059
   21MOL    C46 7686   4.216   5.137   0.546 -0.0087  0.0213 -0.0663
   21MOL    H47 7687   4.311   5.134   0.357 -1.5119  1.3296 -0.3860
   21MOL    H48 7688   4.054   4.981   0.368  0.1574 -1.0770 -1.6229
   21MOL    H49 7689   4.126   5.049   0.230 -1.8804 -1.0407  0.2170
   21MOL    H50 7690   4.099   5.264   0.286  1.2984  0.6504  1.6016
   21MOL    H51 7691   3.955   5.193   0.338 -1.3683  1.1505  2.1963
   21MOL    H52 7692   4.015   5.209   0.575 -0.0396 -0.4095  0.9782
   21MOL    H53 7693   4.153   5.398   0.633  0.0769  0.7131 -0.0083
   21MOL    H54 7694   4.232   5.412   0.476  0.0680 -2.3012 -3.6045
   21MOL    H55 7695   3.929   5.455   0.497 -1.4235  2.8014 -0.3415
   21MOL    H56 7696   4.057   5.534   0.396 -1.9438 -0.6146 -0.5093
   21MOL    H57 7697   4.308   5.186   0.579  0.0038 -0.6870  0.9731
   21MOL    H58 7698   4.180   5.070   0.624 -1.1489  0.4376 -0.2350
   21MOL    C59 7699   4.019   5.614   0.597  0.3641 -0.5823  0.4515
   21MOL    C60 7700   4.153   5.674   0.636  0.1996  0.1352 -0.0375
   21MOL    C61 7701   4.114   5.806   0.699  0.4137  0.4599 -0.7535
   21MOL    C62 7702   3.998   5.856   0.617 -0.2400  0.1736 -0.4548
   21MOL    C63 7703   3.893   5.942   0.698  0.1137 -0.3073  0.6494
   21MOL    C64 7704   3.813   6.027   0.604 -0.1421  0.1717  0.7041
   21MOL    C65 7705   3.933   5.735   0.555  0.2120  0.6735  0.1033
   21MOL    H66 7706   3.968   5.576   0.686  0.5772 -2.1083 -0.0665
   21MOL    H67 7707   4.201   5.606   0.706  1.7063  0.0333 -1.1234
   21MOL    H68 7708   4.226   5.686   0.555  2.9608 -2.3037  2.0083
   21MOL    H69 7709   4.085   5.781   0.801  0.3418 -1.2970 -1.2001
   21MOL    H70 7710   4.204   5.866   0.719  1.0463 -1.4581  2.4689
   21MOL    H71 7711   4.038   5.922   0.540  1.2031 -0.0864  0.0561
   21MOL    H72 7712   3.942   6.006   0.771  0.2635 -0.9702  1.1330
   21MOL    H73 7713   3.819   5.873   0.740  0.1962 -1.2320 -0.6907
   21MOL    H74 7714   3.875   6.102   0.554  1.1780 -0.3780  1.4844
   21MOL    H75 7715   3.790   5.956   0.525  1.8746 -1.1229  1.2295
   21MOL    H76 7716   3.832   5.710   0.588  0.2955  1.7614  1.2192
   21MOL    H77 7717   3.938   5.735   0.446  2.7061 -4.2771  0.0561
   21MOL    C78 7718   3.683   6.088   0.667  0.0552  0.3995 -0.4914
   21MOL    C79 7719   3.704   6.209   0.758 -0.3707  0.3213  0.1209
   21MOL    C80 7720   3.626   6.324   0.688  0.1297 -0.0218 -0.2962
   21MOL    C81 7721   3.516   6.250   0.623 -0.2109  0.0933 -0.4135
   21MOL    C82 7722   3.440   6.332   0.518 -0.0296  0.3295  0.4292
   21MOL    C83 7723   3.345   6.252   0.428 -0.0905  0.1112 -0.2165
   21MOL    C84 7724   3.586   6.126   0.557  0.6121 -0.3654  0.1237
   21MOL    H85 7725   3.636   6.012   0.730  0.0661  0.4218 -0.4558
   21MOL    H86 7726   3.666   6.195   0.859  1.3866 -0.9464  0.6243
   21MOL    H87 7727   3.811   6.229   0.755 -0.5486  1.1344 -0.8939
   21MOL    H88 7728   3.593   6.397   0.762  1.0189 -0.7378  0.8231
   21MOL    H89 7729   3.683   6.373   0.609 -0.7092  3.0247  0.9229
   21MOL    H90 7730   3.455   6.211   0.705  0.2611  0.1497 -0.0394
   21MOL    H91 7731   3.514   6.387   0.459 -0.4127 -0.2485 -0.6129
   21MOL    H92 7732   3.376   6.405   0.568 -0.2432  0.2438  0.2793
   21MOL    H93 7733   3.289   6.184   0.493  1.3288 -1.2345 -0.3517
   21MOL    H94 7734   3.394   6.185   0.356 -2.3128 -1.1224 -0.6199
   21MOL    H95 7735   3.638   6.168   0.471 -0.6355 -1.9326 -1.4420
   21MOL    H96 7736   3.519   6.045   0.527 -0.4759 -0.6263  3.0874
   21MOL    C97 7737   3.242   6.347   0.368 -0.1847 -0.6411  0.4672
   21MOL    C98 7738   3.120   6.281   0.305 -0.4706  0.2417  0.2530
   21MOL    C99 7739   3.058   6.388   0.207  0.0141 -0.3831  0.2300
   21MOL   C100 7740   3.156   6.509   0.211 -0.1669 -0.5760 -0.2923
   21MOL   C101 7741   3.153   6.569   0.072 -0.2532 -0.0970  0.0898
   21MOL   C102 7742   3.226   6.707   0.060  0.6558 -0.4788 -0.0259
   21MOL   C103 7743   3.285   6.444   0.263 -0.6386  0.3264 -0.0427
   21MOL   H104 7744   3.198   6.398   0.454 -1.4993 -2.0762  0.6725
   21MOL   H105 7745   3.159   6.195   0.249  0.0838  0.5702  0.1291
   21MOL   H106 7746   3.045   6.244   0.375 -1.0203  1.1415  0.1364
   21MOL   H107 7747   3.064   6.337   0.111  2.1731 -1.1175  0.7179
   21MOL   H108 7748   2.956   6.421   0.226 -0.1020  0.9889 -2.5383
   21MOL   H109 7749   3.114   6.582   0.280  1.4771 -0.3950  0.5268
   21MOL   H110 7750   3.207   6.500   0.007  1.8957 -0.4380  2.1610
   21MOL   H111 7751   3.054   6.586   0.030  0.1751  0.7587 -0.6100
   21MOL   H112 7752   3.175   6.780   0.122 -0.8692 -0.1136 -1.6545
   21MOL   H113 7753   3.312   6.697   0.126  0.3470  1.3927  0.6698
   21MOL   H114 7754   3.339   6.381   0.193 -1.9378 -0.3355 -0.4552
   21MOL   H115 7755   3.361   6.512   0.303 -1.4852 -0.0355  2.2974
   21MOL   C116 7756   3.263   6.753   7.565  0.0983  0.0903 -0.5258
   21MOL   C117 7757   3.261   6.909   7.555  0.2494  0.2771  0.1692
   21MOL   C118 7758   3.409   6.942   7.547  0.3207 -0.0602  0.0056
   21MOL   C119 7759   3.471   6.828   7.473 -0.3286  0.3302 -0.3073
   21MOL   C120 7760   3.623   6.815   7.487 -0.3890 -0.1509  0.4319
   21MOL   C121 7761   3.677   6.710   7.387  0.1026  0.5765 -1.0364
   21MOL   C122 7762   3.405   6.702   7.523 -0.2349 -0.1728  0.1665
   21MOL   H123 7763   3.194   6.719   7.488  1.0572 -1.1765 -0.8356
   21MOL   H124 7764   3.212   6.973   7.627  0.7811 -0.2930  1.0445
   21MOL   H125 7765   3.223   6.945   7.459  2.0518  2.6031  0.2698
   21MOL   H126 7766   3.453   6.952   7.647 -1.0722  2.7226  0.3978
   21MOL   H127 7767   3.420   7.041   7.504 -0.0748 -0.3095 -0.6651
   21MOL   H128 7768   3.433   6.839   7.372  1.4361 -1.8056 -1.2360
   21MOL   H129 7769   3.646   6.795   7.591 -1.3556 -2.6089  0.2112
   21MOL   H130 7770   3.664   6.914   7.465  0.1652 -0.6728 -1.0001
   21MOL   H131 7771   3.629   6.729   7.291 -2.6694 -0.4753  0.0874
   21MOL   H132 7772   3.660   6.609   7.424  0.2773  1.3027  1.1261
   21MOL   H133 7773   3.414   6.625   7.447 -1.0667 -0.6151  0.5158
   21MOL   H134 7774   3.460   6.665   7.610  0.5694  0.8942  0.1250
   21MOL   C135 7775   3.833   6.717   7.374 -0.5520  0.2322  1.2152
   21MOL   C136 7776   3.913   6.654   7.486 -0.5018 -0.0739 -0.7168
   21MOL   C137 7777   4.047   6.607   7.425  0.5010  0.0609  0.3239
   21MOL   C138 7778   4.029   6.589   7.277  0.7182 -0.4736  0.1711
   21MOL   C139 7779   4.124   6.676   7.186  0.0078 -0.4520  0.2513
   21MOL   C140 7780   4.273   6.631   7.182  0.3058  0.2405 -0.4144
   21MOL   C141 7781   3.877   6.637   7.251  0.4147 -0.2443  0.5251
   21MOL   H142 7782   3.865   6.822   7.373 -2.9513  0.9906  1.8194
   21MOL   H143 7783   3.926   6.725   7.568  0.1996 -1.7479  0.6652
   21MOL   H144 7784   3.848   6.570   7.513 -1.4591  0.2644 -1.9384
   21MOL   H145 7785   4.106   6.698   7.440  1.7465 -0.5066 -1.0239
   21MOL   H146 7786   4.099   6.526   7.476 -1.1063 -0.3126  1.4056
   21MOL   H147 7787   4.037   6.483   7.255  0.9022 -0.5871  0.7752
   21MOL   H148 7788   4.113   6.782   7.209  0.1436 -0.2690 -0.5129
   21MOL   H149 7789   4.083   6.668   7.086 -0.4942  0.3530  0.3952
   21MOL   H150 7790   4.322   6.692   7.106 -0.4572  0.7386 -0.5144
   21MOL   H151 7791   4.321   6.645   7.278  0.5410 -0.2530 -0.4554
   21MOL   H152 7792   3.811   6.551   7.246 -2.1554  1.7833 -2.0433
   21MOL   H153 7793   3.862   6.693   7.159 -1.4028 -0.2135  0.8197
   21MOL   C154 7794   4.281   6.478   7.129 -0.3013  0.0740 -0.0239
   21MOL   C155 7795   4.422   6.440   7.086  0.3162  0.7628  0.5483
   21MOL   C156 7796   4.402   6.341   6.972  0.3919 -0.1667 -0.7366
   21MOL   C157 7797   4.257   6.337   6.934 -0.0968 -0.4283  0.1552
   21MOL   C158 7798   4.253   6.318   6.783  0.1061  0.7058 -1.1075
   21MOL   C159 7799   4.109   6.299   6.732 -0.2955 -0.6136  0.4856
   21MOL   C160 7800   4.196   6.457   6.999  0.2691 -0.6378 -0.1642
   21MOL   H161 7801   4.256   6.405   7.207  0.3036  0.2864  0.3691
   21MOL   H162 7802   4.480   6.520   7.038  0.6958 -0.8386 -1.7225
   21MOL   H163 7803   4.471   6.389   7.169  0.3890 -2.3436 -1.3170
   21MOL   H164 7804   4.462   6.360   6.883  1.5633  1.0264  0.2874
   21MOL   H165 7805   4.448   6.247   7.002  2.1013  0.6847 -0.6321
   21MOL   H166 7806   4.221   6.244   6.978 -1.2233 -0.0402  0.0594
   21MOL   H167 7807   4.313   6.233   6.750 -1.3367 -0.1576 -1.5416
   21MOL   H168 7808   4.302   6.398   6.726  1.7771 -0.3839 -1.2331
   21MOL   H169 7809   4.045   6.387   6.721  1.3126  0.5554  0.2654
   21MOL   H170 7810   4.118   6.270   6.627 -0.9902 -0.3833  0.3621
   21MOL   H171 7811   4.089   6.449   7.014 -0.2357  2.4930 -1.7056
   21MOL   H172 7812   4.211   6.539   6.929  1.2615  1.2206  2.1121
   21MOL   C173 7813   4.034   6.185   6.799 -0.1068  0.4592 -0.1989
   21MOL   C174 7814   3.893   6.174   6.737 -0.4079 -0.5826 -0.1852
   21MOL   C175 7815   3.849   6.028   6.755 -0.3983  0.4021  0.0033
   21MOL   C176 7816   3.975   5.954   6.796 -0.4873 -0.0555  0.2999
   21MOL   C177 7817   3.998   5.814   6.740 -0.1133  0.0714 -0.3508
   21MOL   C178 7818   4.123   5.754   6.807  0.3912 -0.5306 -0.2715
   21MOL   C179 7819   4.096   6.049   6.789  0.4303 -0.5113 -0.2237
   21MOL   H180 7820   4.023   6.195   6.908 -0.5301  2.3587 -0.3920
   21MOL   H181 7821   3.893   6.190   6.629 -2.5644  1.8269  0.1355
   21MOL   H182 7822   3.818   6.242   6.777  0.1800  0.9593 -1.6479
   21MOL   H183 7823   3.767   6.006   6.823  0.5408 -0.2283  0.9445
   21MOL   H184 7824   3.827   5.994   6.654  1.8256  0.0355 -0.3837
   21MOL   H185 7825   3.953   5.937   6.901  0.2583 -0.0341  0.4632
   21MOL   H186 7826   4.002   5.810   6.631 -1.8634 -2.9060 -0.3626
   21MOL   H187 7827   3.911   5.752   6.760  0.1767  0.0933  1.0007
   21MOL   H188 7828   4.120   5.757   6.916 -1.0814  0.6275 -0.3167
   21MOL   H189 7829   4.212   5.810   6.778 -0.6483  0.8099 -0.9376
   21MOL   H190 7830   4.151   6.032   6.697  3.0284 -1.6003  1.4516
   21MOL   H191 7831   4.166   6.030   6.871  0.0362 -0.6961  0.0700
   21MOL   C192 7832   4.139   5.607   6.767 -0.4708  0.0962 -0.7789
   21MOL   C193 7833   4.044   5.506   6.828  0.1849 -0.8417  0.1641
   21MOL   C194 7834   4.124   5.377   6.848  0.1790 -0.1484 -0.2441
   21MOL   C195 7835   4.261   5.436   6.886  0.8859  0.2400  0.2938
   21MOL   C196 7836   4.368   5.335   6.896 -0.4154  0.1635 -0.1170
   21MOL   C197 7837   4.383   5.252   7.024  0.3300 -0.6294 -0.1779
   21MOL   C198 7838   4.281   5.546   6.788  0.2576  0.5274 -0.5939
   21MOL   H199 7839   4.130   5.605   6.658  0.6077 -1.8290 -0.8636
   21MOL   H200 7840   4.007   5.547   6.922  1.0615 -1.4069  0.7654
   21MOL   H201 7841   3.964   5.496   6.755  0.2641 -1.0287  0.1033
   21MOL   H202 7842   4.143   5.319   6.757  1.6735  0.2852 -0.2271
   21MOL   H203 7843   4.091   5.301   6.920 -1.8588 -0.9901 -2.0056
   21MOL   H204 7844   4.245   5.481   6.984  2.1897  0.7555  0.2808
   21MOL   H205 7845   4.455   5.399   6.884  0.3130 -0.8733 -0.3357
   21MOL   H206 7846   4.358   5.282   6.801 -2.7010  0.3543 -0.0100
   21MOL   H207 7847   4.297   5.186   7.033 -0.5985  0.2467 -2.4063
   21MOL   H208 7848   4.376   5.323   7.107 -3.2734  0.1901 -1.1056
   21MOL   H209 7849   4.330   5.510   6.697  1.0539 -1.1042  0.4603
   21MOL   H210 7850   4.349   5.623   6.825  0.4531  0.1571 -0.1775
   21MOL   C211 7851   4.522   5.183   7.033 -0.6923 -0.3285  0.6973
   21MOL   C212 7852   4.532   5.061   6.947  0.0746  0.0019 -0.2534
   21MOL   C213 7853   4.634   4.969   7.006  0.5424  0.4095  0.0824
   21MOL   C214 7854   4.676   5.030   7.141  0.0169  0.0093 -0.8477
   21MOL   C215 7855   4.710   4.928   7.251 -0.0732 -0.2651 -0.3687
   21MOL   C216 7856   4.793   4.808   7.213 -0.1713  0.1391 -0.3411
   21MOL   C217 7857   4.558   5.125   7.171  0.1109 -0.1182  0.6702
   21MOL   H218 7858   4.603   5.252   7.011 -0.8822 -0.2738  0.1475
   21MOL   H219 7859   4.431   5.021   6.938  0.5941 -1.3534 -0.1683
   21MOL   H220 7860   4.572   5.081   6.847  0.3396 -2.9956 -0.8053
   21MOL   H221 7861   4.596   4.867   7.016  1.5774 -0.0324 -0.4997
   21MOL   H222 7862   4.720   4.939   6.946  0.1472 -1.7040  0.5477
   21MOL   H223 7863   4.764   5.091   7.120  0.0564  0.1344 -0.3363
   21MOL   H224 7864   4.611   4.898   7.287 -0.1237 -2.6042 -2.3313
   21MOL   H225 7865   4.752   4.989   7.331 -3.3209  0.3477  0.9552
   21MOL   H226 7866   4.814   4.749   7.303  4.6385  0.5480 -1.0921
   21MOL   H227 7867   4.729   4.748   7.148 -1.0162  1.4596 -0.7527
   21MOL   H228 7868   4.588   5.196   7.248 -1.6019 -0.6435  1.8418
   21MOL   H229 7869   4.473   5.074   7.216  0.0968  0.1716  0.9676
   21MOL   C230 7870   4.924   4.829   7.138 -0.2090  0.1425  0.0399
   21MOL   C231 7871   4.991   4.703   7.083  0.2184  0.3596 -0.7113
   21MOL   C232 7872   5.130   4.754   7.050 -0.4204 -0.4418 -0.6594
   21MOL   C233 7873   5.149   4.893   7.122 -0.6989 -0.6698 -0.3053
   21MOL   C234 7874   5.158   5.005   7.016  0.2209  0.2979  0.2320
   21MOL   C235 7875   5.278   5.016   6.920  0.0735 -0.3988 -0.2430
   21MOL   C236 7876   5.029   4.909   7.218 -0.5947 -0.3304  0.0775
   21MOL   H237 7877   4.895   4.883   7.048  1.5843  0.7773 -0.1747
   21MOL   H238 7878   4.995   4.631   7.165  0.9020 -0.1004 -1.1458
   21MOL   H239 7879   4.939   4.662   6.997 -0.4316 -2.5555  0.9734
   21MOL   H240 7880   5.131   4.767   6.942 -0.8070  0.2222 -0.5822
   21MOL   H241 7881   5.205   4.682   7.086 -1.5697 -0.6757  1.3717
   21MOL   H242 7882   5.235   4.894   7.189 -0.4684 -2.3246 -0.5386
   21MOL   H243 7883   5.141   5.106   7.052 -2.5553 -0.2952  0.7332
   21MOL   H244 7884   5.064   4.982   6.964  0.7547 -0.6379 -0.3407
   21MOL   H245 7885   5.315   4.914   6.906  0.9884 -0.0656 -0.2655
   21MOL   H246 7886   5.252   5.048   6.819  1.0819  0.1419 -0.3361
   21MOL   H247 7887   4.995   5.011   7.235 -1.2377 -0.4528 -0.4315
   21MOL   H248 7888   5.067   4.866   7.310 -1.0937  2.3768  1.5879
   21MOL   C249 7889   5.397   5.108   6.977 -0.1734 -0.0734  0.0333
   21MOL   C250 7890   5.454   5.043   7.103  0.4396  0.1376  0.1928
   21MOL   C251 7891   5.596   5.093   7.115  0.1661  0.2987 -0.1389
   21MOL   C252 7892   5.643   5.103   6.967 -0.3691 -0.0112 -0.8344
   21MOL   C253 7893   5.757   5.207   6.960  0.1942 -0.2348  0.1176
   21MOL   C254 7894   5.812   5.230   6.823 -0.2891  0.9083  0.2565
   21MOL   C255 7895   5.515   5.123   6.887  0.4061  0.0240  0.0747
   21MOL   H256 7896   5.363   5.210   6.998  2.1300  0.3683  1.7824
   21MOL   H257 7897   5.393   5.050   7.193 -0.2486 -2.5827 -0.0229
   21MOL   H258 7898   5.461   4.935   7.089 -1.4269 -0.0003  0.1768
   21MOL   H259 7899   5.668   5.044   7.180 -0.9569  0.7970  1.4894
   21MOL   H260 7900   5.600   5.186   7.172 -0.0552 -1.0172  2.0380
   21MOL   H261 7901   5.680   5.004   6.941  1.6917  0.3560  0.6211
   21MOL   H262 7902   5.833   5.166   7.027  0.1567  0.9383  0.8942
   21MOL   H263 7903   5.716   5.302   6.993  1.1584  1.0421 -2.3029
   21MOL   H264 7904   5.735   5.277   6.761  0.1284  0.1594 -0.8463
   21MOL   H265 7905   5.849   5.140   6.773  2.6347  1.8392  0.6949
   21MOL   H266 7906   5.520   5.056   6.802  0.1643  1.2624 -0.9333
   21MOL   H267 7907   5.518   5.221   6.840 -2.8425 -0.6609 -1.6513
   21MOL   C268 7908   5.926   5.324   6.828 -0.5562 -0.0706  0.1216
   21MOL   C269 7909   5.897   5.467   6.872 -0.1329 -0.4760 -0.0354
   21MOL   C270 7910   5.974   5.556   6.775 -0.8562 -0.2446  0.4491
   21MOL   C271 7911   6.064   5.469   6.687 -0.2637  0.1367 -0.1363
   21MOL   C272 7912   6.102   5.526   6.544  0.0056 -0.6767  0.1274
   21MOL   C273 7913   6.210   5.440   6.464 -0.2200  0.4871  0.2307
   21MOL   C274 7914   5.988   5.338   6.694  0.8369  1.0206 -0.4745
   21MOL   H275 7915   6.002   5.302   6.904 -0.9491 -0.8623  0.2813
   21MOL   H276 7916   5.790   5.483   6.859  0.5333  5.6675  0.2600
   21MOL   H277 7917   5.924   5.490   6.976  1.4236 -1.2703 -0.2444
   21MOL   H278 7918   5.904   5.618   6.720 -2.2635 -1.5900  0.6819
   21MOL   H279 7919   6.036   5.632   6.822 -0.4703  0.0852 -0.5792
   21MOL   H280 7920   6.157   5.454   6.741  1.1786  1.2719 -2.2495
   21MOL   H281 7921   6.130   5.632   6.546  0.9066 -0.9262  2.3904
   21MOL   H282 7922   6.006   5.533   6.493 -0.2426 -0.8699  0.5689
   21MOL   H283 7923   6.294   5.411   6.526 -0.0086  1.5176  0.4233
   21MOL   H284 7924   6.157   5.349   6.434  0.4544 -0.2912  1.3704
   21MOL   H285 7925   5.912   5.341   6.616  1.4239 -1.6694 -1.2027
   21MOL   H286 7926   6.048   5.248   6.685 -0.4596  0.1044  0.0012
   21MOL   C287 7927   6.258   5.506   6.334  0.2510  0.7488  0.2226
   21MOL   C288 7928   6.147   5.540   6.232  0.1379 -0.0113  0.0787
   21MOL   C289 7929   6.208   5.658   6.138  0.0903  0.3760  0.7715
   21MOL   C290 7930   6.344   5.692   6.200  0.3760  0.1230 -0.2919
   21MOL   C291 7931   6.375   5.844   6.194 -0.4421  0.0752  0.2753
   21MOL   C292 7932   6.527   5.873   6.236 -0.3862 -0.2228  0.3826
   21MOL   C293 7933   6.348   5.630   6.341  0.4210  0.6318  0.0389
   21MOL   H294 7934   6.321   5.435   6.279  1.8688  2.0476  0.3493
   21MOL   H295 7935   6.120   5.450   6.177  0.2676 -0.4005  0.6534
   21MOL   H296 7936   6.055   5.573   6.280  1.1668 -0.1809  2.2112
   21MOL   H297 7937   6.146   5.747   6.138  0.7136  0.8194 -0.2693
   21MOL   H298 7938   6.226   5.632   6.034 -0.6866  1.8835  0.2488
   21MOL   H299 7939   6.418   5.644   6.136 -0.3196 -0.9722 -0.2895
   21MOL   H300 7940   6.306   5.899   6.257  0.3822  1.5966 -0.1175
   21MOL   H301 7941   6.356   5.882   6.094  0.8699 -0.7445 -0.3147
   21MOL   H302 7942   6.592   5.835   6.157  0.2167 -1.5556  1.5128
   21MOL   H303 7943   6.544   5.817   6.327  1.7622 -1.3875 -0.6944
   21MOL   H304 7944   6.293   5.693   6.411  0.5916  0.2016  0.5667
   21MOL   H305 7945   6.443   5.599   6.385  0.5221 -0.0302 -0.6378
   21MOL   C306 7946   6.565   6.022   6.254  0.1346  0.6899  0.4084
   21MOL   C307 7947   6.708   6.061   6.282 -0.1807 -0.5315 -0.0300
   21MOL   C308 7948   6.732   6.181   6.191 -0.4476 -0.4851 -0.2449
   21MOL   C309 7949   6.599   6.231   6.139 -0.9687 -0.3064  1.0396
   21MOL   C310 7950   6.615   6.294   5.993  0.1058 -0.2010  0.4873
   21MOL   C311 7951   6.503   6.385   5.951 -0.5089  0.9487  0.4635
   21MOL   C312 7952   6.519   6.100   6.126  0.5113  0.0439  0.0311
   21MOL   H313 7953   6.515   6.052   6.346 -2.6333 -0.3509 -0.6982
   21MOL   H314 7954   6.719   6.094   6.385  1.7854  0.7376 -0.6242
   21MOL   H315 7955   6.782   5.981   6.271 -0.1519 -0.4453 -0.4939
   21MOL   H316 7956   6.780   6.259   6.252 -1.5387 -0.7429  0.9672
   21MOL   H317 7957   6.797   6.152   6.108 -1.0832 -0.4317 -0.7607
   21MOL   H318 7958   6.549   6.298   6.208 -0.2495  0.4881  0.7955
   21MOL   H319 7959   6.706   6.355   6.002 -0.7459  1.2025 -0.3376
   21MOL   H320 7960   6.633   6.221   5.914 -1.6821  0.7033 -0.7953
   21MOL   H321 7961   6.492   6.447   6.040 -2.1882  0.2891  0.7337
   21MOL   H322 7962   6.404   6.340   5.940  0.0041 -0.4097  1.3006
   21MOL   H323 7963   6.546   6.057   6.029 -0.2705  0.7008 -0.4845
   21MOL   H324 7964   6.413   6.123   6.118  0.9025  1.8012 -0.2115
   21MOL   C325 7965   6.546   6.453   5.822 -0.3119  0.5080 -0.7150
   21MOL   C326 7966   6.431   6.518   5.746 -0.3680 -0.6095 -0.3411
   21MOL   C327 7967   6.503   6.603   5.631 -0.4465 -0.3715 -0.2796
   21MOL   C328 7968   6.648   6.628   5.691  0.3384 -0.8542  0.0493
   21MOL   C329 7969   6.768   6.589   5.594  0.6914  0.6945  0.0082
   21MOL   C330 7970   6.768   6.664   5.454 -0.3028 -0.3458 -0.1373
   21MOL   C331 7971   6.654   6.560   5.828  0.1134 -0.3486 -0.4519
   21MOL   H332 7972   6.578   6.375   5.753  0.8719  0.0094  0.3817
   21MOL   H333 7973   6.395   6.595   5.814  0.9541 -0.1281 -0.1684
   21MOL   H334 7974   6.349   6.456   5.709 -1.0715 -0.2838  0.6736
   21MOL   H335 7975   6.510   6.544   5.539  0.6835  1.1096 -1.1635
   21MOL   H336 7976   6.451   6.694   5.600  0.2137  0.4865  1.0983
   21MOL   H337 7977   6.651   6.736   5.709 -1.5981 -0.6480 -0.7431
   21MOL   H338 7978   6.858   6.604   5.654  0.7121 -0.9984  0.4204
   21MOL   H339 7979   6.767   6.483   5.571 -1.6946  0.6576  0.1650
   21MOL   H340 7980   6.669   6.680   5.411  1.3519  1.7851 -3.3781
   21MOL   H341 7981   6.803   6.765   5.474  0.0022 -0.7459  1.4129
   21MOL   H342 7982   6.648   6.627   5.915  0.4722  0.1801 -0.8335
   21MOL   H343 7983   6.750   6.515   5.851  0.3847  0.6286  0.4079
   21MOL   C344 7984   6.855   6.584   5.356  0.3158  0.3761  0.4678
   21MOL   C345 7985   6.894   6.669   5.236 -0.0431  0.6662 -0.4228
   21MOL   C346 7986   6.944   6.579   5.128 -0.4499 -0.1464 -0.4205
   21MOL   C347 7987   6.869   6.442   5.159  0.9365 -0.4908  0.2065
   21MOL   C348 7988   6.963   6.319   5.165 -0.5263 -0.0005  0.3930
   21MOL   C349 7989   7.047   6.306   5.035 -0.5093 -0.2700 -0.1287
   21MOL   C350 7990   6.788   6.466   5.286 -0.5621 -0.6380 -0.3134
   21MOL   H351 7991   6.949   6.551   5.401  0.0778  1.9776  2.1985
   21MOL   H352 7992   6.944   6.761   5.264  1.2481  0.0637 -0.7127
   21MOL   H353 7993   6.798   6.711   5.204 -0.6095 -1.9115 -2.3881
   21MOL   H354 7994   6.915   6.611   5.028  2.9532  2.6835 -0.6020
   21MOL   H355 7995   7.052   6.564   5.122 -0.2298  0.9908  0.4752
   21MOL   H356 7996   6.799   6.416   5.080  1.6002 -0.0683 -0.5277
   21MOL   H357 7997   7.018   6.307   5.258  2.0208  0.4669 -0.9985
   21MOL   H358 7998   6.894   6.235   5.162 -0.5445 -0.0336  1.4486
   21MOL   H359 7999   7.137   6.359   5.069  0.5601 -2.4645  0.5476
   21MOL   H360 8000   7.014   6.357   4.945 -0.0712 -1.0327 -0.7280
   21MOL   H361 8001   6.684   6.499   5.278 -0.1579  1.0303  0.9992
   21MOL   H362 8002   6.785   6.382   5.356  0.5460 -1.4830 -1.2558
   21MOL   C363 8003   7.097   6.166   5.000 -0.0787 -1.0825  0.2399
   21MOL   C364 8004   7.187   6.164   4.878  0.0363  0.5414  0.9396
   21MOL   C365 8005   7.102   6.124   4.752  0.2950 -0.4206 -0.0461
   21MOL   C366 8006   7.004   6.024   4.811  0.0999  0.3737  0.1159
   21MOL   C367 8007   6.876   6.019   4.725  0.0104  0.0282  0.3265
   21MOL   C368 8008   6.769   5.920   4.770 -0.4142 -0.1771  0.4363
   21MOL   C369 8009   6.978   6.088   4.952  0.0851  0.3144 -0.6432
   21MOL   H370 8010   7.127   6.121   5.094 -3.4136  1.3117  2.5603
   21MOL   H371 8011   7.250   6.252   4.865  3.3154 -1.3185  3.4522
   21MOL   H372 8012   7.264   6.088   4.894 -1.6682 -1.3716  0.3469
   21MOL   H373 8013   7.046   6.208   4.712  1.3756  0.1797 -0.3059
   21MOL   H374 8014   7.155   6.082   4.666  2.9390  0.2446  1.2073
   21MOL   H375 8015   7.051   5.926   4.818 -0.8796 -0.0013  1.7560
   21MOL   H376 8016   6.826   6.116   4.724 -0.6047 -0.2883 -0.9308
   21MOL   H377 8017   6.903   5.991   4.623 -1.7613  0.5574 -0.3081
   21MOL   H378 8018   6.669   5.946   4.736 -0.5326 -0.0723  0.8734
   21MOL   H379 8019   6.764   5.921   4.878  1.7999  2.2804  0.5731
   21MOL   H380 8020   6.895   6.155   4.931  0.3257  0.4064 -1.3179
   21MOL   H381 8021   6.955   6.009   5.023  1.2944 -0.1050 -0.6993
   21MOL   H382 8022   6.791   5.818   4.738 -0.8504  0.3041 -1.4801
   22MOL     C1 8023   0.935   2.500   3.799  0.0595 -0.5843  0.0204
   22MOL     C2 8024   0.797   2.548   3.855 -0.7060  0.4977 -0.0998
   22MOL     C3 8025   0.718   2.417   3.844  0.0759  0.0297 -0.7048
   22MOL     C4 8026   0.799   2.306   3.780  0.3751  0.0233  0.8615
   22MOL     C5 8027   0.716   2.218   3.682 -0.3975 -0.8615  0.1496
   22MOL     C6 8028   0.787   2.082   3.667 -0.3108  0.9037 -0.1825
   22MOL     C7 8029   0.908   2.379   3.707 -0.1013  0.3116 -0.9520
   22MOL     H8 8030   0.995   2.574   3.747 -0.0352 -1.4419 -1.3547
   22MOL     H9 8031   0.755   2.633   3.801 -1.1956  0.3948  0.1141
   22MOL    H10 8032   0.824   2.577   3.956 -1.6962 -2.7118  1.1529
   22MOL    H11 8033   0.674   2.390   3.940 -1.8541  2.9102 -0.7068
   22MOL    H12 8034   0.633   2.440   3.780 -1.8661  0.0855  1.7981
   22MOL    H13 8035   0.844   2.251   3.863  2.2894  2.8110  1.7474
   22MOL    H14 8036   0.616   2.213   3.726 -0.9498 -1.4407 -1.1423
   22MOL    H15 8037   0.703   2.269   3.586  0.5327 -1.5651 -0.3509
   22MOL    H16 8038   0.890   2.105   3.638  0.2883  0.0348  1.2188
   22MOL    H17 8039   0.797   2.022   3.758  2.3195  0.2507 -0.8512
   22MOL    H18 8040   0.988   2.305   3.701  1.1809  1.6631 -0.7988
   22MOL    H19 8041   0.878   2.403   3.605 -0.8004 -0.5121 -0.9467
   22MOL    H20 8042   0.997   2.489   3.888  1.4514 -2.0521 -1.0952
   22MOL    C21 8043   0.734   1.999   3.557  0.4251  0.1940  0.0383
   22MOL    C22 8044   0.768   2.040   3.413  0.7326  0.0634 -0.2390
   22MOL    C23 8045   0.753   1.905   3.332  0.0655 -0.1702 -0.7580
   22MOL    C24 8046   0.766   1.785   3.432 -0.1320  0.2152 -0.0390
   22MOL    C25 8047   0.875   1.684   3.397 -0.7017  0.1518  0.0145
   22MOL    C26 8048   0.852   1.609   3.265  1.0101 -0.2914 -0.3040
   22MOL    C27 8049   0.796   1.856   3.562  0.2874  0.3680 -0.5278
   22MOL    H28 8050   0.625   1.997   3.569  0.1726 -1.8991 -2.2004
   22MOL    H29 8051   0.699   2.120   3.387 -0.2435 -1.4536 -2.5121
   22MOL    H30 8052   0.866   2.084   3.393  0.7259  0.3224  0.2940
   22MOL    H31 8053   0.659   1.903   3.278  0.2784 -0.2385 -1.1280
   22MOL    H32 8054   0.828   1.901   3.253  0.3355 -0.9307 -0.4723
   22MOL    H33 8055   0.671   1.732   3.438  0.8478 -1.4159  1.4287
   22MOL    H34 8056   0.891   1.608   3.474 -4.0557  0.2244  0.8456
   22MOL    H35 8057   0.972   1.733   3.391  1.1079 -2.7209  3.3336
   22MOL    H36 8058   0.860   1.688   3.190  0.7321 -1.0348 -1.1297
   22MOL    H37 8059   0.748   1.579   3.249  0.5115  0.1443  1.9455
   22MOL    H38 8060   0.756   1.790   3.639  0.0679  1.7950  0.5919
   22MOL    H39 8061   0.904   1.866   3.576  0.3551  0.1429 -0.8648
   22MOL    C40 8062   0.946   1.499   3.213  0.0266  0.6064  0.0592
   22MOL    C41 8063   0.924   1.363   3.274 -0.0095  0.9772 -0.8319
   22MOL    C42 8064   0.899   1.258   3.161 -0.0465 -0.9319 -0.3477
   22MOL    C43 8065   0.856   1.345   3.041 -0.0092 -0.0040 -0.1912
   22MOL    C44 8066   0.868   1.285   2.903 -0.4125 -0.9379  0.8213
   22MOL    C45 8067   0.794   1.147   2.885  0.3143  0.5631 -0.0223
   22MOL    C46 8068   0.939   1.477   3.063  0.4708  0.2047  0.2522
   22MOL    H47 8069   1.038   1.547   3.247 -1.2093  1.1472  2.7751
   22MOL    H48 8070   0.847   1.363   3.350  1.4796 -0.7471  0.7237
   22MOL    H49 8071   1.008   1.338   3.339 -0.9638 -0.4707 -0.1442
   22MOL    H50 8072   0.996   1.219   3.130  0.4538 -1.4234  1.7031
   22MOL    H51 8073   0.835   1.174   3.188  0.1044 -0.5493  1.2850
   22MOL    H52 8074   0.753   1.373   3.061  0.0161 -0.0522  0.0131
   22MOL    H53 8075   0.821   1.352   2.832 -1.0370 -1.2609  0.9307
   22MOL    H54 8076   0.973   1.287   2.872 -0.5841  0.8642  0.3296
   22MOL    H55 8077   0.691   1.158   2.919  0.9636  2.3666  1.4085
   22MOL    H56 8078   0.852   1.080   2.948  0.3632  1.2430  0.6651
   22MOL    H57 8079   1.042   1.461   3.030  0.4851  1.8162 -0.5661
   22MOL    H58 8080   0.903   1.568   3.014 -0.1431 -0.6005 -0.8217
   22MOL    C59 8081   0.798   1.108   2.735 -0.3431  0.0842 -0.2968
   22MOL    C60 8082   0.754   0.962   2.723 -1.0089  0.7404 -0.0916
   22MOL    C61 8083   0.698   0.951   2.583  0.1958 -0.3419  0.3945
   22MOL    C62 8084   0.622   1.082   2.568 -0.7255 -0.0497  0.0962
   22MOL    C63 8085   0.578   1.124   2.421  0.5083  0.9368  0.7290
   22MOL    C64 8086   0.487   1.023   2.363 -0.0002 -0.6126 -0.4061
   22MOL    C65 8087   0.696   1.184   2.650 -0.5994 -0.5225  0.4935
   22MOL    H66 8088   0.901   1.119   2.701 -0.1745 -0.1549  0.1226
   22MOL    H67 8089   0.835   0.890   2.736 -0.2860  1.5554 -0.0271
   22MOL    H68 8090   0.679   0.937   2.798 -1.2703  0.5601 -0.4113
   22MOL    H69 8091   0.779   0.942   2.511 -1.4017  1.0208 -1.6431
   22MOL    H70 8092   0.631   0.868   2.560 -0.5891  0.2795  0.4527
   22MOL    H71 8093   0.535   1.076   2.633  1.0243 -2.8297  2.2931
   22MOL    H72 8094   0.672   1.140   2.367 -1.2788  0.9523 -2.5016
   22MOL    H73 8095   0.532   1.222   2.419 -2.7729 -0.5802 -1.1926
   22MOL    H74 8096   0.554   0.938   2.348 -0.3227 -0.5208 -2.5187
   22MOL    H75 8097   0.410   0.996   2.435  1.1782  1.9804  1.9405
   22MOL    H76 8098   0.749   1.238   2.571 -0.8235 -0.4503  0.3910
   22MOL    H77 8099   0.636   1.255   2.707 -0.5386  0.0162 -0.1035
   22MOL    C78 8100   0.434   1.058   2.228  0.2016  0.4542 -0.0666
   22MOL    C79 8101   0.403   0.934   2.144 -0.4090 -0.3991  0.0722
   22MOL    C80 8102   0.321   0.995   2.024  0.0233  0.0712 -0.5245
   22MOL    C81 8103   0.288   1.143   2.070  0.0628  0.4868 -0.3950
   22MOL    C82 8104   0.149   1.197   2.027 -0.0125 -0.5326  0.0298
   22MOL    C83 8105   0.115   1.340   2.068  0.4170  0.7252  0.3223
   22MOL    C84 8106   0.310   1.141   2.227 -0.0425  0.2411  0.6535
   22MOL    H85 8107   0.502   1.123   2.173 -0.3507 -0.2326 -1.6057
   22MOL    H86 8108   0.495   0.887   2.108  0.4513  0.7819  0.6991
   22MOL    H87 8109   0.352   0.850   2.191 -0.1876  0.0666  1.1707
   22MOL    H88 8110   0.367   0.988   1.925  0.7687 -2.0372 -0.0508
   22MOL    H89 8111   0.227   0.941   2.011 -0.7915  1.6118 -1.1943
   22MOL    H90 8112   0.369   1.202   2.026  0.1397  1.4211  0.9892
   22MOL    H91 8113   0.076   1.119   2.047 -1.7624  0.4009 -2.5087
   22MOL    H92 8114   0.147   1.206   1.919 -1.1628  0.1148  0.0973
   22MOL    H93 8115   0.188   1.413   2.033  1.5986 -1.4785 -2.0000
   22MOL    H94 8116   0.113   1.341   2.176 -0.8648 -0.2828  0.3269
   22MOL    H95 8117   0.233   1.088   2.283  0.4657  0.6054  1.7119
   22MOL    H96 8118   0.331   1.241   2.265  0.7334 -0.5780  2.4094
   22MOL    C97 8119   7.623   1.378   2.010  0.2855  0.6308 -0.8157
   22MOL    C98 8120   7.580   1.523   2.021  0.5027  0.5136  0.4266
   22MOL    C99 8121   7.435   1.523   2.065  0.6813 -0.5847  0.3331
   22MOL   C100 8122   7.376   1.384   2.052 -0.4625 -0.1514  0.4885
   22MOL   C101 8123   7.259   1.336   2.131  0.0015  0.0907 -0.2068
   22MOL   C102 8124   7.135   1.430   2.112 -0.3833  0.0109  0.4216
   22MOL   C103 8125   7.502   1.301   2.081 -0.7124 -0.1176  0.1693
   22MOL   H104 8126   7.614   1.358   1.904 -0.1897  1.1112 -0.8725
   22MOL   H105 8127   7.645   1.568   2.095  2.1019 -1.0872  0.0493
   22MOL   H106 8128   7.596   1.571   1.924 -5.0125  2.5282  0.3774
   22MOL   H107 8129   7.430   1.557   2.169  1.4782 -0.4028  0.3152
   22MOL   H108 8130   7.385   1.603   2.011  0.2403 -0.5932  0.7215
   22MOL   H109 8131   7.362   1.365   1.946  0.9255  0.9305  0.0998
   22MOL   H110 8132   7.237   1.237   2.092  0.4691  0.4795 -1.4859
   22MOL   H111 8133   7.273   1.331   2.239  0.4882 -3.0076 -0.3776
   22MOL   H112 8134   7.172   1.531   2.131 -0.5666  0.1946 -0.1766
   22MOL   H113 8135   7.082   1.428   2.016 -2.0742 -1.9028  1.3685
   22MOL   H114 8136   7.516   1.295   2.189 -1.8827  1.6544  0.4420
   22MOL   H115 8137   7.497   1.198   2.045 -0.4055 -0.6421  1.6068
   22MOL   C116 8138   7.027   1.416   2.222 -0.0948 -0.3117  0.4828
   22MOL   C117 8139   7.069   1.413   2.365 -0.1437 -0.3541  0.4459
   22MOL   C118 8140   6.940   1.421   2.448 -0.7290 -0.0094 -0.2066
   22MOL   C119 8141   6.842   1.493   2.352 -0.1365 -1.2763  0.2507
   22MOL   C120 8142   6.777   1.619   2.419 -0.0194 -0.3110  0.2831
   22MOL   C121 8143   6.691   1.697   2.318  0.4548 -0.7571  0.1454
   22MOL   C122 8144   6.917   1.526   2.223  0.1691  1.2498  0.8687
   22MOL   H123 8145   6.978   1.326   2.184  0.1167  0.3381 -1.3579
   22MOL   H124 8146   7.136   1.494   2.392  1.7150 -1.8666  0.4787
   22MOL   H125 8147   7.126   1.322   2.385 -1.9757 -1.6814 -0.2384
   22MOL   H126 8148   6.949   1.480   2.539  2.7275 -1.1156  0.2249
   22MOL   H127 8149   6.898   1.325   2.477 -2.6340  0.6240 -0.8054
   22MOL   H128 8150   6.762   1.427   2.318  0.3894 -0.8018 -2.0309
   22MOL   H129 8151   6.847   1.694   2.457 -0.9334  0.7553 -0.1299
   22MOL   H130 8152   6.711   1.593   2.502 -1.4201 -0.0740 -0.7411
   22MOL   H131 8153   6.612   1.627   2.289 -0.5893  0.3128  0.3473
   22MOL   H132 8154   6.759   1.724   2.237 -0.3090 -1.3770 -0.7101
   22MOL   H133 8155   6.858   1.524   2.132  0.7157 -0.2694  0.5287
   22MOL   H134 8156   6.963   1.624   2.236 -0.4281  1.6313  0.1124
   22MOL   C135 8157   6.624   1.825   2.384 -0.2373 -0.1368  0.9467
   22MOL   C136 8158   6.576   1.922   2.274 -0.6877  0.4364 -0.2592
   22MOL   C137 8159   6.425   1.925   2.278  0.1296 -0.4463 -0.4610
   22MOL   C138 8160   6.382   1.795   2.346  0.2810 -0.4764 -1.1683
   22MOL   C139 8161   6.235   1.790   2.402 -0.6701 -0.3596 -0.1879
   22MOL   C140 8162   6.129   1.773   2.295 -0.0474  0.4429  0.2689
   22MOL   C141 8163   6.490   1.787   2.448  0.0288  0.3483  0.3861
   22MOL   H142 8164   6.687   1.869   2.462  0.2717  0.8326  0.0006
   22MOL   H143 8165   6.602   2.027   2.289  3.2338 -0.8084  2.4241
   22MOL   H144 8166   6.611   1.888   2.177 -1.2647 -0.4189 -0.1727
   22MOL   H145 8167   6.395   2.012   2.336  1.1970 -0.0672 -0.4664
   22MOL   H146 8168   6.390   1.947   2.177 -1.6833 -0.2213  0.1918
   22MOL   H147 8169   6.388   1.709   2.280 -1.1131 -0.9143 -0.7459
   22MOL   H148 8170   6.217   1.882   2.459 -1.2456 -0.3705 -0.3540
   22MOL   H149 8171   6.221   1.712   2.477 -0.8363 -0.3687 -0.2278
   22MOL   H150 8172   6.140   1.853   2.221 -2.7015 -0.0875 -0.7657
   22MOL   H151 8173   6.145   1.677   2.247  0.2255 -0.4870  2.1578
   22MOL   H152 8174   6.497   1.688   2.492  1.6367 -0.2320 -1.1409
   22MOL   H153 8175   6.464   1.846   2.536 -0.1330 -0.7845  1.1017
   22MOL   C154 8176   5.989   1.789   2.346  0.4405  0.0059 -0.3974
   22MOL   C155 8177   5.944   1.666   2.429 -0.3935 -0.4357 -0.6564
   22MOL   C156 8178   5.820   1.607   2.372 -0.5081 -0.3367 -0.2483
   22MOL   C157 8179   5.758   1.729   2.293 -0.0636  0.5484 -0.3401
   22MOL   C158 8180   5.657   1.679   2.178  0.6737 -0.6788 -0.1859
   22MOL   C159 8181   5.589   1.792   2.105  0.1683 -0.4471  0.1157
   22MOL   C160 8182   5.884   1.793   2.230  0.4298 -0.2656 -0.4376
   22MOL   H161 8183   5.976   1.882   2.402  0.8047 -0.2920  0.1907
   22MOL   H162 8184   6.031   1.602   2.440  0.9058  1.6920  1.7686
   22MOL   H163 8185   5.912   1.691   2.530 -0.5020 -1.8657 -0.3192
   22MOL   H164 8186   5.841   1.524   2.305 -0.7695 -0.6574  0.0665
   22MOL   H165 8187   5.750   1.575   2.449  0.9641  0.4184  1.4284
   22MOL   H166 8188   5.714   1.797   2.366  0.0341  1.3264 -1.0005
   22MOL   H167 8189   5.587   1.615   2.231 -0.4831 -0.3137 -1.2563
   22MOL   H168 8190   5.711   1.608   2.115  0.5980 -0.8147 -0.0977
   22MOL   H169 8191   5.563   1.878   2.168  2.9200  0.6454 -0.1529
   22MOL   H170 8192   5.651   1.841   2.030 -0.0539  0.2201  0.3646
   22MOL   H171 8193   5.874   1.900   2.215  4.2291 -0.0485 -1.9581
   22MOL   H172 8194   5.909   1.732   2.143 -0.4430 -1.0802 -0.1244
   22MOL   C173 8195   5.453   1.753   2.050 -0.1673  0.1336 -0.3092
   22MOL   C174 8196   5.365   1.861   1.981 -0.6040 -0.4336  0.4204
   22MOL   C175 8197   5.259   1.791   1.901 -0.3968  0.3130  0.6001
   22MOL   C176 8198   5.310   1.646   1.892 -0.3071  0.0199 -0.6890
   22MOL   C177 8199   5.292   1.589   1.747 -0.2414  0.1979 -0.4014
   22MOL   C178 8200   5.151   1.544   1.704  0.5195  0.1427  0.0693
   22MOL   C179 8201   5.457   1.648   1.946  0.6413 -0.3624 -0.7612
   22MOL   H180 8202   5.396   1.712   2.133  1.5503  1.0530  1.3647
   22MOL   H181 8203   5.421   1.932   1.920 -0.5960 -2.8470 -2.5524
   22MOL   H182 8204   5.318   1.911   2.065  1.4908  0.8355  0.8712
   22MOL   H183 8205   5.158   1.806   1.940 -1.4125 -0.2711 -1.7393
   22MOL   H184 8206   5.242   1.845   1.808 -0.0229 -0.3950  0.1236
   22MOL   H185 8207   5.259   1.581   1.963 -0.9116  0.3428 -0.8246
   22MOL   H186 8208   5.349   1.499   1.727  0.4215  0.1501  1.5377
   22MOL   H187 8209   5.335   1.644   1.663 -1.2442  1.8043  0.1053
   22MOL   H188 8210   5.087   1.523   1.790 -1.4975 -0.2563 -1.5132
   22MOL   H189 8211   5.155   1.452   1.646  0.1785 -0.7599  1.4432
   22MOL   H190 8212   5.528   1.670   1.866  1.2002  2.4946  0.4802
   22MOL   H191 8213   5.491   1.553   1.987  0.2692  0.2318  0.9634
   22MOL   C192 8214   5.078   1.646   1.621  0.1351  0.7874 -0.4325
   22MOL   C193 8215   4.933   1.611   1.596  0.3868 -0.9068  0.1888
   22MOL   C194 8216   4.890   1.706   1.486 -0.1060  0.6146 -0.2724
   22MOL   C195 8217   5.011   1.717   1.389  0.3805 -0.3115  0.0285
   22MOL   C196 8218   5.022   1.864   1.341  0.3662 -0.1467  0.1850
   22MOL   C197 8219   4.903   1.919   1.256  0.2644 -0.0145  0.1911
   22MOL   C198 8220   5.128   1.680   1.483 -0.2648  0.7715  0.3642
   22MOL   H199 8221   5.070   1.737   1.680  0.2540  0.7371 -0.3388
   22MOL   H200 8222   4.917   1.512   1.552  1.7048 -1.1951  0.3175
   22MOL   H201 8223   4.880   1.599   1.690 -1.9641 -1.9499 -1.2055
   22MOL   H202 8224   4.854   1.800   1.529 -0.6093 -0.8776  2.6737
   22MOL   H203 8225   4.798   1.666   1.443  0.0645  0.2859 -0.3254
   22MOL   H204 8226   5.002   1.648   1.305 -0.2105 -0.0434 -0.1312
   22MOL   H205 8227   5.115   1.862   1.285  1.5314 -0.2828  2.1035
   22MOL   H206 8228   5.037   1.939   1.419  1.2287  0.0360 -0.1537
   22MOL   H207 8229   4.813   1.912   1.318 -0.3521  1.6741 -0.4810
   22MOL   H208 8230   4.876   1.856   1.172  0.2863 -0.1135  0.2585
   22MOL   H209 8231   5.213   1.748   1.493  0.8067 -0.0591 -2.4987
   22MOL   H210 8232   5.174   1.588   1.446 -1.6369  0.5983 -0.9524
   22MOL   C211 8233   4.916   2.065   1.214  0.3119 -0.0611  0.2217
   22MOL   C212 8234   4.810   2.127   1.109 -0.4117  0.5255  0.0079
   22MOL   C213 8235   4.889   2.190   0.991  0.8636 -0.0906  0.8864
   22MOL   C214 8236   5.032   2.224   1.043  0.3815  0.6806  0.0161
   22MOL   C215 8237   5.133   2.238   0.922  0.3023  0.0476 -0.9842
   22MOL   C216 8238   5.288   2.282   0.961 -0.6550 -0.4419  0.0760
   22MOL   C217 8239   5.047   2.101   1.139 -0.1574  0.8891 -0.0209
   22MOL   H218 8240   4.915   2.123   1.306  1.9407 -0.5355  0.5552
   22MOL   H219 8241   4.747   2.043   1.079  0.9035  0.0632 -1.5969
   22MOL   H220 8242   4.746   2.203   1.153 -1.5115 -0.0288 -0.6253
   22MOL   H221 8243   4.903   2.118   0.910  2.1920  0.1637  0.8834
   22MOL   H222 8244   4.840   2.277   0.947  1.1925 -0.3688 -0.0550
   22MOL   H223 8245   5.052   2.304   1.113  0.9526  2.4536 -2.1129
   22MOL   H224 8246   5.091   2.319   0.864  1.3460  1.5543  0.3067
   22MOL   H225 8247   5.140   2.148   0.862 -1.1838 -0.8921  0.2268
   22MOL   H226 8248   5.285   2.383   1.000 -0.5073  0.1560 -1.4399
   22MOL   H227 8249   5.336   2.227   1.042 -0.9423 -0.0007  0.5466
   22MOL   H228 8250   5.120   2.118   1.218  0.3797  0.3826 -0.4051
   22MOL   H229 8251   5.098   2.017   1.092 -0.7872  0.7619 -0.4975
   22MOL   C230 8252   5.381   2.286   0.828 -0.0235  0.2688  0.2775
   22MOL   C231 8253   5.390   2.146   0.754 -0.0377  0.2326  0.4801
   22MOL   C232 8254   5.508   2.157   0.660 -0.0499 -0.2625  0.3235
   22MOL   C233 8255   5.607   2.247   0.727 -0.0420  0.5419 -0.7291
   22MOL   C234 8256   5.686   2.350   0.640  0.3069 -0.4605  0.3526
   22MOL   C235 8257   5.801   2.284   0.547 -0.7641 -0.6243  0.5147
   22MOL   C236 8258   5.526   2.324   0.838 -0.3855 -0.3067  0.8284
   22MOL   H237 8259   5.341   2.354   0.752  2.2060 -0.3801 -1.5438
   22MOL   H238 8260   5.404   2.064   0.825  1.8638  0.0430 -0.0825
   22MOL   H239 8261   5.306   2.119   0.691 -0.2455 -1.5557  1.4683
   22MOL   H240 8262   5.479   2.213   0.571 -0.1425  1.3948  1.3554
   22MOL   H241 8263   5.556   2.063   0.633  0.8774 -0.2739  1.9338
   22MOL   H242 8264   5.682   2.177   0.763  0.8221  1.3953 -0.8724
   22MOL   H243 8265   5.740   2.425   0.699 -0.5029  1.5141 -1.3410
   22MOL   H244 8266   5.613   2.405   0.580  2.5917  1.4962 -0.7192
   22MOL   H245 8267   5.883   2.245   0.608  0.3091  1.8622  0.7048
   22MOL   H246 8268   5.754   2.200   0.496  1.8218 -1.4424 -0.6144
   22MOL   H247 8269   5.556   2.428   0.838  0.3208 -0.4908 -0.5123
   22MOL   H248 8270   5.559   2.283   0.933 -0.2232 -2.2697 -0.0367
   22MOL   C249 8271   5.854   2.387   0.444 -0.1988 -0.3493  0.4515
   22MOL   C250 8272   5.946   2.310   0.347  0.2017 -0.4010 -0.1999
   22MOL   C251 8273   5.925   2.380   0.209  0.1545  0.0392  0.0008
   22MOL   C252 8274   5.775   2.406   0.209 -0.1173  0.0248 -0.2357
   22MOL   C253 8275   5.741   2.522   0.108 -0.3174 -0.2666  0.2423
   22MOL   C254 8276   5.796   2.500   7.613 -0.0297  0.1961 -0.4822
   22MOL   C255 8277   5.743   2.443   0.350  0.6019 -0.0840  0.3199
   22MOL   H256 8278   5.916   2.462   0.493  0.5077 -1.2910  1.0228
   22MOL   H257 8279   6.052   2.314   0.374  0.6838  0.0242 -2.0895
   22MOL   H258 8280   5.921   2.204   0.340 -2.3844  0.0971  0.8510
   22MOL   H259 8281   5.948   2.320   0.121  0.1515  0.5892 -0.3772
   22MOL   H260 8282   5.975   2.476   0.220 -0.4363  0.2780  0.6638
   22MOL   H261 8283   5.712   2.320   0.187 -2.1962  1.1742  1.1503
   22MOL   H262 8284   5.786   2.608   0.157 -2.8463 -0.2219  2.6313
   22MOL   H263 8285   5.632   2.532   0.100 -0.4860  0.0416  2.7360
   22MOL   H264 8286   5.787   2.394   7.589  2.0055 -0.6323  2.1505
   22MOL   H265 8287   5.900   2.533   7.608 -0.0166  0.0830 -0.9546
   22MOL   H266 8288   5.639   2.425   0.376  0.1937  2.0510  0.3091
   22MOL   H267 8289   5.745   2.552   0.356 -0.0421 -0.0906  0.6787
   22MOL   C268 8290   5.724   2.576   7.505  0.1370  0.1188 -0.8133
   22MOL   C269 8291   5.697   2.729   7.528  0.0216 -0.1013 -0.3404
   22MOL   C270 8292   5.554   2.745   7.478  0.1381  0.5217  0.8189
   22MOL   C271 8293   5.516   2.618   7.399 -0.4901  0.0100 -0.4591
   22MOL   C272 8294   5.356   2.584   7.389  0.3685 -0.0608  0.1004
   22MOL   C273 8295   5.284   2.545   7.512  0.1383  0.8286  0.2950
   22MOL   C274 8296   5.598   2.503   7.465 -0.3684 -0.0290 -0.0842
   22MOL   H275 8297   5.784   2.578   7.413 -0.6126 -0.5712 -1.3196
   22MOL   H276 8298   5.718   2.761   7.631 -3.6392 -3.0080  1.3991
   22MOL   H277 8299   5.763   2.789   7.465 -0.9169  1.4182  0.0890
   22MOL   H278 8300   5.491   2.763   7.565  0.1787 -1.7616  1.3450
   22MOL   H279 8301   5.538   2.831   7.413  2.1790  0.5792  0.3439
   22MOL   H280 8302   5.547   2.626   7.295 -1.9466 -0.1341 -0.9175
   22MOL   H281 8303   5.343   2.513   7.306  0.2083  1.7911 -1.4937
   22MOL   H282 8304   5.313   2.679   7.356 -1.8444 -0.6986  1.0496
   22MOL   H283 8305   5.303   2.443   7.545 -2.8366 -0.3528 -1.4425
   22MOL   H284 8306   5.312   2.607   7.597  3.4564 -2.2188  1.5986
   22MOL   H285 8307   5.539   2.462   7.547  0.2297 -0.6215  0.0551
   22MOL   H286 8308   5.622   2.428   7.390  1.9681  1.5005 -0.9063
   22MOL   C287 8309   5.129   2.537   7.508  0.0417  0.4874  0.5402
   22MOL   C288 8310   5.066   2.506   7.646  0.2552 -0.5581 -0.4976
   22MOL   C289 8311   4.961   2.611   0.036 -0.5936 -1.1002 -0.5645
   22MOL   C290 8312   4.942   2.692   7.563 -0.0419  0.1483  0.3460
   22MOL   C291 8313   4.887   2.835   7.596  0.0975 -0.4916 -0.8299
   22MOL   C292 8314   4.870   2.926   7.470 -0.1447 -0.4700  0.0825
   22MOL   C293 8315   5.069   2.683   7.479 -0.3894  0.4156 -0.7431
   22MOL   H294 8316   5.108   2.466   7.428  2.1156  1.4601 -0.9271
   22MOL   H295 8317   5.021   2.407   7.633 -1.8120  0.1103  1.4065
   22MOL   H296 8318   5.138   2.507   0.081 -1.0570  0.9163  0.6522
   22MOL   H297 8319   4.989   2.677   0.118 -1.4498 -0.7518 -0.5501
   22MOL   H298 8320   4.873   2.557   0.071 -1.5537 -0.7849 -2.3912
   22MOL   H299 8321   4.861   2.647   7.506  0.9088  1.3845 -2.0346
   22MOL   H300 8322   4.954   2.880   0.023  1.1537 -0.4805 -1.7830
   22MOL   H301 8323   4.794   2.832   0.007  1.1074  2.1452  1.0311
   22MOL   H302 8324   4.803   2.874   7.401 -0.5230 -0.8554  0.7392
   22MOL   H303 8325   4.962   2.937   7.412 -1.0249  0.7361 -1.1139
   22MOL   H304 8326   5.136   2.757   7.522 -0.5899  0.2025 -0.0583
   22MOL   H305 8327   5.056   2.697   7.372  0.3730  0.8247 -0.7852
   22MOL   C306 8328   4.812   3.061   7.512 -0.7184  0.0605 -0.1408
   22MOL   C307 8329   4.821   3.176   7.407 -1.0866  0.3684 -0.2755
   22MOL   C308 8330   4.733   3.276   7.479 -0.2651 -0.3420  0.4225
   22MOL   C309 8331   4.623   3.210   7.558 -0.3901  0.6119  0.5701
   22MOL   C310 8332   4.482   3.247   7.507  0.1832 -0.3109  0.4723
   22MOL   C311 8333   4.362   3.193   7.584  1.0403 -0.2285 -1.1139
   22MOL   C312 8334   4.660   3.063   7.542 -0.0533 -0.0778  0.3108
   22MOL   H313 8335   4.865   3.095   7.601 -0.4070 -0.8077  0.0149
   22MOL   H314 8336   4.927   3.201   7.397 -0.9344  0.7068  1.9246
   22MOL   H315 8337   4.792   3.139   7.309 -1.8119 -1.0511  0.4453
   22MOL   H316 8338   4.787   3.339   7.549  0.9294 -1.9714  1.0002
   22MOL   H317 8339   4.710   3.350   7.403 -2.1366 -0.9964  0.3210
   22MOL   H318 8340   4.625   3.237   0.017 -0.5247 -0.1614  0.7700
   22MOL   H319 8341   4.483   3.352   7.481 -2.2519 -0.3010  0.3097
   22MOL   H320 8342   4.472   3.201   7.409 -2.4464 -0.1395  0.6221
   22MOL   H321 8343   4.366   3.243   0.034  2.7640 -2.1486 -0.1695
   22MOL   H322 8344   4.383   3.089   7.608  2.2429  0.3194  0.2388
   22MOL   H323 8345   4.611   3.021   7.454 -0.4900  0.1171  0.4561
   22MOL   H324 8346   4.637   3.003   7.630 -3.0443  0.9328  0.2790
   22MOL   C325 8347   4.232   3.215   7.509  0.3635 -0.2165  0.0507
   22MOL   C326 8348   4.118   3.124   7.568 -0.0783 -0.1688 -0.3385
   22MOL   C327 8349   3.995   3.211   7.586 -0.1593  0.2146 -0.6355
   22MOL   C328 8350   4.026   3.353   7.536 -0.4373 -0.1358  0.3041
   22MOL   C329 8351   3.943   3.383   7.412 -0.0380  0.3681  0.6824
   22MOL   C330 8352   3.923   3.536   7.370 -0.3417  0.1367 -0.4596
   22MOL   C331 8353   4.183   3.358   7.530  1.0019  0.1536 -0.1983
   22MOL   H332 8354   4.237   3.197   7.402  1.5407  2.5387 -0.4066
   22MOL   H333 8355   4.139   3.088   0.021  1.9911  1.8213 -0.0105
   22MOL   H334 8356   4.109   3.028   7.516 -0.6770  0.7165 -1.9204
   22MOL   H335 8357   3.917   3.159   7.530  0.8293 -2.2496  0.2277
   22MOL   H336 8358   3.958   3.212   0.041  2.0631 -1.2837  0.2019
   22MOL   H337 8359   3.988   3.416   7.616 -0.6957  0.2649 -0.1305
   22MOL   H338 8360   3.998   3.336   7.332 -0.7639  0.0349  0.3742
   22MOL   H339 8361   3.845   3.335   7.411 -0.0947  0.5159 -0.8272
   22MOL   H340 8362   3.865   3.587   7.447 -1.6689 -0.5809 -0.9603
   22MOL   H341 8363   4.019   3.588   7.368  0.2017 -0.8722 -1.3399
   22MOL   H342 8364   4.224   3.411   7.616  2.9789  2.2087 -2.3752
   22MOL   H343 8365   4.215   3.425   7.451 -0.4591  0.1152 -0.8405
   22MOL   C344 8366   3.855   3.567   7.236 -0.1222 -0.1102 -0.2314
   22MOL   C345 8367   3.881   3.701   7.174  0.1112 -0.1359  0.3449
   22MOL   C346 8368   3.766   3.707   7.062  0.1642 -0.2762  0.0917
   22MOL   C347 8369   3.649   3.622   7.113 -0.2753  0.4451 -0.0113
   22MOL   C348 8370   3.573   3.551   6.994  0.3381  0.0585  0.0352
   22MOL   C349 8371   3.458   3.461   7.029  0.1505  0.0375 -0.5337
   22MOL   C350 8372   3.708   3.535   7.225  0.5737  0.3390  0.3961
   22MOL   H351 8373   3.891   3.493   7.164  2.0510  0.1465  0.5654
   22MOL   H352 8374   3.981   3.715   7.133  0.9267 -0.6822  2.0928
   22MOL   H353 8375   3.850   3.779   7.244 -0.7002 -2.2548  2.4264
   22MOL   H354 8376   3.734   3.806   7.029 -1.5926 -0.2371  1.8264
   22MOL   H355 8377   3.801   3.663   6.969  0.6620 -1.9304  1.0500
   22MOL   H356 8378   3.577   3.694   7.153  2.1341  2.3698  0.9756
   22MOL   H357 8379   3.550   3.628   6.920  2.3540  1.6809  1.0284
   22MOL   H358 8380   3.640   3.489   6.935 -0.7785 -1.0787 -0.0455
   22MOL   H359 8381   3.379   3.529   7.059 -1.7625 -2.4971  0.4134
   22MOL   H360 8382   3.482   3.396   7.113 -0.5045  2.7058  1.7755
   22MOL   H361 8383   3.662   3.577   7.315 -0.0091  1.0950 -0.2461
   22MOL   H362 8384   3.689   3.430   7.202 -0.5120  0.4881  0.5832
   22MOL   C363 8385   3.410   3.374   6.905 -0.1732  0.3810 -0.3942
   22MOL   C364 8386   3.273   3.303   6.941 -0.8344  0.5704 -0.0572
   22MOL   C365 8387   3.290   3.157   6.884  0.0475  0.3884  0.2692
   22MOL   C366 8388   3.412   3.153   6.795  0.7789  0.4245 -0.4049
   22MOL   C367 8389   3.476   3.017   6.769  0.9055  0.6699 -0.2171
   22MOL   C368 8390   3.370   2.930   6.694  0.1205  0.1106 -0.3386
   22MOL   C369 8391   3.504   3.253   6.865 -0.9307 -0.6275  0.5225
   22MOL   H370 8392   3.399   3.446   6.824 -0.4809  1.0368  0.2136
   22MOL   H371 8393   3.245   3.297   7.046  1.6641 -1.8170  0.5368
   22MOL   H372 8394   3.184   3.350   6.900 -0.2568  0.9693 -0.8571
   22MOL   H373 8395   3.308   3.094   6.972  0.9994  0.7135  0.3084
   22MOL   H374 8396   3.202   3.107   6.841  0.9571 -1.0618  0.0439
   22MOL   H375 8397   3.392   3.185   6.693  0.1262 -1.0121 -0.7368
   22MOL   H376 8398   3.563   3.029   6.705  0.6958 -0.0799 -0.6548
   22MOL   H377 8399   3.504   2.965   6.860  1.1241  1.5671  0.2298
   22MOL   H378 8400   3.271   2.931   6.741  0.8917 -0.7339  1.3614
   22MOL   H379 8401   3.410   2.830   6.682  0.9382  0.2762  0.8553
   22MOL   H380 8402   3.550   3.215   6.956 -0.9938  0.9317  1.2280
   22MOL   H381 8403   3.592   3.279   6.806 -0.9582  2.1349  1.6298
   22MOL   H382 8404   3.359   2.968   6.593 -0.1589  0.8178 -0.0473
   23MOL     C1 8405   0.466   2.847   1.758  0.1810 -0.1118  0.3046
   23MOL     C2 8406   0.426   2.977   1.684 -0.2981 -0.0446 -0.4691
   23MOL     C3 8407   0.272   2.984   1.686  0.3103  0.5152 -0.0250
   23MOL     C4 8408   0.220   2.849   1.743 -0.0497  1.3128  0.2879
   23MOL     C5 8409   0.206   2.754   1.622  0.4513 -0.1606 -0.5851
   23MOL     C6 8410   0.104   2.650   1.657 -0.8794 -0.6421  0.6810
   23MOL     C7 8411   0.332   2.812   1.837 -0.1555  0.5513 -0.6435
   23MOL     H8 8412   0.492   2.763   1.694  1.7745 -1.6280  2.8448
   23MOL     H9 8413   0.466   2.975   1.582 -1.0619  2.4659 -0.8710
   23MOL    H10 8414   0.457   3.068   1.735 -1.1314  0.9664 -1.7338
   23MOL    H11 8415   0.250   3.066   1.754 -1.3895  0.8835 -0.9751
   23MOL    H12 8416   0.232   3.019   1.590 -0.8582 -0.9258 -0.0856
   23MOL    H13 8417   0.124   2.854   1.793  0.0300 -1.1156  0.7801
   23MOL    H14 8418   0.166   2.814   1.540  1.3954  0.6419 -0.4557
   23MOL    H15 8419   0.293   2.701   1.584  0.4202 -1.3198  0.9380
   23MOL    H16 8420   0.151   2.572   1.716 -0.2047  0.4363  1.5903
   23MOL    H17 8421   0.026   2.690   1.722 -0.9564 -0.0312  0.2194
   23MOL    H18 8422   0.312   2.875   1.923 -0.1812 -0.3577  0.0170
   23MOL    H19 8423   0.335   2.707   1.865 -1.2037  0.3932 -1.1101
   23MOL    H20 8424   0.544   2.868   1.833 -1.5551 -0.2597  2.2000
   23MOL    C21 8425   0.045   2.594   1.528 -0.3587  0.3429 -0.1453
   23MOL    C22 8426   7.632   2.454   1.536 -0.2431 -0.0142 -0.1254
   23MOL    C23 8427   7.553   2.449   1.411  0.0659  0.1957 -0.0177
   23MOL    C24 8428   7.510   2.590   1.370 -0.1124  0.4109  0.5572
   23MOL    C25 8429   7.360   2.619   1.371  0.2055 -0.5763 -0.9756
   23MOL    C26 8430   7.276   2.558   1.254  0.1258  0.1794 -0.4959
   23MOL    C27 8431   7.583   2.675   1.470 -0.5791 -0.0090 -0.4387
   23MOL    H28 8432   0.126   2.583   1.456 -0.8326  0.1650 -0.6554
   23MOL    H29 8433   0.054   2.369   1.534 -1.7413 -1.2558 -0.1890
   23MOL    H30 8434   7.575   2.448   1.628  1.5403 -1.5891  0.9243
   23MOL    H31 8435   7.627   2.409   1.341  0.1562 -0.1007  0.2481
   23MOL    H32 8436   7.481   2.368   1.411 -1.8660  1.8469  1.8676
   23MOL    H33 8437   7.548   2.611   1.270 -0.9570  1.3162  0.4131
   23MOL    H34 8438   7.354   2.728   1.367 -1.5410 -0.5062  2.0572
   23MOL    H35 8439   7.312   2.592   1.464 -0.7155 -0.7267 -1.4853
   23MOL    H36 8440   7.210   2.475   1.277 -1.1981  1.2358 -0.4421
   23MOL    H37 8441   7.343   2.517   1.178  0.5592 -0.9397  0.4872
   23MOL    H38 8442   7.619   2.766   1.420  0.2783 -0.1377 -0.0670
   23MOL    H39 8443   7.513   2.701   1.549  0.6587 -1.8394  1.3052
   23MOL    C40 8444   7.181   2.660   1.178  0.2168 -0.3488 -0.0899
   23MOL    C41 8445   7.103   2.593   1.072 -0.0291  0.1059  0.2383
   23MOL    C42 8446   7.005   2.696   1.029 -0.8241  0.4456  0.1537
   23MOL    C43 8447   6.961   2.761   1.166 -0.4006  0.4085 -0.4669
   23MOL    C44 8448   6.931   2.912   1.155 -0.0010 -0.1379 -0.1190
   23MOL    C45 8449   6.890   2.980   1.284 -0.0494  0.1236 -1.1647
   23MOL    C46 8450   7.074   2.729   1.261  0.2590  1.1797 -0.5290
   23MOL    H47 8451   7.241   2.739   1.133 -2.1928  0.4658 -2.0125
   23MOL    H48 8452   7.058   2.504   1.117  1.5392 -0.1993  1.2508
   23MOL    H49 8453   7.166   2.558   0.991 -1.0276 -1.2302  0.0250
   23MOL    H50 8454   7.068   2.762   0.969 -0.8853  0.7321  0.4013
   23MOL    H51 8455   6.925   2.674   0.959 -0.4741  4.2866 -1.5625
   23MOL    H52 8456   6.872   2.710   1.204  0.2621  1.3736  2.5109
   23MOL    H53 8457   7.012   2.964   1.105 -1.9402  2.1913 -0.9537
   23MOL    H54 8458   6.844   2.906   1.089  1.2405 -2.3767 -1.6374
   23MOL    H55 8459   6.950   2.954   1.371 -1.5373  1.5028  0.2958
   23MOL    H56 8460   6.794   2.933   1.306 -0.5151  0.8931 -1.5420
   23MOL    H57 8461   7.117   2.813   1.316  1.0243  0.8585 -0.6323
   23MOL    H58 8462   7.037   2.662   1.338 -1.8454  2.1058 -0.7076
   23MOL    C59 8463   6.876   3.131   1.274 -0.5591  0.0245 -0.3725
   23MOL    C60 8464   6.775   3.195   1.179 -0.3314 -0.6177 -0.1845
   23MOL    C61 8465   6.765   3.336   1.233  0.1642  0.2237 -0.6476
   23MOL    C62 8466   6.762   3.324   1.387  0.1532  0.2116  0.2462
   23MOL    C63 8467   6.818   3.446   1.464  0.2985  0.2525 -0.0629
   23MOL    C64 8468   6.745   3.576   1.441 -0.8133 -0.2071  0.4281
   23MOL    C65 8469   6.850   3.196   1.403  0.4142 -0.7396 -0.9187
   23MOL    H66 8470   6.970   3.178   1.246  0.6944 -2.1589  0.1189
   23MOL    H67 8471   6.816   3.192   1.078 -0.8115  1.1234 -0.4488
   23MOL    H68 8472   6.679   3.145   1.179 -0.8432  0.3575 -0.6990
   23MOL    H69 8473   6.849   3.395   1.198  0.1142  0.4470 -0.3864
   23MOL    H70 8474   6.671   3.381   1.199  0.5559 -0.0499 -2.1463
   23MOL    H71 8475   6.664   3.295   1.425 -0.4817 -0.4533 -1.8406
   23MOL    H72 8476   6.919   3.464   1.427 -0.8628  1.8718 -2.5570
   23MOL    H73 8477   6.817   3.417   1.569  1.0219 -2.2181 -0.7045
   23MOL    H74 8478   6.798   3.660   1.485  0.0817 -0.7217  0.3372
   23MOL    H75 8479   6.747   3.601   1.335 -0.4228 -1.9630 -0.0042
   23MOL    H76 8480   6.948   3.218   1.446 -0.3968 -1.3358  1.3238
   23MOL    H77 8481   6.815   3.128   1.481  2.7887  0.1471  1.0131
   23MOL    C78 8482   6.604   3.581   1.498  0.2846  0.7587  0.2369
   23MOL    C79 8483   6.597   3.622   1.639  0.1333 -1.1544 -0.1780
   23MOL    C80 8484   6.500   3.743   1.640 -0.0075 -0.1524  0.4846
   23MOL    C81 8485   6.417   3.731   1.512  1.1246 -0.8069 -0.5041
   23MOL    C82 8486   6.345   3.865   1.467  0.7387 -0.1591  0.3967
   23MOL    C83 8487   6.249   3.834   1.355  0.1548 -0.3835 -0.6025
   23MOL    C84 8488   6.528   3.693   1.416  0.4041  0.1836  0.2756
   23MOL    H85 8489   6.558   3.485   1.477  5.3310 -1.3166 -2.1228
   23MOL    H86 8490   6.567   3.540   1.704  0.7597 -1.7159 -0.5999
   23MOL    H87 8491   6.692   3.648   1.685 -1.0095  1.1058  1.0156
   23MOL    H88 8492   6.442   3.732   1.731 -0.4652  2.8912  0.6083
   23MOL    H89 8493   6.551   3.838   1.621 -3.2529  1.2527 -1.5290
   23MOL    H90 8494   6.344   3.652   1.529 -0.1729  0.2624 -1.0428
   23MOL    H91 8495   6.421   3.938   1.438 -0.1303 -0.4705 -2.9191
   23MOL    H92 8496   6.290   3.905   1.553 -0.3598 -0.5157 -0.1296
   23MOL    H93 8497   6.182   3.752   1.380 -0.6987  0.5964  0.4421
   23MOL    H94 8498   6.299   3.792   1.268  0.1629 -1.4552 -0.0891
   23MOL    H95 8499   6.597   3.773   1.388  1.0058 -0.8470 -1.2720
   23MOL    H96 8500   6.511   3.650   1.318 -0.6860 -2.4812  1.5854
   23MOL    C97 8501   6.173   3.957   1.298  0.3696  0.0423  0.9454
   23MOL    C98 8502   6.093   4.029   1.405  0.5496 -0.1786  1.1554
   23MOL    C99 8503   5.980   4.096   1.332 -0.2014  0.0719 -0.0799
   23MOL   C100 8504   5.961   4.023   1.191  0.1484  0.4645 -0.0885
   23MOL   C101 8505   5.814   3.967   1.181  0.1369 -0.5137 -0.2546
   23MOL   C102 8506   5.781   3.894   1.053 -0.1565  0.5333 -0.1323
   23MOL   C103 8507   6.072   3.918   1.184  0.4964  0.5379 -0.1789
   23MOL   H104 8508   6.250   4.029   1.267 -0.3184 -0.7904 -2.9989
   23MOL   H105 8509   6.053   3.956   1.476 -0.2599 -2.8971 -1.9526
   23MOL   H106 8510   6.149   4.094   1.472 -3.4063  1.2304  3.3045
   23MOL   H107 8511   5.885   4.091   1.385  0.3120 -1.6103  0.7293
   23MOL   H108 8512   6.003   4.202   1.322  0.7718 -0.2957 -2.0914
   23MOL   H109 8513   5.985   4.087   1.106 -1.2427  1.1843  0.0373
   23MOL   H110 8514   5.790   3.898   1.262  0.9417 -0.3126  0.1621
   23MOL   H111 8515   5.741   4.046   1.193  1.8916  1.1056  0.0395
   23MOL   H112 8516   5.801   3.962   0.970 -3.2281 -0.4812 -1.7765
   23MOL   H113 8517   5.845   3.805   1.054 -0.2934  0.4415  0.2204
   23MOL   H114 8518   6.028   3.823   1.213 -1.5712  1.5283  0.0393
   23MOL   H115 8519   6.115   3.907   1.085 -1.3293 -0.2644 -0.9096
   23MOL   C116 8520   5.633   3.840   1.041 -0.1944 -0.1628 -0.6823
   23MOL   C117 8521   5.529   3.956   1.048 -0.0073 -0.2382  0.2383
   23MOL   C118 8522   5.426   3.934   0.942 -0.8974 -0.0348  0.6275
   23MOL   C119 8523   5.441   3.795   0.890 -1.0131  0.3042 -0.3934
   23MOL   C120 8524   5.383   3.782   0.759  0.2381 -0.5498  0.3366
   23MOL   C121 8525   5.230   3.773   0.765  0.4438  0.6948  0.4446
   23MOL   C122 8526   5.593   3.775   0.904  0.3181 -0.3037  0.3447
   23MOL   H123 8527   5.612   3.784   1.132  1.3974  2.0240  1.0736
   23MOL   H124 8528   5.576   4.053   1.030 -0.0278 -0.1967  0.4102
   23MOL   H125 8529   5.480   3.967   1.145 -1.1619  0.7778 -0.4483
   23MOL   H126 8530   5.438   4.010   0.865  0.3889 -1.9026 -1.0739
   23MOL   H127 8531   5.326   3.950   0.983 -0.5648 -1.5011  2.0737
   23MOL   H128 8532   5.392   3.723   0.956 -1.1197  0.1574 -0.6323
   23MOL   H129 8533   5.424   3.688   0.723 -2.6405 -1.8482  0.3331
   23MOL   H130 8534   5.413   3.864   0.694  1.0078 -0.6945  0.5012
   23MOL   H131 8535   5.183   3.865   0.800 -2.3442 -0.2638 -0.6395
   23MOL   H132 8536   5.210   3.696   0.839  1.8378  0.0470  0.1727
   23MOL   H133 8537   5.605   3.666   0.905 -3.1559 -0.7741 -1.3191
   23MOL   H134 8538   5.653   3.809   0.820  0.6588 -2.2949 -0.2581
   23MOL   C135 8539   5.161   3.739   0.632  0.5316 -0.2927  0.2425
   23MOL   C136 8540   5.012   3.703   0.645  0.0904  0.4599  0.2257
   23MOL   C137 8541   4.938   3.777   0.531 -0.6880 -1.6469  0.3934
   23MOL   C138 8542   5.022   3.907   0.515 -0.1599 -0.2269  0.0781
   23MOL   C139 8543   5.003   3.967   0.376  0.4861 -0.2577  0.1573
   23MOL   C140 8544   5.074   4.101   0.345 -0.5349  0.3946  0.1231
   23MOL   C141 8545   5.168   3.863   0.540  0.0755  0.0308  0.2408
   23MOL   H142 8546   5.219   3.660   0.584 -1.1674 -0.8268 -0.9957
   23MOL   H143 8547   4.984   3.597   0.640 -0.5155  0.6490 -0.4434
   23MOL   H144 8548   4.967   3.730   0.741  0.0726 -1.1113  0.6838
   23MOL   H145 8549   4.930   3.715   0.442  0.7638  1.0275 -1.6764
   23MOL   H146 8550   4.836   3.805   0.554 -0.9602 -0.9237 -1.6016
   23MOL   H147 8551   4.984   3.968   0.596  1.7315  0.4215  0.4987
   23MOL   H148 8552   4.900   3.999   0.356  1.2789  1.4240 -1.3381
   23MOL   H149 8553   5.022   3.895   0.296  0.7822 -0.3585  0.3203
   23MOL   H150 8554   5.050   4.180   0.417 -2.2128 -1.4775  1.7218
   23MOL   H151 8555   5.182   4.093   0.348 -0.4209  1.6959 -0.3684
   23MOL   H152 8556   5.229   3.944   0.580 -0.4601 -0.0299  1.2069
   23MOL   H153 8557   5.214   3.837   0.445 -1.2019 -0.3302 -0.3005
   23MOL   C154 8558   5.054   4.151   0.206  0.4444  0.1251 -0.4231
   23MOL   C155 8559   5.120   4.065   0.099 -1.0434 -0.3877  0.2236
   23MOL   C156 8560   5.169   4.163   7.633  0.3574 -0.1846  0.3909
   23MOL   C157 8561   5.127   4.300   0.026 -0.2273 -0.8401  0.1621
   23MOL   C158 8562   5.219   4.420   7.633 -0.0363 -0.7767  0.4650
   23MOL   C159 8563   5.231   4.425   7.481 -0.7713  0.1050 -1.2605
   23MOL   C160 8564   5.125   4.282   0.173 -0.1700 -0.3059 -0.5359
   23MOL   H161 8565   4.948   4.157   0.182 -0.2705  0.0275  2.4759
   23MOL   H162 8566   5.216   4.029   0.135 -0.1491 -1.9163 -3.4130
   23MOL   H163 8567   5.046   3.993   0.062 -0.5841 -0.8941  0.2873
   23MOL   H164 8568   5.278   4.150   7.636  0.4198 -0.5370 -2.1383
   23MOL   H165 8569   5.127   4.130   7.538 -1.0528  0.1172  0.9070
   23MOL   H166 8570   5.033   4.339   7.635  1.3088  0.8095 -2.0479
   23MOL   H167 8571   5.314   4.406   0.037 -0.5112 -0.4381  1.4406
   23MOL   H168 8572   5.167   4.509   0.022 -2.5853 -2.5428  1.3050
   23MOL   H169 8573   5.273   4.327   7.460  0.2704  0.0744  0.8238
   23MOL   H170 8574   5.135   4.439   7.430 -0.2710  0.5057 -2.1179
   23MOL   H171 8575   5.080   4.366   0.226 -0.7863 -0.4068 -0.8888
   23MOL   H172 8576   5.223   4.282   0.221 -0.0196  0.7423 -0.8311
   23MOL   C173 8577   5.312   4.541   7.431  0.3242  0.4776  0.4197
   23MOL   C174 8578   5.440   4.573   7.507 -0.6192  0.4762 -0.3661
   23MOL   C175 8579   5.528   4.647   7.415 -0.2090 -0.2546  0.0113
   23MOL   C176 8580   5.467   4.631   7.278 -0.2715 -0.3509 -0.3864
   23MOL   C177 8581   5.574   4.622   7.168 -0.2685 -0.2325  0.1088
   23MOL   C178 8582   5.526   4.632   7.021 -0.5059  0.6896 -0.6481
   23MOL   C179 8583   5.361   4.520   7.286 -0.0322 -0.2273  0.4798
   23MOL   H180 8584   5.255   4.633   7.437  0.1828  0.4155  0.0692
   23MOL   H181 8585   5.480   4.475   7.534  0.4718  1.3885  1.4339
   23MOL   H182 8586   5.422   4.637   7.594 -0.0619 -0.8729  0.7630
   23MOL   H183 8587   5.541   4.754   7.431  0.2240 -0.3792  0.5392
   23MOL   H184 8588   5.619   4.588   7.415  1.6630  2.5307 -0.6757
   23MOL   H185 8589   5.402   4.716   7.255 -0.7898 -0.8702 -0.8805
   23MOL   H186 8590   5.636   4.533   7.176 -2.1631 -1.4587  1.6204
   23MOL   H187 8591   5.645   4.704   7.179 -0.2063 -0.0965 -1.2046
   23MOL   H188 8592   5.472   4.726   7.009 -2.4702 -0.4448 -0.9503
   23MOL   H189 8593   5.454   4.553   6.997 -2.0050  0.4532  4.1683
   23MOL   H190 8594   5.408   4.424   7.263 -1.9386 -0.9749 -0.4030
   23MOL   H191 8595   5.281   4.533   7.214  0.7176 -0.9574 -0.5004
   23MOL   C192 8596   5.640   4.631   6.923  0.9059  0.0596  0.1209
   23MOL   C193 8597   5.597   4.674   6.785 -0.5478 -0.0129  0.2097
   23MOL   C194 8598   5.700   4.618   6.698  0.3639 -0.2233  0.7643
   23MOL   C195 8599   5.729   4.477   6.753 -0.4781  0.5018  0.2050
   23MOL   C196 8600   5.870   4.429   6.712  0.5878  0.0790  0.3954
   23MOL   C197 8601   5.873   4.409   6.559  0.1864 -0.0543  0.1219
   23MOL   C198 8602   5.720   4.499   6.904 -0.6585  0.3612  0.1782
   23MOL   H199 8603   5.708   4.707   6.961 -1.5673  2.0431  0.6846
   23MOL   H200 8604   5.505   4.624   6.753 -0.8477  0.9263 -0.4153
   23MOL   H201 8605   5.578   4.781   6.773 -0.4734  0.0886  0.9829
   23MOL   H202 8606   5.785   4.686   6.695  0.6860 -0.6118  0.9845
   23MOL   H203 8607   5.673   4.616   6.593 -0.5424  1.5948  0.9545
   23MOL   H204 8608   5.655   4.400   6.731 -0.7470  0.4906  1.1002
   23MOL   H205 8609   5.883   4.335   6.765 -2.0718 -0.4838  0.1256
   23MOL   H206 8610   5.944   4.500   6.749  0.9175  0.3176 -0.7306
   23MOL   H207 8611   5.874   4.507   6.510  0.8557 -1.1547 -2.1471
   23MOL   H208 8612   5.778   4.365   6.532  0.1107  1.2956 -1.9439
   23MOL   H209 8613   5.820   4.507   6.946 -0.4334  2.4378 -0.7271
   23MOL   H210 8614   5.671   4.414   6.952 -0.5771 -0.0259 -0.4177
   23MOL   C211 8615   5.999   4.334   6.503  0.4472 -0.4053  0.5537
   23MOL   C212 8616   6.131   4.405   6.514 -0.1197 -0.2601  0.0357
   23MOL   C213 8617   6.198   4.414   6.378 -0.1598 -0.8599 -0.5586
   23MOL   C214 8618   6.127   4.305   6.286  0.6895 -0.2729 -0.5175
   23MOL   C215 8619   6.138   4.319   6.129  0.4392  0.7404  0.1415
   23MOL   C216 8620   6.115   4.194   6.039  0.3262  0.6435  0.0957
   23MOL   C217 8621   5.982   4.300   6.348 -0.1482  0.5237 -0.3896
   23MOL   H218 8622   6.015   4.240   6.556 -0.7720 -0.3235  1.0920
   23MOL   H219 8623   6.129   4.507   6.552  0.7885  0.4960 -1.8297
   23MOL   H220 8624   6.192   4.356   6.590  1.5385  0.1760 -0.9760
   23MOL   H221 8625   6.189   4.509   6.326 -0.8541  0.1221  1.3173
   23MOL   H222 8626   6.299   4.381   6.399 -0.1173 -0.2838  0.1475
   23MOL   H223 8627   6.183   4.215   6.314  1.1733 -0.6293 -2.5794
   23MOL   H224 8628   6.240   4.351   6.108  1.0901 -0.3482  1.5613
   23MOL   H225 8629   6.074   4.398   6.091  0.8695  0.5431 -1.0341
   23MOL   H226 8630   6.029   4.141   6.079 -0.0683  1.8901  0.9456
   23MOL   H227 8631   6.091   4.221   5.936 -1.8804 -0.7853  0.2026
   23MOL   H228 8632   5.931   4.205   6.333  0.1796 -0.0761  1.9670
   23MOL   H229 8633   5.925   4.375   6.295 -0.8910  1.4099  1.5926
   23MOL   C230 8634   6.228   4.088   6.043  0.7716 -0.1052  0.4526
   23MOL   C231 8635   6.353   4.134   5.963 -0.3762 -0.3959 -0.3219
   23MOL   C232 8636   6.423   4.003   5.924  0.0040 -0.1530 -0.6386
   23MOL   C233 8637   6.313   3.903   5.887  0.1219  0.6742  0.2349
   23MOL   C234 8638   6.354   3.755   5.914 -0.4524 -0.8403  0.3717
   23MOL   C235 8639   6.470   3.698   5.823  0.2601  0.6847  0.1397
   23MOL   C236 8640   6.193   3.954   5.972 -0.3913  0.2705 -0.3277
   23MOL   H237 8641   6.256   4.061   6.145  0.2400 -0.5496  0.4843
   23MOL   H238 8642   6.326   4.184   5.870 -1.8990  0.6965  0.6823
   23MOL   H239 8643   6.417   4.193   6.028 -0.7323 -0.2222 -0.1343
   23MOL   H240 8644   6.470   3.975   6.019 -2.1986  1.9556  1.1313
   23MOL   H241 8645   6.491   3.999   5.838 -0.3377  0.8251 -0.9535
   23MOL   H242 8646   6.296   3.909   5.780 -2.1265  2.3471  0.6570
   23MOL   H243 8647   6.264   3.703   5.881 -2.0893  1.3829  1.1954
   23MOL   H244 8648   6.379   3.734   6.018  1.2408  2.6019  0.7315
   23MOL   H245 8649   6.430   3.691   5.722  0.8293 -3.8508  0.1373
   23MOL   H246 8650   6.565   3.753   5.816  0.2116  0.5995 -1.4349
   23MOL   H247 8651   6.165   3.879   6.046  0.1372  0.4035  0.0150
   23MOL   H248 8652   6.112   3.966   5.901 -1.0719 -2.5783 -0.1023
   23MOL   C249 8653   6.518   3.558   5.875  0.7469  0.6051 -0.0228
   23MOL   C250 8654   6.636   3.503   5.803  0.3025 -0.0068  0.2067
   23MOL   C251 8655   6.693   3.404   5.902 -0.7437  0.0155 -0.4819
   23MOL   C252 8656   6.691   3.479   6.032  0.5137 -0.1847  0.0203
   23MOL   C253 8657   6.698   3.381   6.155 -0.0159 -1.0546 -0.3640
   23MOL   C254 8658   6.701   3.453   6.289 -0.4720  0.7556 -0.0950
   23MOL   C255 8659   6.562   3.554   6.022 -0.3359  0.6200 -0.3046
   23MOL   H256 8660   6.433   3.489   5.867  0.9954  0.2285  0.5401
   23MOL   H257 8661   6.605   3.466   5.706  0.1831 -0.5017  0.4291
   23MOL   H258 8662   6.715   3.576   5.788  0.5936 -0.7524 -2.0881
   23MOL   H259 8663   6.795   3.367   5.884 -0.3019  1.0746 -0.1773
   23MOL   H260 8664   6.622   3.321   5.905 -1.9420  1.0469  0.1540
   23MOL   H261 8665   6.767   3.558   6.033 -0.0053  0.3278  2.1206
   23MOL   H262 8666   6.780   3.317   6.122  0.2944 -1.0563  0.4070
   23MOL   H263 8667   6.610   3.321   6.134 -1.8468  1.6329 -0.6667
   23MOL   H264 8668   6.639   3.541   6.299 -0.3226  0.7096  1.5231
   23MOL   H265 8669   6.800   3.491   6.315 -0.1557  0.4714 -0.9003
   23MOL   H266 8670   6.578   3.650   6.070 -0.4522 -0.1765  1.3595
   23MOL   H267 8671   6.478   3.507   6.074 -0.0705 -2.6428 -2.6742
   23MOL   C268 8672   6.668   3.345   6.395 -0.0002 -0.0312 -0.8120
   23MOL   C269 8673   6.532   3.278   6.391 -0.5163  0.3510  0.2944
   23MOL   C270 8674   6.519   3.210   6.531  0.0106 -0.3010  0.5196
   23MOL   C271 8675   6.616   3.279   6.621 -0.6355 -0.4998 -0.4570
   23MOL   C272 8676   6.553   3.338   6.748  0.0440 -0.3414  0.1127
   23MOL   C273 8677   6.457   3.253   6.837 -0.4551 -0.1108 -0.0008
   23MOL   C274 8678   6.706   3.379   6.540  0.4362 -0.0662  0.2636
   23MOL   H275 8679   6.739   3.266   6.370 -1.3308 -1.3712 -0.4007
   23MOL   H276 8680   6.460   3.355   6.364  0.3721  0.3800 -2.1107
   23MOL   H277 8681   6.513   3.209   6.308  0.1176  0.8400 -0.2612
   23MOL   H278 8682   6.416   3.244   6.545 -0.5281 -1.6062 -0.1501
   23MOL   H279 8683   6.511   3.102   6.534  1.8335 -0.4682 -0.2206
   23MOL   H280 8684   6.668   3.189   6.656 -0.8314  0.0506  1.3078
   23MOL   H281 8685   6.489   3.418   6.711  0.5204 -0.0617 -0.1059
   23MOL   H282 8686   6.632   3.382   6.808 -0.8295  0.1714  0.9046
   23MOL   H283 8687   6.428   3.305   6.928 -1.1818 -0.3409 -0.0986
   23MOL   H284 8688   6.361   3.238   6.787 -0.6237  2.5184 -0.5533
   23MOL   H285 8689   6.684   3.481   6.569  0.0109  0.1943 -0.9268
   23MOL   H286 8690   6.806   3.337   6.551  1.5051  1.9555 -1.5179
   23MOL   C287 8691   6.512   3.114   6.880  0.1496 -0.1753  0.3719
   23MOL   C288 8692   6.630   3.111   6.980  0.3599 -0.7419 -0.4852
   23MOL   C289 8693   6.619   2.970   7.023 -0.1168  0.4342 -0.1490
   23MOL   C290 8694   6.471   2.934   7.045  0.1346  0.5851  0.6073
   23MOL   C291 8695   6.417   2.935   7.188  0.2789 -0.2596 -0.2595
   23MOL   C292 8696   6.456   2.800   7.262  0.1634 -0.3687 -0.3635
   23MOL   C293 8697   6.398   3.029   6.939  0.0712  0.2488 -0.4228
   23MOL   H294 8698   6.548   3.058   6.794  1.0112  0.7377  0.1309
   23MOL   H295 8699   6.726   3.143   6.940  0.3278 -0.3459 -0.2454
   23MOL   H296 8700   6.605   3.176   7.063 -0.2431  1.4174 -2.2918
   23MOL   H297 8701   6.678   2.951   7.113  2.7458  1.2252 -1.7770
   23MOL   H298 8702   6.661   2.905   6.947  2.5167 -1.0820  2.4756
   23MOL   H299 8703   6.455   2.836   7.001 -1.1685  1.1845 -0.2992
   23MOL   H300 8704   6.309   2.950   7.190  0.3610  0.2195  1.6035
   23MOL   H301 8705   6.451   3.022   7.244  0.6511 -0.1382 -0.6751
   23MOL   H302 8706   6.564   2.804   7.277  0.1581 -1.6358  0.0376
   23MOL   H303 8707   6.444   2.712   7.200 -0.0734 -0.6729  0.1133
   23MOL   H304 8708   6.328   3.086   7.000  0.3503 -1.3979  1.5049
   23MOL   H305 8709   6.334   2.974   6.871 -0.9192  1.5198 -0.5404
   23MOL   C306 8710   6.387   2.779   7.401 -0.1090  0.3795  0.0006
   23MOL   C307 8711   6.241   2.807   7.416 -0.0621 -0.4892  0.2187
   23MOL   C308 8712   6.186   2.737   7.531  0.2386 -0.8784  0.4335
   23MOL   C309 8713   6.309   2.664   7.600  0.4199 -0.2770 -0.6665
   23MOL   C310 8714   6.262   2.529   0.011 -0.7541  0.6270  0.4277
   23MOL   C311 8715   6.366   2.455   0.090  0.1835  0.3934 -0.0921
   23MOL   C312 8716   6.408   2.651   7.481 -0.1259  0.4274  0.3928
   23MOL   H313 8717   6.434   2.861   7.456  1.6718 -0.8019  0.3085
   23MOL   H314 8718   6.214   2.912   7.418  0.6566 -0.3055  0.3669
   23MOL   H315 8719   6.192   2.764   7.328  3.0840  2.2126 -2.9774
   23MOL   H316 8720   6.140   2.803   7.605  3.2629  0.7359  0.9562
   23MOL   H317 8721   6.110   2.670   7.493  0.6648 -1.4170  0.5256
   23MOL   H318 8722   6.351   2.723   0.034  3.0328 -0.7931 -1.5855
   23MOL   H319 8723   6.180   2.536   0.082 -1.3326  1.3957 -0.3050
   23MOL   H320 8724   6.235   2.471   7.569 -0.3207  0.5062  0.3709
   23MOL   H321 8725   6.386   2.501   0.187 -2.2132 -2.1986  1.7059
   23MOL   H322 8726   6.460   2.458   0.034 -0.3757  0.3185 -1.0450
   23MOL   H323 8727   6.380   2.565   7.420  0.7469  0.5150 -0.1443
   23MOL   H324 8728   6.511   2.640   7.515  0.1657 -1.1464 -0.9292
   23MOL   C325 8729   6.330   2.310   0.122  0.9414  0.6117 -0.7071
   23MOL   C326 8730   6.308   2.220   7.647  0.1643 -0.4019 -0.1958
   23MOL   C327 8731   6.337   2.082   0.059 -0.3613 -0.6938  0.1332
   23MOL   C328 8732   6.450   2.099   0.157 -0.5667  0.6540 -0.4969
   23MOL   C329 8733   6.452   1.992   0.269 -0.7022 -0.7188  0.0252
   23MOL   C330 8734   6.492   1.852   0.226  0.0222  0.0107  0.1439
   23MOL   C331 8735   6.429   2.241   0.214 -0.1938 -0.7221  0.0885
   23MOL   H332 8736   6.240   2.324   0.182  1.5261 -0.5019  0.4656
   23MOL   H333 8737   6.372   2.234   7.559 -1.0296 -0.6011 -1.1125
   23MOL   H334 8738   6.203   2.216   7.619 -0.2342  0.8958  1.0682
   23MOL   H335 8739   6.251   2.041   0.112 -1.3581 -0.0413 -0.9509
   23MOL   H336 8740   6.378   2.010   7.635 -2.1392 -1.9524  0.3641
   23MOL   H337 8741   6.540   2.100   0.095 -0.1758 -0.5861  0.0424
   23MOL   H338 8742   6.540   2.013   0.329  1.2138 -0.7499 -2.6641
   23MOL   H339 8743   6.354   2.002   0.315  0.0177 -0.9581  1.6292
   23MOL   H340 8744   6.415   1.808   0.163 -0.7972  3.8712 -1.6704
   23MOL   H341 8745   6.584   1.857   0.168  0.5502  0.3165  0.9950
   23MOL   H342 8746   6.523   2.296   0.225  0.2174 -1.5847  1.0822
   23MOL   H343 8747   6.391   2.245   0.317  1.7884 -0.0872  0.8327
   23MOL   C344 8748   6.534   1.755   0.333  0.0006 -0.4176  0.4022
   23MOL   C345 8749   6.586   1.621   0.282 -0.1190 -0.5524  0.2153
   23MOL   C346 8750   6.585   1.536   0.404 -0.1455 -0.4056  0.0709
   23MOL   C347 8751   6.486   1.592   0.509  0.1446  0.5331  0.7427
   23MOL   C348 8752   6.561   1.605   0.645 -0.1073 -0.0157 -0.0939
   23MOL   C349 8753   6.475   1.638   0.766  0.1006 -0.2463 -0.0506
   23MOL   C350 8754   6.439   1.724   0.444 -0.7099 -0.4003  0.4075
   23MOL   H351 8755   6.622   1.803   0.376 -1.4167  2.7255 -0.0567
   23MOL   H352 8756   6.680   1.641   0.230  0.7702  4.3581  3.3600
   23MOL   H353 8757   6.512   1.576   0.216 -1.0996 -0.1620  1.0356
   23MOL   H354 8758   6.556   1.434   0.380  1.3757 -0.7657 -0.2616
   23MOL   H355 8759   6.683   1.520   0.449 -1.2232 -2.5624  1.7800
   23MOL   H356 8760   6.403   1.526   0.530  0.5676  0.5928  2.7945
   23MOL   H357 8761   6.619   1.515   0.670  1.1484  1.1746  1.3847
   23MOL   H358 8762   6.633   1.685   0.630 -2.5599  2.2697  0.1553
   23MOL   H359 8763   6.400   1.558   0.772 -0.7733  0.5581 -0.1002
   23MOL   H360 8764   6.417   1.730   0.762 -0.8746 -0.9414 -3.3638
   23MOL   H361 8765   6.339   1.708   0.405  0.4137 -2.7466 -1.6001
   23MOL   H362 8766   6.444   1.807   0.515  0.4920 -1.9928  2.2387
   23MOL   C363 8767   6.552   1.642   0.895 -0.2117  0.0740 -0.1489
   23MOL   C364 8768   6.483   1.582   1.021 -1.2893 -0.9589  0.4708
   23MOL   C365 8769   6.525   1.667   1.144 -0.7997 -0.6706  0.6584
   23MOL   C366 8770   6.630   1.762   1.093  0.2417  0.5863 -0.1545
   23MOL   C367 8771   6.660   1.877   1.181  0.0569 -0.2533  0.1179
   23MOL   C368 8772   6.809   1.922   1.172  0.0943  0.4740  0.6740
   23MOL   C369 8773   6.601   1.781   0.950 -0.0377 -0.4858  0.3095
   23MOL   H370 8774   6.640   1.582   0.868 -0.0605  0.2944 -0.1501
   23MOL   H371 8775   6.378   1.585   0.994 -1.0441 -0.8910 -0.5106
   23MOL   H372 8776   6.505   1.478   1.041  0.7181 -0.3739  1.4812
   23MOL   H373 8777   6.438   1.725   1.175 -0.9464  0.6131 -2.0609
   23MOL   H374 8778   6.554   1.601   1.226  1.2697 -2.2473 -1.2846
   23MOL   H375 8779   6.720   1.700   1.091 -0.9494 -1.1756 -0.1775
   23MOL   H376 8780   6.607   1.966   1.149 -0.0386 -0.6939 -0.9899
   23MOL   H377 8781   6.634   1.862   1.285 -0.6058  0.0343 -0.0100
   23MOL   H378 8782   6.868   1.851   1.228 -1.4132  0.9856  2.9930
   23MOL   H379 8783   6.815   2.020   1.220 -0.8789  0.4654  0.8416
   23MOL   H380 8784   6.523   1.858   0.947 -0.7991 -1.3098 -1.9200
   23MOL   H381 8785   6.689   1.812   0.894 -0.4638 -2.5190 -1.5304
   23MOL   H382 8786   6.845   1.932   1.070 -0.8891  1.8847  0.4451
   24MOL     C1 8787   1.470   3.990   0.667 -0.3881  0.3063  0.4011
   24MOL     C2 8788   1.346   3.933   0.740 -0.3979  0.1786  0.2638
   24MOL     C3 8789   1.228   4.015   0.698  0.0659 -0.3076 -0.5197
   24MOL     C4 8790   1.259   4.056   0.559  0.0445  0.0931 -0.0708
   24MOL     C5 8791   1.169   4.167   0.500 -0.7377  0.3684 -0.5154
   24MOL     C6 8792   1.160   4.163   0.348 -0.0988 -0.3251  0.2408
   24MOL     C7 8793   1.411   4.078   0.556 -0.1307 -0.1120  0.8330
   24MOL     H8 8794   1.530   4.050   0.735  0.2171 -3.1749  3.0201
   24MOL     H9 8795   1.360   3.934   0.848  0.4871 -1.2564  0.1781
   24MOL    H10 8796   1.338   3.830   0.707 -1.4854  0.6044 -0.8511
   24MOL    H11 8797   1.130   3.968   0.705 -0.2395  0.6338  1.6004
   24MOL    H12 8798   1.223   4.095   0.771 -3.3823 -2.0562  1.2851
   24MOL    H13 8799   1.232   3.980   0.485 -1.2206 -1.3687  1.8471
   24MOL    H14 8800   1.068   4.158   0.538 -1.3991  0.2545 -2.2559
   24MOL    H15 8801   1.208   4.265   0.529 -1.1102  0.2958  0.2415
   24MOL    H16 8802   1.261   4.148   0.312 -0.4448  1.5869 -1.6138
   24MOL    H17 8803   1.105   4.070   0.330  0.7993 -1.0780  1.3032
   24MOL    H18 8804   1.451   4.039   0.462  1.7160  1.6822  0.8384
   24MOL    H19 8805   1.436   4.179   0.587  0.1240 -0.3002  1.2484
   24MOL    H20 8806   1.539   3.922   0.618  0.8528  0.5212  1.8097
   24MOL    C21 8807   1.099   4.294   0.289 -0.6525  0.3030  0.2733
   24MOL    C22 8808   1.085   4.296   0.140 -0.9238  0.0941 -0.0583
   24MOL    C23 8809   0.933   4.331   0.116  0.1373  0.0029  0.6692
   24MOL    C24 8810   0.880   4.403   0.236 -0.0495 -0.0091  0.3172
   24MOL    C25 8811   0.728   4.405   0.250  0.3715 -0.3210 -0.0743
   24MOL    C26 8812   0.664   4.486   0.364 -0.3570  0.6795 -0.0510
   24MOL    C27 8813   0.951   4.327   0.343 -0.4696  0.2158  0.0694
   24MOL    H28 8814   1.163   4.378   0.316  0.5273 -0.7334  0.7621
   24MOL    H29 8815   1.149   4.375   0.101 -0.5485  0.5953  1.5437
   24MOL    H30 8816   1.118   4.204   0.093  2.0594  0.0469  1.9785
   24MOL    H31 8817   0.917   4.397   0.031  0.0042 -1.2594 -0.3136
   24MOL    H32 8818   0.893   4.232   0.093  0.6105 -0.4842  1.9175
   24MOL    H33 8819   0.922   4.503   0.227 -1.3789  0.6153  0.9771
   24MOL    H34 8820   0.691   4.302   0.245 -0.1923 -0.1968  1.4880
   24MOL    H35 8821   0.685   4.451   0.160 -0.2271  0.6178  0.6882
   24MOL    H36 8822   0.717   4.581   0.355  0.2850  0.2721 -0.6387
   24MOL    H37 8823   0.690   4.437   0.458 -2.9299 -1.4769 -0.4022
   24MOL    H38 8824   0.942   4.378   0.439 -1.4309  1.3393 -0.6126
   24MOL    H39 8825   0.898   4.231   0.352  0.4060 -0.1968  0.9214
   24MOL    C40 8826   0.512   4.497   0.345  0.4957  0.2869  0.3539
   24MOL    C41 8827   0.457   4.560   0.463  0.1102 -0.5848  0.0179
   24MOL    C42 8828   0.331   4.637   0.423 -0.3713  0.3072 -0.0946
   24MOL    C43 8829   0.358   4.684   0.279 -0.3392 -0.0546  0.3788
   24MOL    C44 8830   0.229   4.686   0.190  0.0052  0.6134 -0.1385
   24MOL    C45 8831   0.144   4.801   0.231 -0.3561 -0.6729  0.1333
   24MOL    C46 8832   0.465   4.587   0.230 -0.0118  0.1827  0.1154
   24MOL    H47 8833   0.469   4.397   0.334 -0.2661  0.5951  0.5575
   24MOL    H48 8834   0.522   4.639   0.502  0.7061 -1.4614  0.8021
   24MOL    H49 8835   0.426   4.489   0.539 -0.3164 -0.1460  0.2585
   24MOL    H50 8836   0.250   4.564   0.425 -0.4254  0.3826  2.8686
   24MOL    H51 8837   0.304   4.723   0.485  0.1154  1.2025 -1.1236
   24MOL    H52 8838   0.406   4.782   0.285  1.5106 -0.7528 -1.8723
   24MOL    H53 8839   0.267   4.709   0.091  2.5076 -1.2100  0.3381
   24MOL    H54 8840   0.176   4.591   0.181 -0.5736  1.1645 -2.7177
   24MOL    H55 8841   0.192   4.892   0.195 -0.4743 -0.7620 -0.2595
   24MOL    H56 8842   0.139   4.805   0.339  2.4688 -2.0682  0.3758
   24MOL    H57 8843   0.436   4.533   0.140  0.9474 -0.3835  0.1384
   24MOL    H58 8844   0.550   4.644   0.193 -0.3710  0.6758  0.0522
   24MOL    C59 8845   7.647   4.790   0.174  0.4258 -0.0984  0.5169
   24MOL    C60 8846   7.565   4.683   0.266  0.2272  0.5024 -0.3814
   24MOL    C61 8847   7.419   4.728   0.255  1.3111  0.1921 -0.0270
   24MOL    C62 8848   7.431   4.882   0.254  0.1792  0.5081 -0.4211
   24MOL    C63 8849   7.322   4.956   0.180  0.3736  0.2668 -0.1041
   24MOL    C64 8850   7.177   4.926   0.239 -0.5584 -0.4070 -0.1698
   24MOL    C65 8851   7.567   4.916   0.191 -0.4797  0.0448  0.1118
   24MOL    H66 8852   7.640   4.760   0.070 -1.2566  0.5744  0.4132
   24MOL    H67 8853   7.579   4.585   0.222 -2.7646  1.1486 -2.9573
   24MOL    H68 8854   7.602   4.681   0.368 -0.1701  1.6707 -0.2019
   24MOL    H69 8855   7.367   4.697   0.164  0.2304 -0.2553  0.7303
   24MOL    H70 8856   7.354   4.682   0.329 -0.1089  0.6923 -0.9459
   24MOL    H71 8857   7.433   4.915   0.358  0.4090  0.4828 -0.4170
   24MOL    H72 8858   7.326   4.936   0.073 -1.0084 -0.3536 -0.0552
   24MOL    H73 8859   7.343   5.063   0.178  1.3990  0.0521 -0.8009
   24MOL    H74 8860   7.135   4.851   0.171 -2.0948  0.2654  0.0324
   24MOL    H75 8861   7.197   4.881   0.336  2.7242  2.8153  0.7244
   24MOL    H76 8862   7.569   4.976   0.100 -0.1472 -1.2820 -0.7597
   24MOL    H77 8863   7.615   4.981   0.265 -1.3548  1.3023 -0.4084
   24MOL    C78 8864   7.089   5.051   0.261  0.1564  0.5058 -0.2657
   24MOL    C79 8865   7.020   5.105   0.127 -0.6150  0.7940 -0.5654
   24MOL    C80 8866   6.875   5.140   0.156 -0.2867  0.4332  0.1265
   24MOL    C81 8867   6.862   5.128   0.307 -0.3129  0.0320 -0.0256
   24MOL    C82 8868   6.723   5.118   0.357  0.2717 -1.1275 -0.4916
   24MOL    C83 8869   6.705   5.153   0.509  0.5343 -0.2122  0.1731
   24MOL    C84 8870   6.965   5.031   0.354 -0.7181  0.3298 -0.2133
   24MOL    H85 8871   7.153   5.131   0.299 -2.6531  2.2128  1.0395
   24MOL    H86 8872   7.080   5.188   0.090  0.2341  0.4158 -0.0656
   24MOL    H87 8873   7.024   5.032   0.045 -0.9185  1.2232 -0.9636
   24MOL    H88 8874   6.842   5.236   0.117 -0.0257  1.1058  1.5524
   24MOL    H89 8875   6.820   5.061   0.103  1.5789  2.0008 -4.3929
   24MOL    H90 8876   6.907   5.221   0.341  0.0563 -0.9847  2.3552
   24MOL    H91 8877   6.675   5.023   0.335 -1.0854 -0.1380 -2.0116
   24MOL    H92 8878   6.650   5.179   0.303  1.0520  0.2638 -0.0081
   24MOL    H93 8879   6.601   5.179   0.530  0.7616  1.5281 -0.7563
   24MOL    H94 8880   6.763   5.243   0.531  2.9946 -1.3995 -1.2869
   24MOL    H95 8881   6.925   4.931   0.339 -2.5961  1.1260 -0.5943
   24MOL    H96 8882   6.997   5.042   0.458 -1.2479  1.2776 -0.1484
   24MOL    C97 8883   6.752   5.047   0.605 -0.4678  0.3026 -0.5317
   24MOL    C98 8884   6.693   4.908   0.575 -0.2798 -0.3528  0.4043
   24MOL    C99 8885   6.671   4.839   0.710 -0.0471  0.3239  0.2655
   24MOL   C100 8886   6.697   4.941   0.820 -0.1272 -0.4134  0.5324
   24MOL   C101 8887   6.587   4.931   0.930  0.4922  0.0833  0.3851
   24MOL   C102 8888   6.608   4.801   1.011 -0.5843 -0.2441 -0.3315
   24MOL   C103 8889   6.696   5.072   0.747 -0.3151 -0.2407 -0.5578
   24MOL   H104 8890   6.861   5.044   0.605 -0.4595 -0.2596  1.8089
   24MOL   H105 8891   6.588   4.917   0.547 -0.3201 -1.7318  0.0883
   24MOL   H106 8892   6.752   4.853   0.502  0.6177  0.2357  0.6635
   24MOL   H107 8893   6.569   4.801   0.717 -0.7696  2.3806  1.4371
   24MOL   H108 8894   6.746   4.760   0.708  2.5041  2.7075 -3.7620
   24MOL   H109 8895   6.794   4.915   0.862  1.4611 -1.8445 -3.6637
   24MOL   H110 8896   6.571   5.019   0.993 -1.4713  0.8750 -1.1355
   24MOL   H111 8897   6.498   4.923   0.868  0.9281 -0.0918 -0.2223
   24MOL   H112 8898   6.636   4.723   0.941  0.5669 -0.7088  0.6241
   24MOL   H113 8899   6.698   4.813   1.072 -0.5042  0.8542 -0.6618
   24MOL   H114 8900   6.599   5.120   0.759 -1.1867 -2.4427  1.3756
   24MOL   H115 8901   6.772   5.135   0.795 -2.1344  0.7890  1.0272
   24MOL   C116 8902   6.472   4.767   1.082 -0.4491  0.3542 -0.2452
   24MOL   C117 8903   6.343   4.764   0.992 -0.3599  0.2189  0.0508
   24MOL   C118 8904   6.269   4.638   1.037 -0.5186 -0.0183  0.2258
   24MOL   C119 8905   6.332   4.584   1.165 -0.0614  0.6203 -0.9737
   24MOL   C120 8906   6.312   4.432   1.194 -0.3445 -0.5302 -0.1339
   24MOL   C121 8907   6.308   4.378   1.336 -0.2321  0.7084 -0.4118
   24MOL   C122 8908   6.477   4.627   1.150 -0.0779 -0.1000  0.0906
   24MOL   H123 8909   6.456   4.837   1.163 -2.2789 -0.8463  0.4665
   24MOL   H124 8910   6.367   4.772   0.886 -2.6858  3.7795 -0.2838
   24MOL   H125 8911   6.287   4.855   1.011  0.0768  0.1825  1.5779
   24MOL   H126 8912   6.287   4.562   0.960 -0.9376  1.6918 -1.5824
   24MOL   H127 8913   6.160   4.643   1.041 -0.5590 -1.3567  1.3004
   24MOL   H128 8914   6.289   4.653   1.238  0.4323  0.0959 -0.1778
   24MOL   H129 8915   6.375   4.378   1.124  0.6528  1.3226 -0.7034
   24MOL   H130 8916   6.210   4.416   1.160 -0.3868 -0.0117 -0.2605
   24MOL   H131 8917   6.264   4.278   1.332  1.2992  0.0672 -1.7981
   24MOL   H132 8918   6.253   4.449   1.397  1.0302  2.4870 -1.3325
   24MOL   H133 8919   6.523   4.636   1.248  1.2686 -0.8605 -0.4594
   24MOL   H134 8920   6.545   4.561   1.097  1.5495  1.3409  0.3543
   24MOL   C135 8921   6.446   4.358   1.408 -0.4994 -0.6318  0.5115
   24MOL   C136 8922   6.451   4.254   1.518  0.3764 -0.2324 -0.1382
   24MOL   C137 8923   6.599   4.235   1.541  0.4597  0.0586 -0.4991
   24MOL   C138 8924   6.673   4.258   1.403 -0.0916 -0.4035 -0.2021
   24MOL   C139 8925   6.808   4.343   1.412  0.0347 -0.4705 -0.3933
   24MOL   C140 8926   6.900   4.344   1.287  0.1996  0.7569  0.0936
   24MOL   C141 8927   6.566   4.316   1.319 -0.1216 -0.3019 -0.3106
   24MOL   H142 8928   6.461   4.458   1.448  0.0085 -1.2189  1.8192
   24MOL   H143 8929   6.390   4.290   1.601 -0.5689 -2.1599  0.0119
   24MOL   H144 8930   6.415   4.160   1.478  0.2189 -0.0103 -0.5225
   24MOL   H145 8931   6.644   4.308   1.608 -1.0351 -0.6656  1.3051
   24MOL   H146 8932   6.629   4.137   1.578  0.3787  0.3095  0.2407
   24MOL   H147 8933   6.714   4.165   1.365 -1.0628 -0.2929 -1.5960
   24MOL   H148 8934   6.868   4.295   1.489 -0.2510 -1.0317 -0.5160
   24MOL   H149 8935   6.785   4.445   1.444  0.2706 -0.4876 -0.1630
   24MOL   H150 8936   6.982   4.284   1.328 -0.5853 -0.0664  0.4904
   24MOL   H151 8937   6.870   4.288   1.198 -0.3058 -0.1762  0.8315
   24MOL   H152 8938   6.523   4.248   1.246 -0.4091 -1.1298  0.6072
   24MOL   H153 8939   6.606   4.396   1.257 -2.2068  0.4262 -0.7399
   24MOL   C154 8940   6.963   4.489   1.260 -0.0789  0.0540 -0.0777
   24MOL   C155 8941   6.862   4.598   1.211  0.4319  0.1723  0.2974
   24MOL   C156 8942   6.934   4.670   1.086 -0.1515  0.1885 -0.2618
   24MOL   C157 8943   7.086   4.625   1.091  0.3247 -0.4807 -0.2194
   24MOL   C158 8944   7.147   4.626   0.950  0.6781  0.1639  0.3410
   24MOL   C159 8945   7.160   4.770   0.889  0.0265  0.6332  0.0021
   24MOL   C160 8946   7.079   4.492   1.159 -0.1854 -0.6953 -0.1467
   24MOL   H161 8947   6.993   4.537   1.353  0.2917 -2.2711  1.0433
   24MOL   H162 8948   6.777   4.554   1.159  0.2632  0.2949  0.4713
   24MOL   H163 8949   6.826   4.666   1.288  1.5756  0.9480  0.1637
   24MOL   H164 8950   6.888   4.635   0.994 -0.7164  1.3826 -0.4471
   24MOL   H165 8951   6.926   4.778   1.095  0.3696  0.0134  2.9064
   24MOL   H166 8952   7.149   4.686   1.156 -0.7259 -2.0923  2.4102
   24MOL   H167 8953   7.084   4.567   0.883 -1.1338  0.3420  1.8615
   24MOL   H168 8954   7.241   4.574   0.932 -0.4302 -0.8590 -2.6895
   24MOL   H169 8955   7.061   4.816   0.882 -0.4246 -0.5473 -1.7855
   24MOL   H170 8956   7.212   4.827   0.966  1.0360  0.1128 -0.2789
   24MOL   H171 8957   7.178   4.462   1.195 -0.0734 -1.2364 -0.9066
   24MOL   H172 8958   7.049   4.414   1.089 -3.1348  1.4522 -1.3639
   24MOL   C173 8959   7.242   4.783   0.752  0.2200 -0.9084  0.2174
   24MOL   C174 8960   7.204   4.902   0.668  0.1315 -0.3370 -0.6416
   24MOL   C175 8961   7.339   4.972   0.624 -0.5866 -0.0114  0.0001
   24MOL   C176 8962   7.447   4.861   0.631 -0.0556  0.4017 -0.6380
   24MOL   C177 8963   7.594   4.913   0.644  0.7303 -0.7579 -0.8521
   24MOL   C178 8964   0.058   4.812   0.685 -0.6033 -0.2725  0.1609
   24MOL   C179 8965   7.391   4.796   0.760 -0.1862 -0.4788  0.6709
   24MOL   H180 8966   7.216   4.700   0.687 -4.4031 -0.9398  1.8871
   24MOL   H181 8967   7.141   4.976   0.717 -1.0893  0.6866 -3.6229
   24MOL   H182 8968   7.152   4.876   0.575  0.5769 -1.2182 -0.6467
   24MOL   H183 8969   7.329   5.023   0.527 -1.0739  0.6222  0.3777
   24MOL   H184 8970   7.363   5.048   0.699 -0.0341 -1.7428  1.5930
   24MOL   H185 8971   7.427   4.785   0.556 -0.2654  2.6763 -2.9365
   24MOL   H186 8972   7.585   5.005   0.702  0.3673 -0.7287 -0.9523
   24MOL   H187 8973   7.628   4.944   0.545 -1.4586  0.0395 -1.3910
   24MOL   H188 8974   0.149   4.847   0.635 -0.3907  1.9901  2.0056
   24MOL   H189 8975   0.031   4.715   0.646 -1.0076 -0.5404  1.0804
   24MOL   H190 8976   7.414   4.868   0.839  0.8330  0.5158 -0.5045
   24MOL   H191 8977   7.440   4.702   0.785 -1.4765 -1.3027  0.0684
   24MOL   C192 8978   0.094   4.811   0.837 -1.0299  0.2584  0.6312
   24MOL   C193 8979   0.179   4.934   0.883 -0.2746 -0.0386  0.7047
   24MOL   C194 8980   0.329   4.886   0.906 -0.3687 -0.1683 -0.2313
   24MOL   C195 8981   0.329   4.740   0.847  0.5176  0.7487 -0.0053
   24MOL   C196 8982   0.427   4.640   0.910  0.2521 -0.0099  0.1081
   24MOL   C197 8983   0.572   4.667   0.870  0.4674  0.0999  0.5799
   24MOL   C198 8984   0.181   4.698   0.886  0.1168 -0.4821  0.1560
   24MOL   H199 8985   0.001   4.807   0.893 -3.0360  2.8930 -2.3000
   24MOL   H200 8986   0.163   5.017   0.814 -2.4197 -0.5077  0.5884
   24MOL   H201 8987   0.143   4.962   0.982  1.1260 -0.6463  1.3991
   24MOL   H202 8988   0.355   4.882   1.012  0.0409  0.2766 -0.3100
   24MOL   H203 8989   0.406   4.947   0.857  1.4835 -1.1919  1.3266
   24MOL   H204 8990   0.331   4.746   0.738 -3.5820 -0.7369 -0.2530
   24MOL   H205 8991   0.393   4.541   0.880  2.3232 -0.6308 -0.3187
   24MOL   H206 8992   0.421   4.631   1.019  0.0160 -1.1713  0.0044
   24MOL   H207 8993   0.601   4.766   0.905  0.6788  0.3734 -0.3644
   24MOL   H208 8994   0.569   4.669   0.761  0.3652 -0.9531  0.5590
   24MOL   H209 8995   0.173   4.693   0.994 -1.4695 -0.6027  0.0386
   24MOL   H210 8996   0.146   4.608   0.836  2.6634 -0.9437 -0.9070
   24MOL   C211 8997   0.683   4.558   0.911  0.1972 -0.9272 -0.2782
   24MOL   C212 8998   0.829   4.593   0.877 -0.4781 -0.2708  0.4826
   24MOL   C213 8999   0.899   4.455   0.839 -0.4541  0.0840 -0.4855
   24MOL   C214 9000   0.788   4.350   0.839 -0.1524 -0.1671 -0.0989
   24MOL   C215 9001   0.803   4.248   0.722 -0.3192  0.3429 -0.1595
   24MOL   C216 9002   0.724   4.122   0.744  0.7349  0.2107 -0.2965
   24MOL   C217 9003   0.654   4.420   0.863  0.2805 -0.1380 -0.1910
   24MOL   H218 9004   0.671   4.555   1.019  0.6166 -0.3104 -0.2072
   24MOL   H219 9005   0.851   4.664   0.797 -0.3853  1.4916  2.0434
   24MOL   H220 9006   0.876   4.645   0.961 -0.6746  1.6367 -0.5375
   24MOL   H221 9007   0.920   4.461   0.732  1.7830 -0.7216 -0.1013
   24MOL   H222 9008   0.993   4.432   0.888 -0.2122 -0.0806 -1.0264
   24MOL   H223 9009   0.810   4.290   0.928  0.6141  0.8966  0.4496
   24MOL   H224 9010   0.909   4.225   0.712 -0.4864  0.3037 -2.0591
   24MOL   H225 9011   0.769   4.295   0.630  3.1539 -0.0237 -1.6982
   24MOL   H226 9012   0.744   4.061   0.831 -1.7634 -0.5678 -0.2202
   24MOL   H227 9013   0.623   4.159   0.761  0.8469  0.6960 -0.6618
   24MOL   H228 9014   0.600   4.358   0.935 -0.4517  0.5528 -0.1457
   24MOL   H229 9015   0.590   4.425   0.776  1.4181  2.2205 -0.9404
   24MOL   C230 9016   0.719   4.024   0.617 -0.1960  0.1025 -0.0325
   24MOL   C231 9017   0.606   3.915   0.630 -0.1293  0.1511  0.5918
   24MOL   C232 9018   0.664   3.787   0.575 -0.4984 -0.3064 -0.0121
   24MOL   C233 9019   0.814   3.794   0.611 -0.3056  0.2897  0.0729
   24MOL   C234 9020   0.903   3.696   0.532 -0.8045 -0.4276 -0.4987
   24MOL   C235 9021   1.037   3.669   0.599  0.6468 -0.2719  0.7153
   24MOL   C236 9022   0.848   3.944   0.604 -0.4613 -0.4744 -0.3007
   24MOL   H237 9023   0.694   4.085   0.531  1.4011  0.6926 -0.0919
   24MOL   H238 9024   0.563   3.902   0.730 -0.4764  0.4025  0.4762
   24MOL   H239 9025   0.521   3.937   0.566 -0.6688  2.3836  2.0166
   24MOL   H240 9026   0.646   3.791   0.468 -0.8509  2.2509  0.1209
   24MOL   H241 9027   0.619   3.698   0.620 -0.4138 -1.4028 -2.0532
   24MOL   H242 9028   0.814   3.769   0.717  0.5696  0.3544  0.0934
   24MOL   H243 9029   0.914   3.721   0.426 -0.6344  0.5863 -0.2505
   24MOL   H244 9030   0.847   3.603   0.538  1.0610 -1.7234 -2.5301
   24MOL   H245 9031   1.079   3.766   0.628 -0.4632 -0.2473  2.3312
   24MOL   H246 9032   1.031   3.637   0.703 -0.0357  0.2691  0.8500
   24MOL   H247 9033   0.888   3.970   0.506  0.3558 -2.9061 -0.6514
   24MOL   H248 9034   0.919   3.970   0.683 -0.0486  0.2128 -0.8813
   24MOL   C249 9035   1.138   3.581   0.523  0.2950  0.2598 -0.2603
   24MOL   C250 9036   1.196   3.645   0.400 -0.7400  0.4722 -0.2292
   24MOL   C251 9037   1.336   3.588   0.384  0.0815 -0.1478 -0.0395
   24MOL   C252 9038   1.386   3.563   0.526  0.3733 -0.1559  0.4438
   24MOL   C253 9039   1.502   3.462   0.548  0.7520  0.6802 -0.4194
   24MOL   C254 9040   1.624   3.491   0.464  0.1368  0.3957 -0.3772
   24MOL   C255 9041   1.261   3.541   0.611 -0.9202  0.2505  0.6373
   24MOL   H256 9042   1.089   3.489   0.491  3.3886 -1.0279 -1.4346
   24MOL   H257 9043   1.130   3.621   0.317 -0.2943  1.0489 -0.7577
   24MOL   H258 9044   1.198   3.754   0.397 -0.3924  0.4337 -1.7069
   24MOL   H259 9045   1.397   3.663   0.332 -1.6740  0.8840 -0.6428
   24MOL   H260 9046   1.341   3.500   0.320 -1.0833 -0.4803  0.3238
   24MOL   H261 9047   1.425   3.660   0.557  2.2566 -1.1305  1.2573
   24MOL   H262 9048   1.461   3.363   0.525  0.9287  0.7047 -0.8435
   24MOL   H263 9049   1.517   3.470   0.655 -2.4130 -0.1570  0.1503
   24MOL   H264 9050   1.668   3.578   0.513 -1.6612  0.7985  0.5835
   24MOL   H265 9051   1.587   3.523   0.366  1.1999 -0.0154 -0.9168
   24MOL   H266 9052   1.273   3.584   0.711  0.0933 -0.4560  0.8206
   24MOL   H267 9053   1.265   3.435   0.635  1.8663  0.3936  0.9877
   24MOL   C268 9054   1.724   3.376   0.456  0.2682  0.0791 -0.0938
   24MOL   C269 9055   1.794   3.333   0.588  0.1513  0.0851 -0.5803
   24MOL   C270 9056   1.942   3.325   0.555 -0.5535  0.3400 -0.4038
   24MOL   C271 9057   1.952   3.326   0.407  0.1624 -0.0540  1.1014
   24MOL   C272 9058   2.085   3.371   0.357  0.2941 -0.2107  0.7976
   24MOL   C273 9059   2.109   3.328   0.212 -0.1437 -0.6605 -0.1005
   24MOL   C274 9060   1.836   3.413   0.361  0.7672 -0.3346 -0.1396
   24MOL   H275 9061   1.678   3.285   0.416 -2.3472  1.2912  0.0455
   24MOL   H276 9062   1.792   3.412   0.663  0.6553  0.7132 -1.2233
   24MOL   H277 9063   1.748   3.250   0.641  0.8226  0.8743  1.2813
   24MOL   H278 9064   1.986   3.409   0.609 -1.8731  0.2674  0.8361
   24MOL   H279 9065   1.994   3.235   0.587  0.1109  1.1388  0.8164
   24MOL   H280 9066   1.931   3.225   0.371 -0.7944  0.3599  0.4617
   24MOL   H281 9067   2.170   3.341   0.419 -0.4172  1.4604  2.6652
   24MOL   H282 9068   2.107   3.477   0.345  1.5986 -0.4965  0.5314
   24MOL   H283 9069   2.029   3.357   0.144  1.1106  0.2247 -1.2473
   24MOL   H284 9070   2.194   3.386   0.175 -0.6348  0.0937 -0.0593
   24MOL   H285 9071   1.864   3.513   0.394  1.0349 -1.0791  1.9120
   24MOL   H286 9072   1.804   3.408   0.256 -3.3502  1.6783  0.9036
   24MOL   C287 9073   2.152   3.178   0.192 -0.6027  0.3373 -0.2973
   24MOL   C288 9074   2.207   3.141   0.058  0.3651 -0.3143 -0.5391
   24MOL   C289 9075   2.299   3.014   0.073  0.2263  0.2443  0.0464
   24MOL   C290 9076   2.332   3.008   0.221  0.2675  0.2512  0.9988
   24MOL   C291 9077   2.475   2.987   0.261 -0.7547 -0.5881 -1.1072
   24MOL   C292 9078   2.500   2.962   0.414  0.2042  0.1103 -0.6477
   24MOL   C293 9079   2.277   3.145   0.277 -0.0602  0.2643  0.1074
   24MOL   H294 9080   2.075   3.102   0.205 -0.6846  0.4562 -0.0932
   24MOL   H295 9081   2.125   3.121   7.637  0.0553  0.0252 -0.2718
   24MOL   H296 9082   2.267   3.222   0.016  0.6793  0.1001  0.6811
   24MOL   H297 9083   2.380   3.054   0.012 -0.9895  0.7450 -1.2676
   24MOL   H298 9084   2.244   2.928   0.035  1.5364 -0.0724 -1.1670
   24MOL   H299 9085   2.277   2.921   0.257 -0.2434  0.0095 -0.3151
   24MOL   H300 9086   2.527   3.073   0.220  0.2313 -1.0025 -0.7362
   24MOL   H301 9087   2.505   2.895   0.210  1.1084 -0.8376  0.3969
   24MOL   H302 9088   2.443   2.877   0.452 -0.4319 -0.5507 -2.9855
   24MOL   H303 9089   2.467   3.048   0.472 -2.2199 -0.2093 -1.4942
   24MOL   H304 9090   2.362   3.212   0.270  1.2660 -1.2004  1.6981
   24MOL   H305 9091   2.242   3.137   0.380  1.0283  1.2813  0.5698
   24MOL   C306 9092   2.649   2.962   0.452  0.1766  0.2929  0.3128
   24MOL   C307 9093   2.744   2.871   0.379  0.2779  0.2866 -0.0724
   24MOL   C308 9094   2.885   2.922   0.412  0.5274  0.4277 -0.1906
   24MOL   C309 9095   2.871   3.063   0.467  0.2893  0.2725  0.5000
   24MOL   C310 9096   2.962   3.157   0.395 -0.5500 -0.4591  0.3795
   24MOL   C311 9097   3.114   3.140   0.434 -0.3594 -0.4140 -0.0269
   24MOL   C312 9098   2.722   3.093   0.427 -0.3515 -0.8523 -0.9671
   24MOL   H313 9099   2.662   2.948   0.560 -0.0820 -0.2192  0.2800
   24MOL   H314 9100   2.732   2.773   0.423  0.9216  0.8163  1.3011
   24MOL   H315 9101   2.723   2.864   0.272 -1.1589  1.0148  0.1471
   24MOL   H316 9102   2.929   2.868   0.495 -0.0181 -0.6552 -0.5963
   24MOL   H317 9103   2.950   2.911   0.325  2.7192 -0.6909  1.5226
   24MOL   H318 9104   2.881   3.055   0.575 -1.7915  0.8500  0.7600
   24MOL   H319 9105   2.954   3.152   0.286 -0.2913 -1.1173  0.3891
   24MOL   H320 9106   2.944   3.264   0.407  0.4053 -0.2180 -0.2746
   24MOL   H321 9107   3.150   3.041   0.463 -0.9252 -0.3150  1.0020
   24MOL   H322 9108   3.132   3.210   0.515  2.2374 -0.0693 -0.8455
   24MOL   H323 9109   2.717   3.120   0.322 -0.7025 -1.7035 -1.1673
   24MOL   H324 9110   2.686   3.179   0.484  2.3974 -0.0815 -0.2962
   24MOL   C325 9111   3.210   3.166   0.316 -0.4202  0.1802 -0.0358
   24MOL   C326 9112   3.208   3.312   0.277 -0.1261  0.8944 -0.4040
   24MOL   C327 9113   3.352   3.355   0.277 -0.3564 -0.2880 -1.0538
   24MOL   C328 9114   3.423   3.272   0.390 -0.2897 -0.2504  0.4517
   24MOL   C329 9115   3.576   3.263   0.380 -0.5603  0.3777  0.8980
   24MOL   C330 9116   3.654   3.201   0.496 -0.5402 -0.0201 -0.0026
   24MOL   C331 9117   3.347   3.140   0.379 -0.2308 -0.3543  0.5037
   24MOL   H332 9118   3.196   3.098   0.233  1.8183  0.7918 -0.9350
   24MOL   H333 9119   3.162   3.363   0.362 -0.4904 -2.6990  1.6420
   24MOL   H334 9120   3.155   3.337   0.185  1.1044 -2.4172 -2.1146
   24MOL   H335 9121   3.382   3.315   0.179 -0.1257  1.2020 -1.5991
   24MOL   H336 9122   3.365   3.462   0.288 -2.4966 -0.0934 -0.3004
   24MOL   H337 9123   3.404   3.327   0.481 -0.4686 -0.1324  0.3432
   24MOL   H338 9124   3.596   3.209   0.288 -1.9053  0.4614  0.5456
   24MOL   H339 9125   3.625   3.360   0.368  2.1581 -1.0852 -0.2162
   24MOL   H340 9126   3.634   3.262   0.584  2.3175  3.3360 -1.5559
   24MOL   H341 9127   3.624   3.100   0.522 -0.5449 -0.5784 -2.0596
   24MOL   H342 9128   3.359   3.096   0.478 -1.4780  1.4930  1.4981
   24MOL   H343 9129   3.404   3.078   0.309  1.1244  1.7327 -0.3121
   24MOL   C344 9130   3.803   3.190   0.463 -0.8489  0.4125 -1.3804
   24MOL   C345 9131   3.839   3.139   0.319  0.2005  0.3107  0.2855
   24MOL   C346 9132   3.986   3.095   0.328 -0.9800  0.0841  1.3638
   24MOL   C347 9133   4.001   3.043   0.472  0.4509 -0.6216 -0.0896
   24MOL   C348 9134   4.145   3.069   0.532 -0.5371  0.3526  0.0937
   24MOL   C349 9135   4.174   2.979   0.645 -0.8040  0.1381 -0.1000
   24MOL   C350 9136   3.892   3.118   0.561 -0.2927 -0.1463 -0.3321
   24MOL   H351 9137   3.831   3.294   0.478 -1.7979  0.3650  0.9379
   24MOL   H352 9138   3.817   3.221   0.251 -0.6973  0.9222  1.3028
   24MOL   H353 9139   3.780   3.049   0.302 -2.5870  1.9970  0.8656
   24MOL   H354 9140   4.014   3.018   0.256 -1.2523  0.7379  0.5469
   24MOL   H355 9141   4.041   3.188   0.309  0.0486 -1.0687 -1.6293
   24MOL   H356 9142   3.977   2.936   0.476  1.3792 -0.7840  1.3842
   24MOL   H357 9143   4.229   3.054   0.465  1.0301 -0.1591  2.1269
   24MOL   H358 9144   4.151   3.176   0.553  3.0808  0.4440 -1.2265
   24MOL   H359 9145   4.187   2.875   0.616  0.7327  0.6208 -1.1880
   24MOL   H360 9146   4.089   2.972   0.714 -0.8913 -0.4210 -0.2601
   24MOL   H361 9147   3.836   3.044   0.619  1.0084 -1.1819 -0.3617
   24MOL   H362 9148   3.934   3.186   0.634 -1.6434 -2.1614  2.4552
   24MOL   C363 9149   4.297   3.023   0.733 -0.3200  0.2062  0.1651
   24MOL   C364 9150   4.437   3.017   0.660  0.5256  0.5298  0.5557
   24MOL   C365 9151   4.530   3.023   0.782 -0.2079 -0.3789  0.7262
   24MOL   C366 9152   4.460   2.953   0.907 -0.5694  0.2560  0.0505
   24MOL   C367 9153   4.533   2.825   0.955  0.1963  0.3770  0.3486
   24MOL   C368 9154   4.671   2.857   1.024  0.2120 -0.5367 -0.5327
   24MOL   C369 9155   4.317   2.926   0.846 -0.2488  0.1749  0.5627
   24MOL   H370 9156   4.293   3.124   0.772 -0.1247 -0.2643  1.4133
   24MOL   H371 9157   4.455   2.924   0.606 -0.4120  1.2909 -1.0991
   24MOL   H372 9158   4.464   3.098   0.592  0.4580  1.0408  1.1301
   24MOL   H373 9159   4.628   2.986   0.751 -1.4828 -2.0784 -1.3606
   24MOL   H374 9160   4.539   3.126   0.816  1.1732  0.1424 -1.1402
   24MOL   H375 9161   4.454   3.026   0.988 -0.7197  0.9703 -0.5961
   24MOL   H376 9162   4.474   2.757   1.015 -0.7611  1.1101  0.2466
   24MOL   H377 9163   4.553   2.763   0.867  0.6776  0.1247  0.6331
   24MOL   H378 9164   4.707   2.954   0.991  0.9241 -0.6726 -0.1641
   24MOL   H379 9165   4.747   2.779   1.014 -1.0904 -1.9875  0.5096
   24MOL   H380 9166   4.299   2.821   0.823  1.0723  0.2910 -1.1194
   24MOL   H381 9167   4.245   2.947   0.924  0.8242  1.0777  1.3275
   24MOL   H382 9168   4.657   2.849   1.132  0.4248  0.0216 -0.4674
   25MOL     C1 9169   5.885   4.322   4.251  0.1846  0.5957  0.0273
   25MOL     C2 9170   5.767   4.261   4.171  0.0453 -0.5773 -0.3524
   25MOL     C3 9171   5.823   4.143   4.090  0.2412  0.1810  0.8776
   25MOL     C4 9172   5.972   4.136   4.127 -0.3163 -0.4559 -0.4061
   25MOL     C5 9173   6.060   4.100   4.006 -0.2247 -0.1092 -0.2325
   25MOL     C6 9174   6.039   3.961   3.946  0.5272 -0.2497  0.1689
   25MOL     C7 9175   6.016   4.278   4.180  0.2514 -0.3242  0.3782
   25MOL     H8 9176   5.876   4.430   4.262  0.6202  0.8801 -2.2439
   25MOL     H9 9177   5.709   4.334   4.115 -0.7742 -0.3478  0.7783
   25MOL    H10 9178   5.693   4.224   4.241 -1.5541  2.1515 -0.5320
   25MOL    H11 9179   5.776   4.046   4.108  2.5975 -1.3177 -0.6783
   25MOL    H12 9180   5.800   4.156   3.984  1.7887  2.2011  0.7651
   25MOL    H13 9181   5.983   4.068   4.212 -0.7757 -0.6642 -0.5106
   25MOL    H14 9182   6.055   4.171   3.924  0.8395 -1.0105 -1.1004
   25MOL    H15 9183   6.164   4.102   4.039 -0.0509  0.2022 -0.8020
   25MOL    H16 9184   5.943   3.965   3.894  0.0022  1.2467  1.2173
   25MOL    H17 9185   6.104   3.958   3.858  0.6315 -1.4152  0.2789
   25MOL    H18 9186   6.101   4.270   4.248  0.4147 -0.4136  0.1630
   25MOL    H19 9187   6.038   4.347   4.098  0.4786 -0.0098  0.6994
   25MOL    H20 9188   5.884   4.282   4.353 -1.2072  0.0365 -0.1989
   25MOL    C21 9189   6.042   3.843   4.045  0.3290  0.7480 -0.4520
   25MOL    C22 9190   6.021   3.708   3.994 -0.6439  0.0237 -0.5259
   25MOL    C23 9191   6.060   3.613   4.104  0.3618 -0.2988  0.0177
   25MOL    C24 9192   6.114   3.706   4.214 -0.4894  0.2128  0.4963
   25MOL    C25 9193   6.224   3.638   4.298 -0.7793 -0.1806 -0.4580
   25MOL    C26 9194   6.257   3.720   4.425  0.4639  0.2230  0.6050
   25MOL    C27 9195   6.157   3.832   4.145 -0.0647  1.1370  0.5820
   25MOL    H28 9196   5.956   3.863   4.108  0.1863  2.4315 -1.1766
   25MOL    H29 9197   5.918   3.699   3.959 -0.0886 -0.7161 -2.0000
   25MOL    H30 9198   6.090   3.683   3.913 -4.1063 -0.2392 -3.5547
   25MOL    H31 9199   5.977   3.553   4.142 -1.4697  0.7022 -2.2946
   25MOL    H32 9200   6.136   3.543   4.069  0.8545  0.0457  0.3895
   25MOL    H33 9201   6.032   3.737   4.280  1.3704  1.6764  2.1818
   25MOL    H34 9202   6.311   3.621   4.234 -0.4325 -0.4892  0.0907
   25MOL    H35 9203   6.195   3.535   4.316 -1.9129  0.1082 -0.6268
   25MOL    H36 9204   6.161   3.729   4.475 -0.4313 -2.1187 -0.5972
   25MOL    H37 9205   6.294   3.821   4.407  0.5898 -0.4877 -3.7988
   25MOL    H38 9206   6.156   3.908   4.224  0.9730  2.3905 -0.5758
   25MOL    H39 9207   6.251   3.839   4.091  1.1434 -1.4139  2.2730
   25MOL    C40 9208   6.357   3.641   4.518  0.4621  0.5788 -0.0460
   25MOL    C41 9209   6.498   3.641   4.455  0.2469 -0.3927 -0.4023
   25MOL    C42 9210   6.592   3.583   4.560 -0.0040 -0.1839 -0.0520
   25MOL    C43 9211   6.528   3.628   4.696  0.1922  0.3513  0.2782
   25MOL    C44 9212   6.537   3.532   4.814 -0.1614 -0.1821  0.0793
   25MOL    C45 9213   6.455   3.406   4.794 -0.4454  0.0472 -0.4600
   25MOL    C46 9214   6.390   3.683   4.670  0.0013  0.1818  0.2458
   25MOL    H47 9215   6.336   3.534   4.520  1.7312  0.3305  0.5576
   25MOL    H48 9216   6.549   3.735   4.434  1.3808 -1.2800 -1.7308
   25MOL    H49 9217   6.507   3.583   4.364  2.9584  0.6053 -0.8176
   25MOL    H50 9218   6.588   3.475   4.555  2.0348 -0.3570  1.2927
   25MOL    H51 9219   6.698   3.611   4.562  0.4685 -1.9524 -0.1394
   25MOL    H52 9220   6.595   3.708   4.726  0.2804  0.8830 -1.2637
   25MOL    H53 9221   6.644   3.511   4.817  0.2001  1.1610 -2.6447
   25MOL    H54 9222   6.496   3.577   4.905 -2.1022  0.3531 -1.0240
   25MOL    H55 9223   6.479   3.358   4.699  0.6564  0.5325 -0.4387
   25MOL    H56 9224   6.347   3.419   4.783 -0.1130  3.9098  0.1138
   25MOL    H57 9225   6.312   3.642   4.734  1.2322 -2.2105  0.2276
   25MOL    H58 9226   6.391   3.790   4.689  0.0147  0.2924 -0.3453
   25MOL    C59 9227   6.474   3.307   4.910 -0.7318  0.2417  0.4156
   25MOL    C60 9228   6.409   3.342   5.040 -0.5017 -0.5178  0.1494
   25MOL    C61 9229   6.384   3.202   5.109  0.1995 -0.3070 -0.1330
   25MOL    C62 9230   6.338   3.112   5.000  0.3950  0.1929  0.0267
   25MOL    C63 9231   6.366   2.965   5.045 -0.3749  0.5290 -0.1201
   25MOL    C64 9232   6.281   2.856   4.973 -0.3444 -0.1545 -0.2257
   25MOL    C65 9233   6.421   3.163   4.881 -0.2433  0.5719 -0.9994
   25MOL    H66 9234   6.578   3.291   4.939 -1.0678 -1.1262  0.9063
   25MOL    H67 9235   6.484   3.399   5.095 -0.8850 -1.5743  1.8041
   25MOL    H68 9236   6.323   3.410   5.033  0.1278  0.1657 -1.1113
   25MOL    H69 9237   6.464   3.157   5.168 -0.7489 -0.5630  0.9672
   25MOL    H70 9238   6.316   3.214   5.193  1.0623 -1.3935  0.7368
   25MOL    H71 9239   6.234   3.135   4.976  0.3464 -0.5041 -0.4725
   25MOL    H72 9240   6.350   2.962   5.152 -0.7757 -0.4951 -0.2077
   25MOL    H73 9241   6.470   2.938   5.026 -0.5475  0.5857 -1.2030
   25MOL    H74 9242   6.282   2.877   4.866 -4.0023 -0.2976 -0.3559
   25MOL    H75 9243   6.325   2.757   4.980 -1.7398 -0.8994 -1.7027
   25MOL    H76 9244   6.505   3.096   4.863 -0.3765 -0.1286  0.8613
   25MOL    H77 9245   6.355   3.167   4.795 -2.1852 -1.2108  0.3495
   25MOL    C78 9246   6.137   2.840   5.014 -1.1321  0.1869 -0.3611
   25MOL    C79 9247   6.041   2.789   4.904 -0.1249 -0.1621 -0.4118
   25MOL    C80 9248   5.924   2.739   4.986 -0.3484  0.3430 -0.2176
   25MOL    C81 9249   5.981   2.701   5.127  0.2906 -0.1374 -0.6432
   25MOL    C82 9250   5.936   2.555   5.170  0.3257  0.2918 -0.1389
   25MOL    C83 9251   5.800   2.558   5.222  0.2368 -0.3734 -0.0238
   25MOL    C84 9252   6.130   2.732   5.122  0.0494  0.5534 -0.2279
   25MOL    H85 9253   6.095   2.932   5.055  0.4629 -0.1060  2.0375
   25MOL    H86 9254   6.011   2.868   4.836 -3.1818 -0.3439  0.6217
   25MOL    H87 9255   6.084   2.708   4.846  3.4121  1.1204  0.3124
   25MOL    H88 9256   5.854   2.821   5.004 -0.3783 -0.0798  1.6044
   25MOL    H89 9257   5.870   2.664   4.929 -1.8194  0.2398  1.3016
   25MOL    H90 9258   5.940   2.768   5.203  0.9868  0.2951 -0.6524
   25MOL    H91 9259   6.004   2.521   5.249 -0.4942 -1.1574 -0.0409
   25MOL    H92 9260   5.939   2.480   5.091 -0.6860 -0.2735  0.3574
   25MOL    H93 9261   5.736   2.603   5.147  1.1916 -0.1619 -0.7224
   25MOL    H94 9262   5.788   2.616   5.314 -1.8666 -1.9401  0.7052
   25MOL    H95 9263   6.192   2.646   5.099  1.4027  1.3360  0.4555
   25MOL    H96 9264   6.169   2.765   5.219 -0.0629  0.6375 -0.2113
   25MOL    C97 9265   5.744   2.416   5.259 -0.0207  0.5919  0.0118
   25MOL    C98 9266   5.596   2.431   5.285 -0.1490  0.1610  0.5153
   25MOL    C99 9267   5.578   2.332   5.397  0.0374 -0.1537 -0.8483
   25MOL   C100 9268   5.703   2.254   5.413 -0.1642  0.2617 -0.0355
   25MOL   C101 9269   5.733   2.189   5.545 -0.3540  0.3838 -0.6035
   25MOL   C102 9270   5.854   2.100   5.530 -0.3565 -0.6111  0.2427
   25MOL   C103 9271   5.809   2.352   5.375  0.1862  0.2994 -0.3233
   25MOL   H104 9272   5.752   2.338   5.183  0.6273  1.6910 -1.0747
   25MOL   H105 9273   5.561   2.531   5.310 -0.3418  0.1573  0.2691
   25MOL   H106 9274   5.538   2.393   5.200  1.4278  0.8070 -0.8760
   25MOL   H107 9275   5.531   2.378   5.484 -0.7772 -2.8457  0.2010
   25MOL   H108 9276   5.485   2.277   5.382  0.6410 -0.9454 -1.7349
   25MOL   H109 9277   5.702   2.177   5.336  1.5426  2.0059 -1.8526
   25MOL   H110 9278   5.746   2.257   5.629  3.2511 -0.4222 -0.4299
   25MOL   H111 9279   5.648   2.127   5.571 -0.9310  1.4236  0.0342
   25MOL   H112 9280   5.829   2.042   5.442 -2.8707  1.1759 -0.2811
   25MOL   H113 9281   5.947   2.149   5.503  0.6940 -2.5826  0.1975
   25MOL   H114 9282   5.825   2.414   5.463  0.0506 -0.1165  0.0007
   25MOL   H115 9283   5.907   2.306   5.360 -0.3780 -2.4380  3.6081
   25MOL   C116 9284   5.888   2.018   5.654 -0.1759  0.6904 -0.1971
   25MOL   C117 9285   6.009   1.919   5.630  0.0399  0.3004  0.4170
   25MOL   C118 9286   6.082   1.913   5.772  0.4261  0.2517 -0.3069
   25MOL   C119 9287   6.004   2.006   5.866 -0.2895  0.6080  0.0899
   25MOL   C120 9288   6.096   2.075   5.972 -0.0498 -0.0621  0.0875
   25MOL   C121 9289   6.146   1.975   6.077  0.7030  0.0419 -0.2907
   25MOL   C122 9290   5.932   2.103   5.774 -1.2106  0.5539  0.0413
   25MOL   H123 9291   5.806   1.956   5.690  0.3821  0.0566 -0.0006
   25MOL   H124 9292   6.073   1.970   5.559  0.2948  1.8829  1.7520
   25MOL   H125 9293   5.989   1.818   5.594  0.2521 -0.2125  1.7036
   25MOL   H126 9294   6.181   1.951   5.749  0.2696 -0.7516 -2.9004
   25MOL   H127 9295   6.092   1.814   5.816  3.2034 -0.3199 -2.0722
   25MOL   H128 9296   5.934   1.942   5.921 -0.1859  1.2162  0.9293
   25MOL   H129 9297   6.036   2.159   6.007 -0.0206 -0.0541  0.1178
   25MOL   H130 9298   6.180   2.120   5.920 -1.2514  1.4326 -0.5730
   25MOL   H131 9299   6.187   1.885   6.030 -0.5590 -0.9410  0.4954
   25MOL   H132 9300   6.063   1.938   6.136 -0.2738  2.6576  0.0226
   25MOL   H133 9301   5.848   2.146   5.829  1.0289  0.8593  3.3231
   25MOL   H134 9302   6.015   2.170   5.753  0.6608 -2.3273 -2.2230
   25MOL   C135 9303   6.252   2.043   6.174  0.4673 -0.1073  0.0141
   25MOL   C136 9304   6.209   2.159   6.261 -0.1605  0.0853  0.0289
   25MOL   C137 9305   6.298   2.147   6.386 -0.1370  0.3885 -0.6733
   25MOL   C138 9306   6.315   1.999   6.412 -0.7165 -0.0891 -0.1822
   25MOL   C139 9307   6.447   1.947   6.476  0.4691 -0.5799 -0.4176
   25MOL   C140 9308   6.452   1.943   6.628  0.0460 -0.1898  0.4943
   25MOL   C141 9309   6.303   1.935   6.274 -0.1170 -0.1795  0.4510
   25MOL   H142 9310   6.345   2.074   6.128 -0.2624  0.8417 -0.8562
   25MOL   H143 9311   6.232   2.257   6.220  2.8224 -1.3015 -1.7863
   25MOL   H144 9312   6.101   2.168   6.274 -0.3271  1.2742 -2.0518
   25MOL   H145 9313   6.388   2.201   6.356  1.9179 -3.1668 -1.1771
   25MOL   H146 9314   6.269   2.207   6.472  3.0747  1.4774 -0.2772
   25MOL   H147 9315   6.228   1.966   6.470 -1.2453  0.5109 -0.6359
   25MOL   H148 9316   6.534   2.001   6.437  0.6323 -1.2128 -0.9394
   25MOL   H149 9317   6.453   1.843   6.443  2.7281 -0.4280 -0.5591
   25MOL   H150 9318   6.445   2.046   6.664  0.6546  0.0907 -0.1758
   25MOL   H151 9319   6.370   1.875   6.653 -1.9698  2.0831  0.2394
   25MOL   H152 9320   6.226   1.859   6.284  2.0036 -2.4124  0.1424
   25MOL   H153 9321   6.390   1.880   6.239 -1.8616 -2.5840 -0.2198
   25MOL   C154 9322   6.581   1.877   6.684  0.1644 -1.0298 -0.4004
   25MOL   C155 9323   6.565   1.872   6.838  0.5578  0.0431  0.2736
   25MOL   C156 9324   6.708   1.873   6.890 -0.4640  0.2540 -0.0612
   25MOL   C157 9325   6.802   1.911   6.775 -0.4722 -0.4651  0.1666
   25MOL   C158 9326   6.912   2.009   6.829 -0.1895  0.2810  0.4693
   25MOL   C159 9327   7.010   2.055   6.724 -0.7706 -0.0054 -0.0233
   25MOL   C160 9328   6.708   1.962   6.669 -0.5175 -0.5239 -0.3248
   25MOL   H161 9329   6.588   1.777   6.640 -0.9795 -1.8376  1.1607
   25MOL   H162 9330   6.524   1.968   6.872 -0.8762  0.4828 -2.5947
   25MOL   H163 9331   6.502   1.793   6.879 -0.9164 -0.9245 -3.6884
   25MOL   H164 9332   6.711   1.939   6.976  0.4745 -0.5674  0.5474
   25MOL   H165 9333   6.747   1.779   6.931 -3.3692 -0.4312  1.2582
   25MOL   H166 9334   6.856   1.820   6.750 -0.0361 -0.3360  0.6225
   25MOL   H167 9335   6.976   1.950   6.894  0.2362  0.4259  0.1880
   25MOL   H168 9336   6.867   2.092   6.883  3.6581  0.3385  3.8972
   25MOL   H169 9337   7.052   1.974   6.664  1.3771 -0.1327  1.6117
   25MOL   H170 9338   6.979   2.124   6.646 -1.9129  0.4508  0.8282
   25MOL   H171 9339   6.751   1.964   6.568  1.3129 -0.1375  0.4435
   25MOL   H172 9340   6.683   2.066   6.693  2.1455  0.4605 -1.5588
   25MOL   C173 9341   7.130   2.130   6.787 -0.2308  0.3890  0.2169
   25MOL   C174 9342   7.256   2.140   6.695 -0.5514  0.7382  0.6436
   25MOL   C175 9343   7.339   2.255   6.757 -0.0798  0.9884 -0.6644
   25MOL   C176 9344   7.244   2.349   6.838  0.7600  0.8514 -0.1753
   25MOL   C177 9345   7.243   2.495   6.790  0.5538 -0.0287 -0.2584
   25MOL   C178 9346   7.375   2.571   6.804 -0.4227  0.0921 -0.0816
   25MOL   C179 9347   7.105   2.275   6.821  0.3402 -0.2103  0.0935
   25MOL   H180 9348   7.163   2.074   6.874  0.9997 -1.6229 -1.5074
   25MOL   H181 9349   7.231   2.165   6.592  2.5639 -1.9942 -0.8676
   25MOL   H182 9350   7.311   2.046   6.689 -1.2231  0.2435  1.9791
   25MOL   H183 9351   7.406   2.201   6.824  0.4072 -0.4346 -2.2402
   25MOL   H184 9352   7.380   2.310   6.673 -2.2457  0.8593 -1.8488
   25MOL   H185 9353   7.274   2.349   6.943 -1.7433  1.8377  0.5759
   25MOL   H186 9354   7.174   2.549   6.854  1.3505  1.3526 -0.5646
   25MOL   H187 9355   7.211   2.498   6.686  2.9201  1.2126 -0.9644
   25MOL   H188 9356   7.361   2.667   6.754 -2.0937 -0.2693 -0.3488
   25MOL   H189 9357   7.445   2.526   6.734  0.2241  1.9385 -0.6490
   25MOL   H190 9358   7.055   2.330   6.741  0.0698 -1.1446 -0.3933
   25MOL   H191 9359   7.033   2.278   6.903 -0.7121  0.6228 -0.8424
   25MOL   C192 9360   7.420   2.604   6.944  0.1246 -0.1155 -0.6523
   25MOL   C193 9361   7.531   2.715   6.947  0.3551 -0.4685  0.7867
   25MOL   C194 9362   7.588   2.692   7.083  0.7878  0.0470 -0.0059
   25MOL   C195 9363   7.604   2.539   7.097  0.3933  0.1831  0.4895
   25MOL   C196 9364   7.620   2.488   7.245 -0.3258  0.3156 -0.0440
   25MOL   C197 9365   0.030   2.342   7.251 -0.4769  0.1117 -0.1537
   25MOL   C198 9366   7.479   2.483   7.026 -0.0899  0.1376  0.0465
   25MOL   H199 9367   7.332   2.642   6.994  0.1954  1.2127 -1.5098
   25MOL   H200 9368   7.599   2.706   6.862 -0.7753  0.2661 -0.2010
   25MOL   H201 9369   7.479   2.811   6.946 -0.0717 -0.7003  0.5463
   25MOL   H202 9370   7.519   2.731   7.159 -0.7985  1.6228 -2.1980
   25MOL   H203 9371   0.037   2.743   7.080 -1.0077  3.4908 -0.9477
   25MOL   H204 9372   0.047   2.519   7.041  0.9256  0.7193  1.1504
   25MOL   H205 9373   7.519   2.495   7.287 -0.3848 -1.1727  0.0796
   25MOL   H206 9374   0.035   2.542   7.316 -1.0188 -0.3739  1.1074
   25MOL   H207 9375   0.120   2.332   7.191 -0.4460  0.3081 -0.1405
   25MOL   H208 9376   7.610   2.271   7.204 -0.2449  0.1644 -0.5637
   25MOL   H209 9377   7.397   2.455   7.092  0.4267 -1.0644  0.1959
   25MOL   H210 9378   7.512   2.403   6.959  2.0054  1.9319 -1.1217
   25MOL   C211 9379   0.066   2.305   7.400  0.0653 -0.3551  0.0750
   25MOL   C212 9380   0.173   2.201   7.413 -0.5518  0.4453  0.1308
   25MOL   C213 9381   0.140   2.114   7.543 -0.5365  0.1114 -0.0173
   25MOL   C214 9382   0.006   2.184   7.601  0.1410  0.0283  0.7749
   25MOL   C215 9383   7.550   2.086   0.009 -0.0065 -0.5682 -0.2401
   25MOL   C216 9384   7.439   2.138   0.107  0.7970  0.1083 -0.4124
   25MOL   C217 9385   7.591   2.258   7.482  0.3195  0.0438 -0.1193
   25MOL   H218 9386   0.101   2.393   7.453  3.2884 -2.3479  1.4002
   25MOL   H219 9387   0.173   2.126   7.335 -0.0930  0.4306  0.1429
   25MOL   H220 9388   0.274   2.237   7.431  0.1976 -0.2109 -2.5338
   25MOL   H221 9389   0.118   2.011   7.515  0.5311  0.1509 -1.0718
   25MOL   H222 9390   0.233   2.111   7.600 -1.1511 -0.1956  0.9735
   25MOL   H223 9391   0.023   2.256   0.033 -2.1640  0.8764  0.5249
   25MOL   H224 9392   7.602   2.006   0.062 -1.6510 -1.0132  0.7664
   25MOL   H225 9393   7.504   2.028   7.576 -0.0780  0.9830 -1.3453
   25MOL   H226 9394   7.481   2.226   0.157 -0.3665 -0.1113  1.0126
   25MOL   H227 9395   7.356   2.177   0.047  0.7395  1.0707  0.2754
   25MOL   H228 9396   7.522   2.336   7.513  0.2126  0.0094 -0.2720
   25MOL   H229 9397   7.538   2.192   7.414 -1.5197  1.4115 -0.0446
   25MOL   C230 9398   7.386   2.038   0.219 -0.2088 -0.3191 -0.2889
   25MOL   C231 9399   7.275   2.090   0.306  0.0720 -0.7925 -0.0901
   25MOL   C232 9400   7.277   1.996   0.421  1.1576  0.6739 -0.1454
   25MOL   C233 9401   7.423   1.981   0.456  0.3548  0.3866  0.1105
   25MOL   C234 9402   7.454   1.859   0.544 -0.2219  0.4153 -0.2627
   25MOL   C235 9403   7.600   1.827   0.548 -0.2523  0.1950  0.2243
   25MOL   C236 9404   7.492   1.985   0.320 -0.1770  0.6665  0.1465
   25MOL   H237 9405   7.353   1.952   0.161  1.6631  0.8272 -3.1174
   25MOL   H238 9406   7.305   2.189   0.338 -0.5798 -0.4261 -0.5967
   25MOL   H239 9407   7.176   2.094   0.260 -1.0967  0.8460  2.5044
   25MOL   H240 9408   7.226   1.905   0.388 -0.8019  1.4298  0.6931
   25MOL   H241 9409   7.219   2.042   0.501  1.6278  1.8271 -0.4634
   25MOL   H242 9410   7.450   2.071   0.510  0.4966  0.4256 -0.0234
   25MOL   H243 9411   7.400   1.767   0.522  1.8122 -0.4767 -1.6920
   25MOL   H244 9412   7.432   1.893   0.645  3.2967  1.2601  0.2770
   25MOL   H245 9413   7.617   1.754   0.469 -1.2598  0.0467  0.1449
   25MOL   H246 9414   0.006   1.918   0.519 -1.2534  0.8069  0.3053
   25MOL   H247 9415   7.516   1.882   0.292  0.6928  1.3409 -1.6089
   25MOL   H248 9416   7.585   2.040   0.310 -0.0755  0.3272 -0.8374
   25MOL   C249 9417   0.011   1.779   0.687 -0.0129 -0.0953 -0.2335
   25MOL   C250 9418   0.157   1.731   0.684 -0.2808 -0.2182  0.1532
   25MOL   C251 9419   0.240   1.857   0.696  0.0988 -0.1985  1.4442
   25MOL   C252 9420   0.153   1.970   0.747 -0.3337 -0.5568 -0.0765
   25MOL   C253 9421   0.213   2.064   0.851 -0.3949  0.4753 -0.0244
   25MOL   C254 9422   0.116   2.172   0.894  0.0097 -0.1757 -0.8799
   25MOL   C255 9423   0.029   1.892   0.794 -0.4659  0.6065  0.2616
   25MOL   H256 9424   7.599   1.694   0.721 -1.1274  1.3722  1.6630
   25MOL   H257 9425   0.189   1.660   0.760 -0.0503 -0.5324 -0.2348
   25MOL   H258 9426   0.168   1.684   0.587 -0.2684  0.2243 -0.0608
   25MOL   H259 9427   0.291   1.878   0.602  0.2416 -0.5448  1.4428
   25MOL   H260 9428   0.326   1.845   0.762  0.9481  0.2334  0.4241
   25MOL   H261 9429   0.124   2.039   0.668  2.2828 -1.6935 -2.1066
   25MOL   H262 9430   0.305   2.101   0.807  0.1787  0.1665  0.9203
   25MOL   H263 9431   0.241   2.009   0.940  3.5303  2.2972 -0.0188
   25MOL   H264 9432   0.024   2.127   0.932 -1.0109  2.4785 -0.0521
   25MOL   H265 9433   0.078   2.220   0.803 -0.9802 -1.2098 -1.0233
   25MOL   H266 9434   7.592   1.960   0.803  0.1983  1.1875  2.3541
   25MOL   H267 9435   0.052   1.856   0.894  1.4814  1.4173  0.1263
   25MOL   C268 9436   0.179   2.278   0.989 -0.2295 -0.2024  1.1511
   25MOL   C269 9437   0.079   2.357   1.074 -0.5448 -0.1618 -0.1483
   25MOL   C270 9438   0.167   2.468   1.127  0.1995 -0.1134  0.2283
   25MOL   C271 9439   0.266   2.509   1.007  0.5572  0.0834 -0.9664
   25MOL   C272 9440   0.218   2.633   0.929 -0.1829 -0.0199  0.7241
   25MOL   C273 9441   0.327   2.708   0.848 -0.6228 -0.2029 -0.1510
   25MOL   C274 9442   0.268   2.383   0.917 -0.0200 -0.2403 -0.3294
   25MOL   H275 9443   0.244   2.228   1.060  0.8108 -1.5228 -0.7146
   25MOL   H276 9444   7.639   2.387   1.016 -2.3519 -0.3932  2.3491
   25MOL   H277 9445   0.051   2.303   1.165  1.7620  0.5383  1.0235
   25MOL   H278 9446   0.118   2.554   1.172  0.6654 -0.2158  0.9367
   25MOL   H279 9447   0.219   2.437   1.218 -2.5409  1.0888  2.2992
   25MOL   H280 9448   0.360   2.534   1.056 -0.6946 -0.6638  1.9104
   25MOL   H281 9449   0.168   2.714   0.982 -0.6878  0.2027 -0.1023
   25MOL   H282 9450   0.138   2.614   0.859  0.2395 -0.9416  0.4823
   25MOL   H283 9451   0.414   2.741   0.905 -1.2612  0.0625  0.6897
   25MOL   H284 9452   0.366   2.645   0.768 -1.1453 -2.5044  1.3530
   25MOL   H285 9453   0.212   2.405   0.826 -0.0455  0.2321 -0.2028
   25MOL   H286 9454   0.363   2.338   0.890 -0.9421 -2.6846  0.4392
   25MOL   C287 9455   0.281   2.837   0.787  0.0351 -0.2722 -0.2597
   25MOL   C288 9456   0.389   2.924   0.726 -0.7757 -0.0546  0.0109
   25MOL   C289 9457   0.312   3.021   0.640  0.1366  0.6801  0.1006
   25MOL   C290 9458   0.171   2.972   0.617 -0.2692  0.1747 -0.4658
   25MOL   C291 9459   0.127   2.977   0.470 -0.4869 -0.6262 -0.1233
   25MOL   C292 9460   0.086   3.124   0.420  0.4292  0.5055 -0.4476
   25MOL   C293 9461   0.179   2.827   0.667  0.3705  0.4161 -0.2022
   25MOL   H294 9462   0.246   2.892   0.874 -0.5370 -2.8043  1.1642
   25MOL   H295 9463   0.450   2.966   0.806  0.4591  1.0882 -1.5046
   25MOL   H296 9464   0.456   2.870   0.659 -1.2124 -0.5933  0.0014
   25MOL   H297 9465   0.364   3.050   0.548 -2.0255  0.0186 -1.3720
   25MOL   H298 9466   0.295   3.116   0.692 -0.2933  0.8027 -0.2530
   25MOL   H299 9467   0.099   3.017   0.685 -1.1538 -1.0263 -0.5998
   25MOL   H300 9468   0.045   2.906   0.460 -2.9505  2.0455  0.2862
   25MOL   H301 9469   0.212   2.946   0.408 -0.0067  0.7933 -0.1939
   25MOL   H302 9470   0.084   3.120   0.311 -0.0593 -2.2033 -0.3811
   25MOL   H303 9471   0.152   3.200   0.461  1.4346 -0.3662 -0.4040
   25MOL   H304 9472   0.223   2.758   0.595  1.9202  1.2518 -0.0855
   25MOL   H305 9473   0.078   2.795   0.694  1.6039 -0.5811  3.6914
   25MOL   C306 9474   7.587   3.159   0.462  0.4916  0.6007  0.3155
   25MOL   C307 9475   7.554   3.304   0.413  0.3191  0.2831  0.3055
   25MOL   C308 9476   7.423   3.304   0.337 -0.1069  0.6067  0.8053
   25MOL   C309 9477   7.356   3.163   0.370 -0.4272 -0.4812  0.0471
   25MOL   C310 9478   7.242   3.122   0.271  0.1063 -0.0952 -0.5298
   25MOL   C311 9479   7.112   3.202   0.298 -0.0834  0.2976 -0.7371
   25MOL   C312 9480   7.478   3.076   0.393 -0.7088 -0.2486 -0.5383
   25MOL   H313 9481   7.568   3.154   0.570 -0.7614 -0.2893  0.0670
   25MOL   H314 9482   7.550   3.375   0.496  1.3157  0.3320  0.3162
   25MOL   H315 9483   7.637   3.336   0.351 -0.1095  0.2227 -0.3031
   25MOL   H316 9484   7.375   3.400   0.355  1.2591  1.0586  2.1219
   25MOL   H317 9485   7.444   3.319   0.231  2.4974  2.5959  1.5601
   25MOL   H318 9486   7.301   3.170   0.464 -1.5408 -1.8286 -0.4760
   25MOL   H319 9487   7.282   3.141   0.171  1.8867 -2.0375 -0.2330
   25MOL   H320 9488   7.224   3.015   0.275  1.6696 -0.3721 -0.5409
   25MOL   H321 9489   7.138   3.306   0.276 -3.1363  1.9253  2.7671
   25MOL   H322 9490   7.078   3.192   0.401 -1.4247  0.8144 -1.1096
   25MOL   H323 9491   7.523   3.043   0.300  0.5985 -1.6140  0.5504
   25MOL   H324 9492   7.448   2.981   0.436  1.5797 -1.3078 -1.2174
   25MOL   C325 9493   7.007   3.154   0.198 -0.4237 -0.1933  0.1044
   25MOL   C326 9494   6.971   3.012   0.234 -0.1489  0.6834 -0.0080
   25MOL   C327 9495   6.821   3.020   0.236  0.0521 -0.0468 -0.3299
   25MOL   C328 9496   6.764   3.161   0.250 -0.5043  0.4493  1.0676
   25MOL   C329 9497   6.635   3.171   0.178 -0.1561 -0.1044  0.6096
   25MOL   C330 9498   6.566   3.306   0.188  0.4311 -0.3048 -0.8132
   25MOL   C331 9499   6.879   3.251   0.196 -0.3361 -0.0466  0.5188
   25MOL   H332 9500   7.048   3.161   0.097  1.5327  0.4773  0.9305
   25MOL   H333 9501   7.000   2.974   0.332 -0.2339  1.0339  0.1494
   25MOL   H334 9502   7.015   2.944   0.160  0.2322  0.5386  0.3501
   25MOL   H335 9503   6.779   2.965   0.151 -1.6829 -0.2406  0.6452
   25MOL   H336 9504   6.774   2.960   0.314 -1.6570  1.4503 -0.1744
   25MOL   H337 9505   6.750   3.186   0.355 -2.1088  0.1540  0.9308
   25MOL   H338 9506   6.656   3.153   0.072 -0.0366  0.0822  0.6007
   25MOL   H339 9507   6.570   3.088   0.201  1.0894 -0.3113  3.6135
   25MOL   H340 9508   6.634   3.388   0.209 -0.9530  1.5916 -3.4835
   25MOL   H341 9509   6.533   3.332   0.088 -0.9474  1.9888  0.2135
   25MOL   H342 9510   6.896   3.343   0.252 -2.2006  0.9172 -0.4424
   25MOL   H343 9511   6.850   3.289   0.098 -0.7989  0.9495  1.0277
   25MOL   C344 9512   6.437   3.317   0.276  0.4969  0.2033  0.1911
   25MOL   C345 9513   6.337   3.201   0.259 -0.2162  0.3196  0.3554
   25MOL   C346 9514   6.207   3.267   0.310  0.5584 -0.2195 -0.3686
   25MOL   C347 9515   6.210   3.414   0.261  0.0437  0.2047 -0.4508
   25MOL   C348 9516   6.107   3.496   0.345  0.3945 -0.3093  0.0452
   25MOL   C349 9517   6.102   3.641   0.316 -0.2712 -0.1174 -0.2712
   25MOL   C350 9518   6.361   3.449   0.261 -0.3753 -0.5362  0.0746
   25MOL   H351 9519   6.467   3.302   0.380 -1.7649  4.1812  1.5025
   25MOL   H352 9520   6.359   3.105   0.306  0.0477  0.3880  0.3705
   25MOL   H353 9521   6.327   3.177   0.153  1.4353  0.5531  0.1451
   25MOL   H354 9522   6.113   3.218   0.282 -0.7898  2.1626 -0.1625
   25MOL   H355 9523   6.207   3.277   0.418 -1.6049  0.6951 -0.4275
   25MOL   H356 9524   6.170   3.405   0.160 -2.9308  2.3239  0.4869
   25MOL   H357 9525   6.009   3.457   0.318  1.0125 -1.3831 -0.6856
   25MOL   H358 9526   6.123   3.486   0.452 -0.8114 -0.1042  0.2505
   25MOL   H359 9527   6.101   3.659   0.208 -1.6480  1.0783 -0.0759
   25MOL   H360 9528   6.198   3.687   0.339 -1.3548  2.4331 -0.6009
   25MOL   H361 9529   6.398   3.502   0.173 -0.8474  0.9125  0.7230
   25MOL   H362 9530   6.388   3.518   0.341  0.2189  0.4310 -0.9472
   25MOL   C363 9531   5.982   3.717   0.382  0.7249  0.1245 -0.4874
   25MOL   C364 9532   5.994   3.874   0.361 -0.1187  0.4490  0.3604
   25MOL   C365 9533   5.943   3.944   0.484 -0.4365 -0.2785  1.0997
   25MOL   C366 9534   5.901   3.834   0.577 -0.5620 -0.1863  0.8394
   25MOL   C367 9535   5.897   3.868   0.725 -0.1812  0.4256 -0.1775
   25MOL   C368 9536   6.029   3.910   0.791  0.0055 -0.3328 -0.2986
   25MOL   C369 9537   5.972   3.711   0.541 -1.7818  0.9316  0.1248
   25MOL   H370 9538   5.891   3.681   0.334  0.3945 -0.1043  0.2981
   25MOL   H371 9539   6.097   3.897   0.332  0.0557  0.0212  0.6419
   25MOL   H372 9540   5.922   3.909   0.287 -1.0517 -0.6167  0.7487
   25MOL   H373 9541   6.024   3.998   0.533 -1.4338  1.6093  0.7262
   25MOL   H374 9542   5.861   4.007   0.450  0.2071  0.9138  1.7039
   25MOL   H375 9543   5.799   3.818   0.540 -0.5828  1.4819  0.1267
   25MOL   H376 9544   5.827   3.948   0.747  0.2250  0.7693 -0.1224
   25MOL   H377 9545   5.855   3.784   0.780 -0.5090  0.6754 -0.0449
   25MOL   H378 9546   6.112   3.840   0.795  0.5892  0.3381 -0.5315
   25MOL   H379 9547   5.999   3.947   0.889  1.7288  0.2036  0.0399
   25MOL   H380 9548   6.069   3.714   0.590 -1.6980 -0.1419  0.0318
   25MOL   H381 9549   5.916   3.620   0.563  1.8123 -0.7692  2.8719
   25MOL   H382 9550   6.066   4.003   0.746 -0.1940  0.1549  0.5286
   26MOL     C1 9551   1.157   6.716   7.296 -0.2045  0.8129  0.0667
   26MOL     C2 9552   1.007   6.726   7.295  0.2804  0.0597 -0.1812
   26MOL     C3 9553   0.957   6.761   7.160  0.2372 -0.4624  0.4817
   26MOL     C4 9554   1.071   6.708   7.081  0.1595 -0.3624 -0.3502
   26MOL     C5 9555   1.072   6.769   6.935  0.2287 -0.0211  0.4356
   26MOL     C6 9556   1.150   6.689   6.835  0.3960 -0.9499 -0.1005
   26MOL     C7 9557   1.203   6.730   7.154 -0.7028 -0.5056 -0.0645
   26MOL     H8 9558   1.186   6.813   7.337  1.6895  0.4734 -0.3829
   26MOL     H9 9559   0.970   6.799   7.368  1.8559  0.1860  0.5402
   26MOL    H10 9560   0.964   6.631   7.324  2.8528 -0.8808  0.7226
   26MOL    H11 9561   0.854   6.732   7.139  0.1113  0.3210 -0.0048
   26MOL    H12 9562   0.973   6.866   7.138  2.6212 -1.3778 -2.4690
   26MOL    H13 9563   1.058   6.600   7.081  2.7175 -0.7134 -2.0182
   26MOL    H14 9564   0.969   6.765   6.899  0.4743  0.0863 -0.2960
   26MOL    H15 9565   1.094   6.876   6.925  1.9577 -0.2179  1.8504
   26MOL    H16 9566   1.251   6.667   6.869  0.3546  0.7255  1.1809
   26MOL    H17 9567   1.107   6.589   6.825  1.0696 -1.1134 -1.4114
   26MOL    H18 9568   1.288   6.663   7.138  0.0479  0.7442 -1.3837
   26MOL    H19 9569   1.245   6.824   7.119  0.3545 -0.9244  0.0544
   26MOL    H20 9570   1.207   6.643   7.361  0.0948  0.4027 -0.6127
   26MOL    C21 9571   1.158   6.754   6.701  0.3625  0.5422 -0.0519
   26MOL    C22 9572   1.205   6.897   6.698 -0.5795 -0.1592 -0.4865
   26MOL    C23 9573   1.288   6.913   6.580  0.2801 -1.0761 -0.2915
   26MOL    C24 9574   1.291   6.776   6.504  0.5470  0.0136 -0.1008
   26MOL    C25 9575   1.421   6.754   6.426 -0.5812  0.2736 -0.2199
   26MOL    C26 9576   1.426   6.623   6.346  0.4737  0.3833 -0.0512
   26MOL    C27 9577   1.253   6.676   6.612  0.4929 -0.4044  0.1920
   26MOL    H28 9578   1.060   6.746   6.653  0.2037  1.2694  0.1407
   26MOL    H29 9579   1.123   6.968   6.701  0.4286  1.0532 -1.2025
   26MOL    H30 9580   1.272   6.918   6.781 -0.0016 -0.5165 -0.8614
   26MOL    H31 9581   1.243   6.989   6.515  0.0752 -0.4393  0.5891
   26MOL    H32 9582   1.390   6.943   6.603 -0.2057  1.7950 -1.5989
   26MOL    H33 9583   1.203   6.766   6.441 -2.1685 -3.3609  3.9639
   26MOL    H34 9584   1.505   6.753   6.495 -1.2592  0.7466  0.6233
   26MOL    H35 9585   1.430   6.839   6.358  0.1939 -0.3702 -0.9416
   26MOL    H36 9586   1.334   6.622   6.288 -0.5212  3.0877  1.3811
   26MOL    H37 9587   1.415   6.547   6.424  0.9616  0.5681  0.1992
   26MOL    H38 9588   1.208   6.590   6.562  0.6254  0.1417 -0.8865
   26MOL    H39 9589   1.338   6.649   6.674  0.7158  0.2216  0.1598
   26MOL    C40 9590   1.560   6.605   6.273  0.1615  0.9173 -0.1881
   26MOL    C41 9591   1.590   6.461   6.228 -0.1290 -0.2540  0.6157
   26MOL    C42 9592   1.600   6.465   6.074 -0.5176 -0.1881  0.3201
   26MOL    C43 9593   1.524   6.591   6.023 -0.0909 -0.1816 -0.5096
   26MOL    C44 9594   1.567   6.628   5.882 -0.2539  0.8708 -0.0250
   26MOL    C45 9595   1.549   6.512   5.773  0.1582 -0.8479 -0.2550
   26MOL    C46 9596   1.560   6.687   6.144 -0.4788 -0.0717  0.4337
   26MOL    H47 9597   1.644   6.644   6.330 -1.3114 -0.8899  3.3909
   26MOL    H48 9598   1.508   6.398   6.262  1.3036 -2.0287  0.8099
   26MOL    H49 9599   1.681   6.430   6.279  0.7103  0.7049 -0.2837
   26MOL    H50 9600   1.706   6.479   6.051 -0.8906 -0.3977 -1.6635
   26MOL    H51 9601   1.574   6.373   6.021  1.3516  0.2139 -1.3638
   26MOL    H52 9602   1.416   6.575   6.017  0.0046 -1.2088  0.2773
   26MOL    H53 9603   1.507   6.713   5.850  0.3327  0.7321 -1.5731
   26MOL    H54 9604   1.672   6.659   5.879 -0.7262  2.4895 -0.0274
   26MOL    H55 9605   1.455   6.457   5.782  0.6458 -1.7238 -0.5604
   26MOL    H56 9606   1.612   6.425   5.787 -1.5318 -1.9976  0.3464
   26MOL    H57 9607   1.655   6.739   6.134 -2.7437  3.7625 -2.2880
   26MOL    H58 9608   1.484   6.764   6.151  0.7635  0.9785  3.2905
   26MOL    C59 9609   1.557   6.569   5.630 -0.6843 -0.4384 -0.4633
   26MOL    C60 9610   1.575   6.462   5.525  0.3634  0.1600  0.1560
   26MOL    C61 9611   1.496   6.505   5.405 -0.0277  0.5953 -0.0968
   26MOL    C62 9612   1.384   6.595   5.462  0.2105 -0.7274  0.0001
   26MOL    C63 9613   1.325   6.683   5.352  0.2679 -1.0659 -0.1683
   26MOL    C64 9614   1.221   6.777   5.420  0.0829 -0.0805 -0.8882
   26MOL    C65 9615   1.451   6.667   5.587 -0.1062 -0.4326  0.2456
   26MOL    H66 9616   1.652   6.623   5.636 -1.1142  0.5170 -2.0418
   26MOL    H67 9617   1.675   6.432   5.494  0.5918  0.4608  0.5914
   26MOL    H68 9618   1.533   6.369   5.564  0.3019 -0.2306 -0.8371
   26MOL    H69 9619   1.560   6.564   5.339 -0.0660  2.6430  1.6145
   26MOL    H70 9620   1.452   6.427   5.344  2.3597  0.3483 -1.5603
   26MOL    H71 9621   1.299   6.537   5.499 -2.0737  2.0050 -0.7435
   26MOL    H72 9622   1.289   6.618   5.273 -0.3715  0.1190 -0.8718
   26MOL    H73 9623   1.408   6.747   5.321  0.8292 -2.0864 -0.7977
   26MOL    H74 9624   1.132   6.720   5.449 -1.6583  2.1533 -1.6856
   26MOL    H75 9625   1.260   6.829   5.507 -0.3254 -0.4330 -0.4932
   26MOL    H76 9626   1.498   6.757   5.548 -2.4707  0.3129 -0.9687
   26MOL    H77 9627   1.376   6.691   5.662 -3.5021 -0.8461 -2.8900
   26MOL    C78 9628   1.173   6.889   5.323  0.1122  0.4669 -0.1745
   26MOL    C79 9629   1.044   6.968   5.362  0.0139  0.1469  0.1650
   26MOL    C80 9630   1.056   7.102   5.299 -0.7523  0.4355 -0.1891
   26MOL    C81 9631   1.187   7.104   5.211  0.4903  0.2756  0.3396
   26MOL    C82 9632   1.256   7.235   5.197  0.4726 -0.0558 -0.3951
   26MOL    C83 9633   1.364   7.241   5.087 -0.5452 -0.4865 -0.3221
   26MOL    C84 9634   1.275   7.001   5.281 -0.3368 -0.0189 -0.0814
   26MOL    H85 9635   1.144   6.837   5.231  1.2330  2.4822 -1.7063
   26MOL    H86 9636   0.954   6.915   5.330  0.3692 -0.1339 -0.3481
   26MOL    H87 9637   1.049   6.981   5.471 -1.8884  0.1959  0.2765
   26MOL    H88 9638   0.970   7.135   5.241 -1.6006  0.6556  1.1900
   26MOL    H89 9639   1.057   7.167   5.387  2.3829  1.0034 -0.5731
   26MOL    H90 9640   1.159   7.064   5.114 -1.8344 -1.9972  1.8976
   26MOL    H91 9641   1.298   7.253   5.296  0.6926  0.3782 -0.5672
   26MOL    H92 9642   1.184   7.313   5.174 -1.6740 -0.4573  4.4439
   26MOL    H93 9643   1.444   7.171   5.109 -0.6144 -0.5641 -0.3178
   26MOL    H94 9644   1.410   7.340   5.081  0.9945 -1.2273 -1.0679
   26MOL    H95 9645   1.323   7.044   5.369 -0.0161  2.4475 -1.3955
   26MOL    H96 9646   1.347   6.961   5.210  1.2314  0.4517  1.2196
   26MOL    C97 9647   1.311   7.215   4.947  0.7068  0.3148  1.1712
   26MOL    C98 9648   1.423   7.197   4.841 -0.0756  0.4073  0.1526
   26MOL    C99 9649   1.350   7.229   4.708 -0.6746  0.4497 -0.3112
   26MOL   C100 9650   1.222   7.306   4.741 -0.1200 -0.5623 -0.4466
   26MOL   C101 9651   1.179   7.433   4.658 -0.5782  0.1999 -0.5642
   26MOL   C102 9652   1.032   7.464   4.655  0.3791 -0.0321 -0.3939
   26MOL   C103 9653   1.224   7.331   4.891  0.5952 -0.0654 -0.1936
   26MOL   H104 9654   1.261   7.118   4.942  0.2833  0.5325  1.1406
   26MOL   H105 9655   1.504   7.267   4.860  0.0882  0.3799 -0.4478
   26MOL   H106 9656   1.461   7.095   4.840  0.1286  0.4757  1.0177
   26MOL   H107 9657   1.409   7.294   4.644 -0.1809  0.9667  0.6598
   26MOL   H108 9658   1.331   7.135   4.656 -0.5233  0.4157 -0.3068
   26MOL   H109 9659   1.148   7.226   4.732 -1.1489  0.3413 -0.0338
   26MOL   H110 9660   1.234   7.524   4.681 -1.6862  1.1387 -1.5798
   26MOL   H111 9661   1.197   7.410   4.553 -0.4927 -0.9144 -0.3137
   26MOL   H112 9662   0.982   7.368   4.646  0.8461 -0.4017  0.8895
   26MOL   H113 9663   1.005   7.501   4.754 -0.5192  0.3555 -0.7718
   26MOL   H114 9664   1.266   7.428   4.916 -2.2312  1.4006 -0.9657
   26MOL   H115 9665   1.121   7.324   4.927  0.8787 -1.9165  0.3477
   26MOL   C116 9666   0.985   7.568   4.549  0.1905  0.5257 -0.6664
   26MOL   C117 9667   0.991   7.512   4.406  1.0616  0.0172 -0.8231
   26MOL   C118 9668   0.908   7.607   4.325  0.9286 -0.2511  0.4872
   26MOL   C119 9669   0.795   0.012   4.412 -0.4162 -0.3166  0.2436
   26MOL   C120 9670   0.647   7.614   4.377  0.7125  0.5786  0.3281
   26MOL   C121 9671   0.606   7.603   4.232 -0.5928  0.2334 -0.0012
   26MOL   C122 9672   0.839   7.623   4.562  0.4914  0.2174 -0.3957
   26MOL   H123 9673   1.051   0.008   4.549  0.5767  0.2760 -3.0394
   26MOL   H124 9674   0.957   7.408   4.401  1.6743 -0.2090 -0.2196
   26MOL   H125 9675   1.092   7.502   4.367  0.8232 -1.5027 -1.0938
   26MOL   H126 9676   0.878   7.564   4.229  0.8986 -1.4800  1.0393
   26MOL   H127 9677   0.971   0.047   4.305  2.4467 -0.4738  3.8786
   26MOL   H128 9678   0.787   0.121   4.416 -0.9292 -0.3256 -0.4640
   26MOL   H129 9679   0.577   0.035   4.425 -0.6313  1.2366 -2.4216
   26MOL   H130 9680   0.627   7.514   4.416  0.9099  0.4099  0.0053
   26MOL   H131 9681   0.654   7.511   4.200  0.4138  1.2924 -1.6391
   26MOL   H132 9682   0.646   0.043   4.180 -2.0943  1.0989  0.2774
   26MOL   H133 9683   0.843   0.059   4.632 -0.4940 -0.0398 -0.0332
   26MOL   H134 9684   0.769   7.550   4.603  1.7327 -1.4881 -1.2560
   26MOL   C135 9685   0.459   7.598   4.194 -0.1483 -0.5373 -0.2869
   26MOL   C136 9686   0.431   0.006   4.056  0.1709  0.1462  0.3433
   26MOL   C137 9687   0.287   7.604   4.015 -0.8347  0.1537  0.0008
   26MOL   C138 9688   0.259   7.486   4.116  0.3516  0.0042 -0.4859
   26MOL   C139 9689   0.138   7.515   4.216 -0.2354 -0.2729  0.5998
   26MOL   C140 9690   7.644   7.511   4.151 -0.0244  0.2274  0.8997
   26MOL   C141 9691   0.394   7.460   4.193 -0.0135 -0.9062  0.1373
   26MOL   H142 9692   0.404   0.008   4.268 -0.6330 -0.0303 -1.0383
   26MOL   H143 9693   0.441   0.115   4.055  0.3252  0.1355  0.6488
   26MOL   H144 9694   0.507   7.633   3.982 -0.8803  1.8435 -1.2577
   26MOL   H145 9695   0.201   0.025   4.017 -0.6641  0.5493 -3.5045
   26MOL   H146 9696   0.299   7.555   3.919 -0.0123  0.0581  0.1463
   26MOL   H147 9697   0.224   7.400   4.059 -0.4924 -0.3842  0.5819
   26MOL   H148 9698   0.159   7.612   4.261  1.3471 -1.1014  1.7032
   26MOL   H149 9699   0.139   7.449   4.302 -3.7227 -1.7032 -0.3628
   26MOL   H150 9700   7.641   7.526   4.044 -1.7922 -0.3905  0.8499
   26MOL   H151 9701   7.617   7.406   4.164  0.4038 -0.1064 -0.8643
   26MOL   H152 9702   0.445   7.381   4.137 -1.2450 -0.1533 -2.1466
   26MOL   H153 9703   0.394   7.428   4.297  3.2768 -2.2100 -0.2136
   26MOL   C154 9704   7.551   7.607   4.229 -0.5363 -0.0795  0.5803
   26MOL   C155 9705   7.402   7.616   4.189 -0.2936 -0.0814 -0.2569
   26MOL   C156 9706   7.387   0.071   4.074 -0.1424 -0.0499  0.2181
   26MOL   C157 9707   7.504   0.173   4.104 -0.2853 -0.3972  0.5985
   26MOL   C158 9708   7.595   0.203   3.979 -0.1276  0.0803 -0.2099
   26MOL   C159 9709   7.516   0.290   3.878  0.1757  0.1422 -0.3378
   26MOL   C160 9710   7.589   0.110   4.214 -0.2979 -1.0068 -0.0824
   26MOL   H161 9711   7.559   7.586   4.336  1.0409 -2.2753  0.0684
   26MOL   H162 9712   7.368   7.515   4.167  0.6343  0.0065 -2.1709
   26MOL   H163 9713   7.354   7.643   4.284  2.3506  1.9498  0.5632
   26MOL   H164 9714   7.406   0.015   3.983 -1.8885 -1.0164  0.4256
   26MOL   H165 9715   7.286   0.113   4.065  0.0733 -0.0873 -2.9578
   26MOL   H166 9716   7.461   0.262   4.151 -0.6412  0.0384 -0.5124
   26MOL   H167 9717   7.623   0.106   3.939 -0.3532 -0.4397  0.8889
   26MOL   H168 9718   0.036   0.263   4.004 -1.3859  1.8188  0.1820
   26MOL   H169 9719   7.415   0.250   3.874 -0.0515  0.5339  1.0392
   26MOL   H170 9720   7.509   0.385   3.932  2.3381 -0.0707  0.3960
   26MOL   H171 9721   7.549   0.168   4.297 -0.0406 -0.5643 -0.2603
   26MOL   H172 9722   0.049   0.129   4.203 -0.1377 -1.7637  0.1603
   26MOL   C173 9723   7.590   0.297   3.741  0.1732 -0.8834  0.3226
   26MOL   C174 9724   7.501   0.360   3.639 -0.7622  0.4906 -0.2868
   26MOL   C175 9725   7.563   0.496   3.620 -0.0081  0.5513  0.4869
   26MOL   C176 9726   0.064   0.487   3.634  0.5755 -0.1700 -0.7616
   26MOL   C177 9727   0.101   0.628   3.692 -0.5202 -0.2862 -0.1300
   26MOL   C178 9728   0.248   0.648   3.688 -0.1469 -0.4181  0.4437
   26MOL   C179 9729   0.068   0.379   3.740 -0.0018 -0.0362  0.4933
   26MOL   H180 9730   7.602   0.193   3.712  1.4912  0.8382 -5.8228
   26MOL   H181 9731   7.400   0.383   3.671 -1.0825 -0.2629 -0.7482
   26MOL   H182 9732   7.508   0.310   3.542 -2.6018  3.3220 -1.9647
   26MOL   H183 9733   7.530   0.542   3.527  0.0798 -1.9017 -0.7896
   26MOL   H184 9734   7.514   0.568   3.686 -0.6116  1.3908 -0.8687
   26MOL   H185 9735   0.116   0.471   3.539  1.3300  1.3811 -0.6371
   26MOL   H186 9736   0.053   0.638   3.789  1.1420 -2.1258  0.9075
   26MOL   H187 9737   0.056   0.698   3.622 -2.8017 -1.2957  0.2842
   26MOL   H188 9738   0.279   0.620   3.587 -0.4177  3.3909 -0.7733
   26MOL   H189 9739   0.286   0.571   3.756 -1.8265 -2.5898 -1.0133
   26MOL   H190 9740   0.086   0.425   3.837 -0.9874  0.9237  0.2246
   26MOL   H191 9741   0.152   0.312   3.720 -0.0625  0.7053 -2.5103
   26MOL   C192 9742   0.294   0.785   3.727  0.1011 -0.4512  0.5300
   26MOL   C193 9743   0.446   0.802   3.721  0.0867  0.6515 -0.0539
   26MOL   C194 9744   0.479   0.917   3.817  0.2652  0.2445  0.0228
   26MOL   C195 9745   0.389   0.890   3.940 -0.1684  0.1421  0.1034
   26MOL   C196 9746   0.362   1.017   4.019 -0.6581 -0.3784 -0.0046
   26MOL   C197 9747   0.277   1.008   4.148 -0.3562  0.1850  0.2370
   26MOL   C198 9748   0.267   0.822   3.873 -1.1332  0.1323  0.2584
   26MOL   H199 9749   0.247   0.853   3.655  1.9796 -0.3927 -0.6799
   26MOL   H200 9750   0.499   0.712   3.751 -0.0847 -0.1569 -2.0462
   26MOL   H201 9751   0.473   0.835   3.620  1.6696 -1.3703 -0.3229
   26MOL   H202 9752   0.445   1.012   3.776  0.9560  1.0447  1.2788
   26MOL   H203 9753   0.587   0.918   3.830  0.2406 -0.7577  0.3382
   26MOL   H204 9754   0.440   0.819   4.005  0.5581 -1.4647 -2.1589
   26MOL   H205 9755   0.303   1.074   3.947 -1.0615 -0.9906 -0.1613
   26MOL   H206 9756   0.456   1.065   4.047  0.2816 -1.2600 -1.5317
   26MOL   H207 9757   0.347   0.976   4.226  1.7378 -0.8301 -2.0069
   26MOL   H208 9758   0.205   0.926   4.146 -0.9985  0.7403  0.6104
   26MOL   H209 9759   0.174   0.878   3.885 -2.0511 -0.9143 -1.5696
   26MOL   H210 9760   0.242   0.732   3.930  0.8064 -0.8732 -0.4358
   26MOL   C211 9761   0.207   1.142   4.180  0.3000  0.7127  0.1896
   26MOL   C212 9762   0.301   1.258   4.230 -0.4077  0.1463  0.0452
   26MOL   C213 9763   0.261   1.303   4.370 -0.0157  0.2128  0.5080
   26MOL   C214 9764   0.112   1.266   4.371 -1.0189  0.4454  0.7216
   26MOL   C215 9765   0.059   1.261   4.516  0.2042  0.4654 -0.2877
   26MOL   C216 9766   0.062   1.386   4.597  0.4576 -0.3334  0.1419
   26MOL   C217 9767   0.106   1.137   4.294 -0.2043 -0.5337  0.3902
   26MOL   H218 9768   0.149   1.168   4.091  0.4908  1.7328  0.3542
   26MOL   H219 9769   0.406   1.233   4.218 -1.1169 -1.3387 -3.8266
   26MOL   H220 9770   0.264   1.335   4.163 -2.8308 -0.6055  0.4595
   26MOL   H221 9771   0.319   1.249   4.445 -1.5186  1.0637  2.3308
   26MOL   H222 9772   0.283   1.410   4.367 -0.7114  0.3421 -0.0714
   26MOL   H223 9773   0.059   1.334   4.304  0.2474  1.1206  0.3809
   26MOL   H224 9774   0.114   1.182   4.567 -1.6914  0.4204  1.7406
   26MOL   H225 9775   7.602   1.228   4.513 -0.7964  3.1330  2.2616
   26MOL   H226 9776   0.165   1.421   4.601  0.6890 -1.0965  0.8488
   26MOL   H227 9777   0.013   1.467   4.543 -0.3425 -0.4399  0.6990
   26MOL   H228 9778   0.006   1.116   4.256 -1.0210  0.4109  1.9391
   26MOL   H229 9779   0.124   1.057   4.366  0.5839  0.7825  1.7063
   26MOL   C230 9780   7.639   1.367   4.728 -0.4832  0.1482  0.6791
   26MOL   C231 9781   7.489   1.324   4.717 -0.3822 -0.0740 -0.1517
   26MOL   C232 9782   7.439   1.341   4.863  0.4014  0.9791  0.2082
   26MOL   C233 9783   7.512   1.471   4.913  0.3351  0.0422 -0.3541
   26MOL   C234 9784   7.510   1.469   5.065 -0.0719  0.0160  0.2636
   26MOL   C235 9785   7.383   1.518   5.131 -0.2870  0.4041 -0.3291
   26MOL   C236 9786   7.646   1.479   4.835 -0.4969  0.2991 -0.1700
   26MOL   H237 9787   0.038   1.284   4.783  0.1827  0.0491 -0.0285
   26MOL   H238 9788   7.436   1.390   4.648  0.3757  0.7694  0.0522
   26MOL   H239 9789   7.484   1.221   4.683  2.3815 -0.1062 -0.5732
   26MOL   H240 9790   7.456   1.252   4.923  2.4462  0.9655 -0.3616
   26MOL   H241 9791   7.334   1.367   4.876  0.6160  0.4988  3.2323
   26MOL   H242 9792   7.456   1.561   4.885 -1.3092 -1.1606 -1.0253
   26MOL   H243 9793   7.587   1.541   5.095  1.4814 -1.6312  0.3238
   26MOL   H244 9794   7.548   1.371   5.094 -0.4115 -0.2321 -0.1402
   26MOL   H245 9795   7.292   1.487   5.079 -0.4802  0.3899  0.0132
   26MOL   H246 9796   7.375   1.464   5.226 -1.2512 -2.2997 -1.8692
   26MOL   H247 9797   0.080   1.458   4.905 -1.6132 -0.7693  0.8298
   26MOL   H248 9798   0.022   1.574   4.787  0.2472  1.1287  1.7345
   26MOL   C249 9799   7.373   1.674   5.145  0.6897 -0.4848  0.4382
   26MOL   C250 9800   7.228   1.729   5.177  0.3586 -0.7730  0.0817
   26MOL   C251 9801   7.255   1.859   5.240  0.0648 -0.1404  0.2362
   26MOL   C252 9802   7.382   1.841   5.331  0.1540  0.7197  0.0791
   26MOL   C253 9803   7.458   1.968   5.366  0.1925  0.1294  0.5315
   26MOL   C254 9804   7.537   1.957   5.499 -0.5284  0.2097 -0.0703
   26MOL   C255 9805   7.460   1.738   5.259 -0.3110 -0.4396  0.5359
   26MOL   H256 9806   7.404   1.714   5.048 -0.1571 -0.0376  0.3529
   26MOL   H257 9807   7.172   1.739   5.084 -0.4271  0.3141  0.6663
   26MOL   H258 9808   7.179   1.663   5.248  0.9262 -0.9993  0.2722
   26MOL   H259 9809   7.163   1.879   5.294  0.2794 -0.3375  0.6733
   26MOL   H260 9810   7.264   1.934   5.161  0.9723 -0.4164  0.0631
   26MOL   H261 9811   7.362   1.797   5.429 -0.1632 -0.3208 -0.4446
   26MOL   H262 9812   7.392   2.054   5.378  0.3319  0.1590  1.0636
   26MOL   H263 9813   7.525   1.991   5.283  1.2735  0.6236  1.5430
   26MOL   H264 9814   7.605   1.874   5.481  0.5056  1.0506 -0.0593
   26MOL   H265 9815   7.472   1.924   5.580  1.8744 -0.2038  1.7345
   26MOL   H266 9816   7.494   1.663   5.330  1.5160  1.9676  2.2362
   26MOL   H267 9817   7.549   1.786   5.217 -1.2330 -0.2257 -1.2197
   26MOL   C268 9818   7.611   2.080   5.550 -0.2672  0.5133  0.1411
   26MOL   C269 9819   0.080   2.120   5.459 -0.2093  0.7260  0.3568
   26MOL   C270 9820   0.179   2.197   5.548 -0.5546  0.2802 -0.7551
   26MOL   C271 9821   0.136   2.174   5.690 -0.0121  0.7542  0.2456
   26MOL   C272 9822   0.256   2.160   5.783  0.1011 -0.2940 -0.0871
   26MOL   C273 9823   0.230   2.141   5.933  0.9873  0.2773  0.3884
   26MOL   C274 9824   0.026   2.062   5.686 -0.1117 -0.5317 -0.3274
   26MOL   H275 9825   7.539   2.161   5.562 -1.9738 -0.7832 -1.0102
   26MOL   H276 9826   0.138   2.043   5.407  1.0222  2.2106 -0.5210
   26MOL   H277 9827   0.046   2.184   5.378 -2.6211  0.0204  0.7647
   26MOL   H278 9828   0.283   2.177   5.522 -1.1081 -0.8669 -2.1496
   26MOL   H279 9829   0.166   2.303   5.525  0.1907  0.5519  0.0174
   26MOL   H280 9830   0.084   2.264   5.722  0.4501  0.6570  1.2954
   26MOL   H281 9831   0.332   2.238   5.772  2.1560 -2.3768 -1.2893
   26MOL   H282 9832   0.302   2.071   5.740 -0.7698  0.7561 -3.3131
   26MOL   H283 9833   0.175   2.225   5.976  1.1320  1.1798 -1.1764
   26MOL   H284 9834   0.165   2.053   5.938  0.3802  0.7359  0.5674
   26MOL   H285 9835   0.087   1.971   5.690 -1.2811 -1.2758  1.0965
   26MOL   H286 9836   7.606   2.073   5.771 -1.4121  3.1301 -1.7644
   26MOL   C287 9837   0.359   2.131   6.019 -0.4331  0.0413 -0.3073
   26MOL   C288 9838   0.333   2.101   6.169  0.2534 -0.4283 -0.3815
   26MOL   C289 9839   0.438   2.000   6.215  0.2631 -0.7001  0.1456
   26MOL   C290 9840   0.546   2.000   6.103 -0.2410 -0.5171  0.4610
   26MOL   C291 9841   0.626   1.863   6.097 -0.6435 -0.2901 -0.6854
   26MOL   C292 9842   0.738   1.870   5.996  0.0025 -0.4029 -0.0833
   26MOL   C293 9843   0.463   2.024   5.975 -0.0861 -0.1108 -0.5413
   26MOL   H294 9844   0.409   2.226   5.999 -0.2793  0.4174  1.7160
   26MOL   H295 9845   0.342   2.184   6.240  1.0193 -2.4666  1.9653
   26MOL   H296 9846   0.241   2.046   6.188  1.4850 -1.6322  2.3458
   26MOL   H297 9847   0.382   1.907   6.222 -1.0432 -0.0037 -0.7030
   26MOL   H298 9848   0.489   2.014   6.310  0.1861 -0.1405  0.1047
   26MOL   H299 9849   0.617   2.081   6.117 -0.7472 -0.4242  2.6691
   26MOL   H300 9850   0.551   1.787   6.079 -1.8415  0.2641  1.7972
   26MOL   H301 9851   0.682   1.843   6.188 -1.6480  0.6221  0.1480
   26MOL   H302 9852   0.795   1.963   5.995 -3.1770  1.6101 -0.3034
   26MOL   H303 9853   0.685   1.862   5.901 -0.1063 -0.7182  0.0031
   26MOL   H304 9854   0.431   1.925   5.942  2.0727 -0.6995 -0.9295
   26MOL   H305 9855   0.521   2.069   5.895 -1.2269  1.0698 -0.7266
   26MOL   C306 9856   0.835   1.747   5.988 -0.0323 -0.0551  0.3507
   26MOL   C307 9857   0.767   1.615   5.940 -0.3217  0.0176 -0.9795
   26MOL   C308 9858   0.880   1.540   5.866 -0.1935 -0.3169 -0.2543
   26MOL   C309 9859   0.974   1.645   5.802  0.5462  0.7292 -0.3554
   26MOL   C310 9860   0.986   1.638   5.649  0.4314 -0.7771 -0.2560
   26MOL   C311 9861   1.050   1.510   5.595 -0.1942  0.2853 -0.0731
   26MOL   C312 9862   0.919   1.779   5.855 -0.5623 -0.0857 -0.8351
   26MOL   H313 9863   0.892   1.725   6.078  0.0843 -1.1578  0.0145
   26MOL   H314 9864   0.734   1.562   6.029  2.9525 -0.5226 -0.0203
   26MOL   H315 9865   0.687   1.644   5.872  0.5572  1.5592 -1.3640
   26MOL   H316 9866   0.933   1.482   5.941  2.8001  1.5882 -0.8276
   26MOL   H317 9867   0.836   1.474   5.791  2.0044 -1.7716 -0.3152
   26MOL   H318 9868   1.076   1.631   5.838  0.5634 -2.0839 -1.3601
   26MOL   H319 9869   0.883   1.645   5.612  0.0340 -0.1389  0.9443
   26MOL   H320 9870   1.032   1.731   5.615 -1.5338  0.0516 -0.7555
   26MOL   H321 9871   0.983   1.424   5.601 -1.9534  1.5905 -0.5780
   26MOL   H322 9872   1.134   1.481   5.658  0.6206  1.3327 -0.6514
   26MOL   H323 9873   0.864   1.830   5.776  0.3838  0.5078 -1.1308
   26MOL   H324 9874   0.996   1.849   5.887 -1.8072  0.0690  1.9569
   26MOL   C325 9875   1.110   1.520   5.457 -0.2894  0.0321 -0.0907
   26MOL   C326 9876   1.229   1.626   5.441 -0.9899 -0.0915  0.4220
   26MOL   C327 9877   1.332   1.555   5.352 -0.1669  0.7145  0.4074
   26MOL   C328 9878   1.333   1.413   5.407 -0.8372  0.0712 -0.1270
   26MOL   C329 9879   1.399   1.312   5.318 -0.2385  0.6629 -0.5485
   26MOL   C330 9880   1.405   1.173   5.383 -0.0846  0.2315  0.0908
   26MOL   C331 9881   1.183   1.389   5.428  0.9957 -0.3400  0.0076
   26MOL   H332 9882   1.030   1.537   5.385 -0.9914 -1.6610  0.2501
   26MOL   H333 9883   1.269   1.647   5.540 -1.1093 -2.8944  1.1042
   26MOL   H334 9884   1.191   1.714   5.390  0.8235  0.6579  0.3304
   26MOL   H335 9885   1.291   1.556   5.251  0.8594  0.6692 -0.0162
   26MOL   H336 9886   1.431   1.601   5.345  0.1179  0.0874  0.2543
   26MOL   H337 9887   1.374   1.413   5.509  0.1588  1.4873 -0.5097
   26MOL   H338 9888   1.347   1.305   5.222 -0.6630  1.5560 -0.3946
   26MOL   H339 9889   1.500   1.338   5.285 -1.1163 -0.2331 -4.1932
   26MOL   H340 9890   1.421   1.177   5.491 -0.8968  0.3096  0.2133
   26MOL   H341 9891   1.311   1.118   5.374  0.9645 -2.1051  2.5134
   26MOL   H342 9892   1.165   1.326   5.516 -1.9807 -0.0155 -0.3159
   26MOL   H343 9893   1.136   1.333   5.348  1.8923 -0.7155 -0.2682
   26MOL   C344 9894   1.495   1.069   5.314  0.3860  1.1280 -0.0362
   26MOL   C345 9895   1.475   0.918   5.358 -0.0962 -0.2638 -0.1038
   26MOL   C346 9896   1.605   0.856   5.310  0.6235  0.2369  0.4945
   26MOL   C347 9897   1.709   0.958   5.366  0.3338 -0.0922 -0.2745
   26MOL   C348 9898   1.852   0.941   5.311 -0.8005  0.1155  0.4298
   26MOL   C349 9899   1.944   1.052   5.375 -0.2129  0.2760 -0.0660
   26MOL   C350 9900   1.648   1.091   5.335  0.5893  0.6299 -0.1994
   26MOL   H351 9901   1.471   1.060   5.208 -1.8845  1.1308  0.4474
   26MOL   H352 9902   1.381   0.880   5.317 -0.1278  0.2702 -0.5426
   26MOL   H353 9903   1.465   0.908   5.466  1.1465 -0.4648 -0.0080
   26MOL   H354 9904   1.618   0.752   5.340 -1.4062  0.0055  0.6495
   26MOL   H355 9905   1.606   0.856   5.201 -0.2780 -0.2518  0.4784
   26MOL   H356 9906   1.706   0.943   5.474  0.4372  0.9623 -0.1225
   26MOL   H357 9907   1.886   0.839   5.325  0.0177  0.2004 -0.8563
   26MOL   H358 9908   1.860   0.961   5.204  2.9711  1.3679  0.8661
   26MOL   H359 9909   1.956   1.030   5.482  3.1345 -0.6844 -0.5735
   26MOL   H360 9910   1.903   1.152   5.369  1.2220  0.9757  1.3190
   26MOL   H361 9911   1.663   1.149   5.426  0.4680  0.2604  0.0581
   26MOL   H362 9912   1.688   1.145   5.249  0.8070  0.7651 -0.0114
   26MOL   C363 9913   2.094   1.064   5.329  0.0033  0.2870  0.3717
   26MOL   C364 9914   2.169   0.933   5.305  0.5244 -0.3591 -0.1509
   26MOL   C365 9915   2.315   0.952   5.336 -0.0026  0.1964  0.1628
   26MOL   C366 9916   2.317   1.096   5.388 -0.2625  0.3377 -0.3554
   26MOL   C367 9917   2.424   1.120   5.498 -0.2743  0.0196 -0.5903
   26MOL   C368 9918   2.463   1.267   5.510 -0.2627 -0.9373 -0.6715
   26MOL   C369 9919   2.181   1.128   5.445 -0.2342  0.0584 -0.4677
   26MOL   H370 9920   2.097   1.130   5.242  1.9382  0.8465  0.8366
   26MOL   H371 9921   2.129   0.856   5.369  0.6393 -0.3050 -0.0121
   26MOL   H372 9922   2.150   0.920   5.198  0.8736  0.2582 -0.2957
   26MOL   H373 9923   2.341   0.895   5.425 -2.5881 -1.3899 -0.0612
   26MOL   H374 9924   2.389   0.929   5.259  0.1296 -0.0364  0.3609
   26MOL   H375 9925   2.333   1.154   5.297  2.9359  0.5547  0.2848
   26MOL   H376 9926   2.399   1.085   5.599  0.5007 -1.0772 -0.7810
   26MOL   H377 9927   2.518   1.072   5.471 -0.0517  1.2823 -2.1107
   26MOL   H378 9928   2.519   1.303   5.424 -0.1447  1.9611  0.5520
   26MOL   H379 9929   2.533   1.281   5.592 -0.8737 -0.7129 -0.1822
   26MOL   H380 9930   2.168   1.073   5.538  3.4415 -0.0250  0.0858
   26MOL   H381 9931   2.152   1.233   5.454 -0.9507 -0.1514 -0.3124
   26MOL   H382 9932   2.376   1.329   5.533  1.7852  1.5835  0.5391
   27MOL     C1 9933   3.925   2.351   6.415 -0.4607  0.2194  0.1373
   27MOL     C2 9934   3.930   2.243   6.310 -0.4280 -0.9586  0.2291
   27MOL     C3 9935   3.811   2.156   6.327 -0.1973 -0.1803  0.4210
   27MOL     C4 9936   3.752   2.188   6.467 -0.1273 -0.3905 -0.9416
   27MOL     C5 9937   3.705   2.078   6.556  0.3733  0.3847  0.8470
   27MOL     C6 9938   3.585   1.996   6.511  0.0808  0.1399  0.7540
   27MOL     C7 9939   3.867   2.268   6.527  0.1592 -0.6550  0.4006
   27MOL     H8 9940   4.024   2.395   6.426  0.0185 -0.5118 -1.1735
   27MOL     H9 9941   4.024   2.188   6.303 -0.3488 -0.8229  0.2293
   27MOL    H10 9942   3.932   2.286   6.210 -2.6477  0.9035  0.9537
   27MOL    H11 9943   3.734   2.149   6.250 -0.4834 -1.3535  0.8081
   27MOL    H12 9944   3.844   2.052   6.322 -1.7942 -0.6461 -1.1282
   27MOL    H13 9945   3.672   2.259   6.445 -0.1681  0.2914  1.3784
   27MOL    H14 9946   3.797   2.022   6.571  1.2937  0.9504 -2.1970
   27MOL    H15 9947   3.682   2.136   6.645 -1.2454  1.4018 -0.2136
   27MOL    H16 9948   3.502   2.066   6.501 -1.3642 -1.2772  2.4004
   27MOL    H17 9949   3.607   1.960   6.410  0.4501  0.6770  0.6404
   27MOL    H18 9950   3.826   2.338   6.600 -0.6997 -0.0088 -0.6910
   27MOL    H19 9951   3.951   2.209   6.565  0.0808 -1.7356 -1.0704
   27MOL    H20 9952   3.867   2.437   6.383 -0.2460  0.3069 -0.0120
   27MOL    C21 9953   3.553   1.886   6.612 -1.0124 -0.6443  0.2997
   27MOL    C22 9954   3.414   1.821   6.603  0.3647  0.9984  0.1862
   27MOL    C23 9955   3.427   1.679   6.652 -0.1785  0.0714 -0.0285
   27MOL    C24 9956   3.580   1.658   6.680  0.9103 -0.1540 -0.4883
   27MOL    C25 9957   3.618   1.520   6.624 -0.3299 -0.0939 -0.2482
   27MOL    C26 9958   3.770   1.499   6.630  0.8763 -0.2235  0.1140
   27MOL    C27 9959   3.651   1.767   6.596 -1.0236 -0.5271  0.1773
   27MOL    H28 9960   3.566   1.924   6.713  0.8033 -0.9502  0.1982
   27MOL    H29 9961   3.349   1.883   6.665 -0.2710  1.5674 -1.0190
   27MOL    H30 9962   3.375   1.833   6.502 -0.9565 -2.5334  0.2204
   27MOL    H31 9963   3.368   1.664   6.742 -3.4750 -0.2660 -2.1721
   27MOL    H32 9964   3.390   1.605   6.581 -1.0160 -0.8306  1.3342
   27MOL    H33 9965   3.596   1.672   6.786 -2.4736 -1.9988  0.3540
   27MOL    H34 9966   3.580   1.513   6.522 -3.5675 -2.5198  1.0101
   27MOL    H35 9967   3.560   1.442   6.674  0.7970 -0.9749 -0.2879
   27MOL    H36 9968   3.809   1.535   6.725  0.4645  1.9025 -0.4955
   27MOL    H37 9969   3.817   1.554   6.548 -0.5310  2.1055  0.8137
   27MOL    H38 9970   3.749   1.778   6.642 -1.1656  1.1729  0.1112
   27MOL    H39 9971   3.658   1.738   6.491 -1.6240 -1.0479  0.2745
   27MOL    C40 9972   3.803   1.355   6.602 -0.0679 -0.1014  0.1701
   27MOL    C41 9973   3.953   1.331   6.613 -0.5443  0.2797  0.1003
   27MOL    C42 9974   3.956   1.172   6.612 -0.1495 -0.2552  0.2748
   27MOL    C43 9975   3.816   1.121   6.652  0.0838 -0.1020  0.1095
   27MOL    C44 9976   3.764   1.031   6.540 -0.4146  0.7733  0.2110
   27MOL    C45 9977   3.652   0.932   6.590 -1.1452 -0.2340 -0.0384
   27MOL    C46 9978   3.733   1.241   6.680  0.2463  0.0108 -0.8125
   27MOL    H47 9979   3.781   1.343   6.496  1.7764 -0.4017 -0.1944
   27MOL    H48 9980   3.978   1.372   6.711 -2.0469 -0.7263  0.9123
   27MOL    H49 9981   4.011   1.391   6.542 -1.0822  1.3433  0.5382
   27MOL    H50 9982   3.970   1.156   6.505 -0.3986 -1.2543  0.3903
   27MOL    H51 9983   4.034   1.123   6.670  0.5720  0.3261 -0.1818
   27MOL    H52 9984   3.809   1.066   6.745  0.4672  1.0648  0.8324
   27MOL    H53 9985   3.737   1.099   6.459  0.6968  0.8608 -0.1026
   27MOL    H54 9986   3.842   0.964   6.502  0.0753  0.0430  2.4538
   27MOL    H55 9987   3.586   0.981   6.661 -1.6245  0.2324 -0.8028
   27MOL    H56 9988   3.701   0.857   6.652  1.2629  0.3499 -1.1658
   27MOL    H57 9989   3.635   1.226   6.635 -0.6209  0.6828  0.8066
   27MOL    H58 9990   3.720   1.276   6.782 -0.9072 -0.4708 -0.7929
   27MOL    C59 9991   3.575   0.866   6.481 -0.8244  0.0958 -0.5428
   27MOL    C60 9992   3.523   0.731   6.531  0.5333  0.1090  0.1539
   27MOL    C61 9993   3.379   0.731   6.486  0.5289 -0.7594  0.3166
   27MOL    C62 9994   3.327   0.872   6.483 -0.0490 -0.4791 -0.8430
   27MOL    C63 9995   3.221   0.881   6.381  0.4963  0.0887  0.7814
   27MOL    C64 9996   3.139   1.006   6.371  0.0270  0.2897 -0.7102
   27MOL    C65 9997   3.457   0.941   6.425  0.1703 -0.9314  0.6779
   27MOL    H66 9998   3.643   0.851   6.398 -1.7163 -2.1714 -0.8972
   27MOL    H67 9999   3.576   0.652   6.477 -0.6230 -0.4071 -0.2329
   27MOL    H6810000   3.522   0.716   6.639  2.2368  0.2019  0.1896
   27MOL    H6910001   3.378   0.690   6.385 -2.2723 -1.0233  0.4256
   27MOL    H7010002   3.320   0.666   6.550  0.9801 -0.2161  1.2980
   27MOL    H7110003   3.294   0.910   6.580  2.2211  0.6161 -0.4611
   27MOL    H7210004   3.147   0.805   6.407  0.6031 -0.9673 -1.8227
   27MOL    H7310005   3.263   0.853   6.284  2.3271 -0.8377  1.8316
   27MOL    H7410006   3.100   1.049   6.464  0.6847 -0.3940 -0.1089
   27MOL    H7510007   3.198   1.090   6.333 -3.6577  3.0144 -0.7934
   27MOL    H7610008   3.446   0.920   6.318 -2.1952 -1.4294  1.0012
   27MOL    H7710009   3.459   1.048   6.443 -0.5639 -0.4820 -1.7723
   27MOL    C7810010   3.020   0.987   6.280  0.9804 -0.0520 -0.2650
   27MOL    C7910011   2.936   1.120   6.261  0.3954  0.4656  0.3786
   27MOL    C8010012   2.962   1.166   6.122  0.0696  0.1635  0.5399
   27MOL    C8110013   2.967   1.034   6.043 -0.2528  0.1256  0.2110
   27MOL    C8210014   3.016   1.036   5.892 -0.5791  0.4124 -0.3675
   27MOL    C8310015   2.913   1.088   5.800  0.2320 -0.4759  0.3971
   27MOL    C8410016   3.054   0.948   6.129 -0.7341 -0.0961 -0.3952
   27MOL    H8510017   2.957   0.912   6.327  0.6432 -0.1506 -0.8704
   27MOL    H8610018   2.831   1.098   6.278  0.1181  1.6368  0.2288
   27MOL    H8710019   2.965   1.203   6.326  0.5023  0.2641  0.5860
   27MOL    H8810020   2.885   1.238   6.092  1.4104  0.4201 -2.4434
   27MOL    H8910021   3.056   1.220   6.118  0.0310  0.1783 -0.5078
   27MOL    H9010022   2.870   0.986   6.051  0.1843 -0.5337  1.9223
   27MOL    H9110023   3.044   0.932   5.872  0.9496  0.6575  0.4742
   27MOL    H9210024   3.109   1.092   5.885 -1.4584  1.8931 -0.3555
   27MOL    H9310025   2.890   1.191   5.828 -1.8963 -0.9006  0.3328
   27MOL    H9410026   2.815   1.041   5.809 -0.1687  0.3023  0.2412
   27MOL    H9510027   3.156   0.980   6.110 -1.0348  0.0932 -1.7096
   27MOL    H9610028   3.046   0.841   6.113  0.1326 -0.3262  0.6164
   27MOL    C9710029   2.958   1.100   5.649 -0.1233 -0.6081 -0.0732
   27MOL    C9810030   2.842   1.121   5.540  0.4917  0.4666 -0.3004
   27MOL    C9910031   2.853   1.006   5.442  0.6552 -0.2184 -0.8196
   27MOL   C10010032   3.004   0.963   5.451 -0.3580 -0.1762  0.2580
   27MOL   C10110033   3.043   0.828   5.386 -0.1010  0.4605  0.2947
   27MOL   C10210034   3.028   0.816   5.232  0.2460  0.5728 -0.3438
   27MOL   C10310035   3.035   0.975   5.598 -0.9587  0.2103 -0.1270
   27MOL   H10410036   3.032   1.180   5.648 -2.2935  1.4902  0.9630
   27MOL   H10510037   2.749   1.127   5.596  0.9640  1.6442  0.3717
   27MOL   H10610038   2.845   1.218   5.492  2.1804 -0.3151 -1.8369
   27MOL   H10710039   2.786   0.926   5.474  0.6618  0.8647  2.0787
   27MOL   H10810040   2.828   1.024   5.338 -2.5486  0.3622 -0.0047
   27MOL   H10910041   3.053   1.047   5.402 -0.3097 -0.3578 -0.0076
   27MOL   H11010042   3.148   0.810   5.411  0.4629  1.8012 -0.9978
   27MOL   H11110043   2.987   0.747   5.433  0.2079  1.8855  3.2695
   27MOL   H11210044   3.082   0.726   5.205  0.4705  1.0552 -1.5431
   27MOL   H11310045   2.923   0.794   5.214  0.7222 -0.7858 -1.6086
   27MOL   H11410046   3.004   0.875   5.627 -1.5812  0.2655 -0.5968
   27MOL   H11510047   3.143   0.979   5.616 -0.7240 -1.5460 -1.0228
   27MOL   C11610048   3.092   0.937   5.155 -0.2676  0.4609 -0.3585
   27MOL   C11710049   3.242   0.966   5.181  0.1893  0.5316  0.3610
   27MOL   C11810050   3.279   1.045   5.053 -0.0030 -0.1090 -0.0860
   27MOL   C11910051   3.174   1.013   4.945  0.2952 -0.0157  0.3336
   27MOL   C12010052   3.237   0.972   4.812 -0.2757 -0.0113 -0.0394
   27MOL   C12110053   3.141   0.966   4.692  0.1671  0.0123  0.0775
   27MOL   C12210054   3.086   0.909   5.002 -0.1956  0.3836 -0.7625
   27MOL   H12310055   3.027   1.021   5.180 -0.4115  0.4968 -0.8470
   27MOL   H12410056   3.298   0.874   5.190  0.0024  0.4105  0.2958
   27MOL   H12510057   3.264   1.009   5.279 -2.0568  2.2473  0.1493
   27MOL   H12610058   3.381   1.024   5.022  0.0917  0.2562 -0.0218
   27MOL   H12710059   3.284   1.151   5.074 -0.7897 -0.5233  2.3676
   27MOL   H12810060   3.112   1.098   4.918 -0.6675 -0.8327 -0.0872
   27MOL   H12910061   3.276   0.871   4.821 -1.7385 -0.3512  2.8477
   27MOL   H13010062   3.318   1.041   4.787  0.1802 -0.6168 -0.2519
   27MOL   H13110063   3.087   1.059   4.677  0.3876 -0.4271 -3.8012
   27MOL   H13210064   3.063   0.892   4.713 -1.6779  1.5600 -1.1389
   27MOL   H13310065   2.983   0.916   4.967 -1.0511 -0.5271  1.4976
   27MOL   H13410066   3.132   0.813   4.981  1.7657  1.1234  0.0914
   27MOL   C13510067   3.215   0.917   4.570  0.0956  0.4643 -0.4169
   27MOL   C13610068   3.125   0.881   4.449 -0.6685 -0.4195  0.0832
   27MOL   C13710069   3.223   0.899   4.331 -0.4869  0.2433  0.0572
   27MOL   C13810070   3.318   1.011   4.366 -0.2272  0.0915 -0.0775
   27MOL   C13910071   3.457   0.960   4.330  0.0412 -0.3883  0.2905
   27MOL   C14010072   3.565   1.065   4.303 -0.4012 -0.5730  0.3413
   27MOL   C14110073   3.311   1.026   4.517  0.2239 -0.1057 -0.3545
   27MOL   H14210074   3.283   0.836   4.596 -1.3788 -1.3009 -1.9065
   27MOL   H14310075   3.090   0.778   4.458 -0.9722 -0.2763  0.5719
   27MOL   H14410076   3.042   0.947   4.427 -0.7045 -0.8432 -1.1150
   27MOL   H14510077   3.283   0.808   4.322 -0.5889 -0.0766  2.3336
   27MOL   H14610078   3.185   0.935   4.235  1.7305 -0.3151 -1.0621
   27MOL   H14710079   3.288   1.102   4.314  0.8632  0.0240 -0.8516
   27MOL   H14810080   3.455   0.919   4.229  1.8152 -1.2913  0.5943
   27MOL   H14910081   3.491   0.876   4.390  1.0240  0.3739  0.8275
   27MOL   H15010082   3.551   1.100   4.201  0.9288 -2.2162 -0.4363
   27MOL   H15110083   3.568   1.140   4.383  0.5445  0.9397 -1.0773
   27MOL   H15210084   3.276   1.126   4.544 -1.3348 -0.8791  0.5542
   27MOL   H15310085   3.409   1.021   4.566 -0.7038 -1.0519  1.4690
   27MOL   C15410086   3.704   0.991   4.298  0.3569 -0.9262  0.4070
   27MOL   C15510087   3.815   1.080   4.240 -0.1734 -0.5354 -0.1160
   27MOL   C15610088   3.877   1.005   4.120 -0.8043  1.2536 -0.0876
   27MOL   C15710089   3.848   0.856   4.151 -0.0712  0.1094  0.6182
   27MOL   C15810090   3.879   0.766   4.035  0.5202 -0.8341  0.7041
   27MOL   C15910091   3.849   0.615   4.053  0.4495  0.5140  0.7781
   27MOL   C16010092   3.710   0.867   4.211  0.8956 -0.4150 -0.4384
   27MOL   H16110093   3.725   0.960   4.400 -0.5600  1.5016  1.3580
   27MOL   H16210094   3.771   1.174   4.208 -2.3202 -0.6379  2.3481
   27MOL   H16310095   3.882   1.095   4.324  1.6870 -2.2712 -1.2356
   27MOL   H16410096   3.833   1.036   4.024  0.7509  0.0153 -1.2225
   27MOL   H16510097   3.983   1.029   4.116 -0.5032 -0.1276 -1.0053
   27MOL   H16610098   3.908   0.831   4.238 -1.0964 -0.6736  1.1167
   27MOL   H16710099   3.984   0.777   4.006  0.0080 -0.9328 -1.2616
   27MOL   H16810100   3.825   0.810   3.952 -0.1451 -0.8537  1.1291
   27MOL   H16910101   3.742   0.601   4.072 -0.1677  4.0797  0.2202
   27MOL   H17010102   3.880   0.556   3.966  0.5777 -0.8602  1.7461
   27MOL   H17110103   3.683   0.776   4.265 -0.0321  0.5120  0.6746
   27MOL   H17210104   3.637   0.885   4.133  1.1770  2.3488 -0.1079
   27MOL   C17310105   3.935   0.550   4.173 -0.0504 -0.1183  0.1917
   27MOL   C17410106   3.858   0.492   4.284  0.1599 -0.6112 -0.0398
   27MOL   C17510107   3.921   0.353   4.321  0.1748  0.5715  0.0649
   27MOL   C17610108   4.063   0.357   4.260 -0.1710 -0.0708 -0.7489
   27MOL   C17710109   4.108   0.215   4.218 -0.2065 -1.0569 -0.3307
   27MOL   C17810110   4.233   0.218   4.128 -0.2508 -0.2712 -0.0389
   27MOL   C17910111   4.041   0.441   4.139  0.3868  0.9790 -0.4303
   27MOL   H18010112   4.000   0.625   4.218  0.0055  1.6886 -2.7928
   27MOL   H18110113   3.752   0.491   4.258  0.4036 -0.5444 -1.0325
   27MOL   H18210114   3.864   0.570   4.360  3.3039 -1.2283  0.4214
   27MOL   H18310115   3.919   0.335   4.429  0.1445 -2.2203 -0.3535
   27MOL   H18410116   3.860   0.268   4.290 -1.3124  1.5083  0.4247
   27MOL   H18510117   4.132   0.413   4.323 -2.9074  2.0238  0.4686
   27MOL   H18610118   4.027   0.173   4.159  0.8920  0.8563 -3.3404
   27MOL   H18710119   4.121   0.161   4.311  0.7648 -0.4027 -0.0712
   27MOL   H18810120   4.314   0.279   4.168  0.8206 -0.1208 -2.3421
   27MOL   H18910121   4.204   0.262   4.032  1.4126  1.1205  0.0587
   27MOL   H19010122   3.979   0.384   4.069  0.4058  0.2208  0.1695
   27MOL   H19110123   4.130   0.486   4.095 -1.5739  3.4654 -2.0307
   27MOL   C19210124   4.297   0.077   4.104 -0.3933 -1.1126  0.1577
   27MOL   C19310125   4.406   0.093   3.997  0.0714  0.8594 -0.5872
   27MOL   C19410126   4.346   0.040   3.870 -0.0218 -0.6953 -0.7338
   27MOL   C19510127   4.202   7.640   3.900 -0.0400 -0.1150 -0.0270
   27MOL   C19610128   4.168   7.505   3.837  0.3879 -0.6752 -0.2926
   27MOL   C19710129   4.193   7.494   3.687 -0.0316  0.1603 -0.5726
   27MOL   C19810130   4.212   7.615   4.047 -0.1915  0.0994 -0.3162
   27MOL   H19910131   4.345   0.045   4.196  1.6488 -0.4057 -0.6207
   27MOL   H20010132   4.424   0.199   3.980 -1.4856  0.7871 -2.8726
   27MOL   H20110133   4.495   0.032   4.016 -2.2013 -2.9413 -1.5177
   27MOL   H20210134   4.413   7.616   3.822  0.6441  0.5543 -1.6670
   27MOL   H20310135   4.335   0.114   3.792  0.8529 -0.2130 -0.4042
   27MOL   H20410136   4.140   0.076   3.866 -0.2495 -0.7324 -1.1888
   27MOL   H20510137   4.059   7.512   3.838  0.4680  0.7274  0.4701
   27MOL   H20610138   4.192   7.413   3.890  1.2538  0.8419  2.0356
   27MOL   H20710139   4.136   7.412   3.643  0.2914  0.7670 -2.1568
   27MOL   H20810140   4.300   7.481   3.672 -0.0201  1.0172 -1.2652
   27MOL   H20910141   4.260   7.521   4.075 -2.2053 -0.4078  1.5335
   27MOL   H21010142   4.110   7.619   4.085  0.9933  2.3710  2.8135
   27MOL   C21110143   4.145   7.613   3.597 -0.5089 -0.1240  0.1852
   27MOL   C21210144   3.993   7.631   3.593 -0.2619  0.4986 -0.3298
   27MOL   C21310145   3.975   0.079   3.476  0.5342 -0.3304  0.2994
   27MOL   C21410146   4.101   0.072   3.392 -0.2782  0.1568  0.1509
   27MOL   C21510147   4.083   0.060   3.236  0.1023  0.3451  0.2807
   27MOL   C21610148   4.218   0.035   3.161  0.9179 -0.0524  0.0687
   27MOL   C21710149   4.180   7.602   3.455 -0.1661 -0.1672 -0.1420
   27MOL   H21810150   4.196   0.058   3.627 -1.7734  0.3004  1.0671
   27MOL   H21910151   3.942   7.538   3.567  0.0143  0.1740  0.2831
   27MOL   H22010152   3.963   0.027   3.688  1.2727 -0.6861  0.7182
   27MOL   H22110153   3.883   0.056   3.421 -0.9838  1.3637  2.0826
   27MOL   H22210154   3.952   0.178   3.516  4.4639  0.4841  0.6977
   27MOL   H22310155   4.159   0.161   3.416 -4.1583  2.7289  0.3313
   27MOL   H22410156   4.034   0.152   3.203  0.3503  0.1513 -0.6387
   27MOL   H22510157   4.020   7.621   3.214  0.9721 -0.4018  0.6842
   27MOL   H22610158   4.290   0.109   3.197 -1.2323  2.2377 -0.1894
   27MOL   H22710159   4.264   7.586   3.182 -0.8124 -0.9336 -0.1250
   27MOL   H22810160   4.288   7.608   3.445  0.2909 -1.0073  3.7705
   27MOL   H22910161   4.146   7.515   3.399  1.0245 -0.3462 -0.6092
   27MOL   C23010162   4.209   0.056   3.011  0.4121 -0.3897  0.5519
   27MOL   C23110163   4.334   0.002   2.941  0.0032 -0.7867 -0.9967
   27MOL   C23210164   4.309   0.061   2.802  0.2670 -0.4263  0.0476
   27MOL   C23310165   4.242   0.206   2.823  0.4204 -0.2231  0.0173
   27MOL   C23410166   4.143   0.231   2.715 -0.2390  0.0501  1.6340
   27MOL   C23510167   4.215   0.237   2.576 -0.0709 -0.0000  0.3628
   27MOL   C23610168   4.184   0.202   2.968 -0.0160  0.0471  1.1958
   27MOL   H23710169   4.126   7.646   2.969 -0.8949  1.1598  0.9719
   27MOL   H23810170   4.422   0.053   2.980 -0.4089 -1.5547  1.0235
   27MOL   H23910171   4.350   7.542   2.942 -0.9627 -0.9621 -2.8692
   27MOL   H24010172   4.247   7.643   2.741 -0.6780  0.6419 -0.1435
   27MOL   H24110173   4.404   0.065   2.749  0.2890 -0.5643  0.0757
   27MOL   H24210174   4.320   0.282   2.815  0.9830 -0.5548  2.0153
   27MOL   H24310175   4.106   0.333   2.728  0.1272 -0.0758  3.7409
   27MOL   H24410176   4.065   0.155   2.715  1.0010 -1.2783 -0.0673
   27MOL   H24510177   4.255   0.339   2.573 -0.6971  0.3213  2.2595
   27MOL   H24610178   4.292   0.163   2.553 -1.1050  0.1342 -4.0431
   27MOL   H24710179   4.078   0.227   2.963  0.0466  0.5132  2.0635
   27MOL   H24810180   4.239   0.272   3.031  1.1400  1.6257 -1.4761
   27MOL   C24910181   4.107   0.247   2.462 -0.0433 -0.4596  0.4632
   27MOL   C25010182   4.128   0.312   2.329 -0.1611 -0.0099 -0.3337
   27MOL   C25110183   4.034   0.251   2.220  0.6336  0.3982  0.4209
   27MOL   C25210184   4.017   0.106   2.259  1.2260  0.1062 -0.0907
   27MOL   C25310185   3.892   0.051   2.198  0.1647 -0.4205 -0.7202
   27MOL   C25410186   3.906   0.031   2.045  0.0438 -0.1976 -0.1607
   27MOL   C25510187   4.043   0.108   2.414 -0.3537 -0.3745 -0.1483
   27MOL   H25610188   4.016   0.289   2.505  0.4277 -0.8138  1.8363
   27MOL   H25710189   4.125   0.420   2.336  1.6626  0.2640 -3.0062
   27MOL   H25810190   4.231   0.282   2.307  0.1584 -0.5602  1.7854
   27MOL   H25910191   4.071   0.253   2.118  1.4915  1.3789  0.7333
   27MOL   H26010192   3.936   0.297   2.230  0.3516 -0.1353  0.1639
   27MOL   H26110193   4.096   0.039   2.225  0.6315 -0.5253 -0.2354
   27MOL   H26210194   3.802   0.107   2.223  0.0428 -0.8565 -0.1586
   27MOL   H26310195   3.883   7.596   2.237 -0.2898 -0.0774  0.1005
   27MOL   H26410196   3.988   7.612   2.016 -0.1160 -0.4636 -0.0048
   27MOL   H26510197   3.923   0.130   2.003 -0.8666  0.5054  1.1392
   27MOL   H26610198   4.104   0.025   2.449 -2.1402 -1.5702  0.1768
   27MOL   H26710199   3.949   0.102   2.468  0.0124 -0.6001  0.4567
   27MOL   C26810200   3.782   7.629   1.971  0.4949  0.2404 -0.6020
   27MOL   C26910201   3.727   7.489   2.010 -0.0395  0.5168  0.0321
   27MOL   C27010202   3.637   7.446   1.894 -0.0363  0.0755  0.2798
   27MOL   C27110203   3.691   7.526   1.769  0.3569 -0.4151 -1.3993
   27MOL   C27210204   3.758   7.439   1.666  0.0883 -0.6793  0.0853
   27MOL   C27310205   3.799   7.505   1.536 -0.2677 -0.6427  0.9792
   27MOL   C27410206   3.793   7.628   1.821 -0.3472 -0.5219  0.7394
   27MOL   H27510207   3.701   0.051   1.994 -0.0023 -0.7618  0.7900
   27MOL   H27610208   3.812   7.422   2.005 -0.1403  0.2986  1.0380
   27MOL   H27710209   3.677   7.483   2.107 -2.3958  0.9666 -1.1179
   27MOL   H27810210   3.628   7.337   1.896 -0.7588  0.1426  2.7015
   27MOL   H27910211   3.531   7.473   1.897 -0.3037 -0.7992 -1.0032
   27MOL   H28010212   3.608   7.580   1.724 -0.3880  0.7830  1.2712
   27MOL   H28110213   3.693   7.353   1.652 -2.6936  1.0272  2.0393
   27MOL   H28210214   3.851   7.403   1.712  0.6981  1.2821  0.4533
   27MOL   H28310215   3.710   7.502   1.473 -0.2437  0.1645  0.9004
   27MOL   H28410216   3.834   7.607   1.555  0.3594 -0.8148  0.7775
   27MOL   H28510217   3.897   7.616   1.792 -0.2339  3.4154 -0.8000
   27MOL   H28610218   3.764   0.078   1.782 -1.6793 -0.9072  0.7150
   27MOL   C28710219   3.906   7.425   1.447 -0.3213 -0.2228  0.3162
   27MOL   C28810220   3.908   7.455   1.298 -0.5250 -0.1400 -0.0843
   27MOL   C28910221   4.043   7.400   1.253 -0.2579  0.0401  0.3890
   27MOL   C29010222   4.139   7.409   1.375 -0.3263 -0.0866 -0.9416
   27MOL   C29110223   4.249   7.507   1.355  0.3912 -0.2146 -0.1501
   27MOL   C29210224   4.349   7.482   1.237 -0.2237 -0.5014 -0.0188
   27MOL   C29310225   4.046   7.452   1.492  0.3876 -0.1141 -0.0536
   27MOL   H29410226   3.890   7.320   1.471 -1.9829 -0.0035  0.2233
   27MOL   H29510227   3.823   7.424   1.237 -0.4545  1.0700 -0.8087
   27MOL   H29610228   3.909   7.562   1.280 -2.1543  0.1131  1.1472
   27MOL   H29710229   4.073   7.452   1.162 -1.4586  0.8377  0.4373
   27MOL   H29810230   4.040   7.296   1.222 -0.1616 -0.7369  2.9188
   27MOL   H29910231   4.184   7.313   1.399 -1.2667  0.1898  2.1641
   27MOL   H30010232   4.300   7.505   1.451  1.2964  0.7826 -0.6034
   27MOL   H30110233   4.211   7.609   1.343  0.7612 -0.1822 -1.1441
   27MOL   H30210234   4.288   7.457   1.150 -1.6414  0.8196  0.5677
   27MOL   H30310235   4.397   7.389   1.265 -0.2087  0.1270  2.0801
   27MOL   H30410236   4.055   7.560   1.505  2.1039 -0.3001  0.5344
   27MOL   H30510237   4.066   7.402   1.587  1.7016  0.1674 -0.1676
   27MOL   C30610238   4.432   7.609   1.208 -0.2180  0.0760 -0.3487
   27MOL   C30710239   4.492   0.028   1.333  0.0211 -0.1827 -0.3625
   27MOL   C30810240   4.640   0.067   1.304  0.3441 -0.3619  0.0448
   27MOL   C30910241   4.666   0.039   1.158 -0.0893  0.4310  0.5278
   27MOL   C31010242   4.815   0.002   1.120  0.5084  0.3940 -0.4639
   27MOL   C31110243   4.821   7.613   0.972 -0.1691  0.3916 -0.1568
   27MOL   C31210244   4.563   7.576   1.134  0.4288 -0.0045  0.1138
   27MOL   H31310245   4.374   0.039   1.157  0.7966  1.6552  0.8181
   27MOL   H31410246   4.435   0.116   1.365  2.2476  0.2287  2.7128
   27MOL   H31510247   4.492   7.610   1.421 -2.3809 -0.9954 -0.9377
   27MOL   H31610248   4.660   0.171   1.329 -0.8847  0.0436 -0.5903
   27MOL   H31710249   4.711   0.011   1.365  0.3636  0.7840  1.0976
   27MOL   H31810250   4.638   0.122   1.092 -2.2331  1.0041  2.1164
   27MOL   H31910251   4.878   0.090   1.127  2.0327 -0.8473  2.6137
   27MOL   H32010252   4.847   7.570   1.187 -1.2952  1.5594  1.8648
   27MOL   H32110253   4.786   0.043   0.904  0.7316  0.7645 -0.2067
   27MOL   H32210254   4.757   7.525   0.958  2.0232 -0.8221 -3.1278
   27MOL   H32310255   4.603   7.485   1.178 -2.5100 -1.0277  0.8076
   27MOL   H32410256   4.536   7.549   1.032  0.1700 -0.6524  0.3489
   27MOL   C32510257   4.956   7.562   0.926  0.0250  0.0585 -0.1449
   27MOL   C32610258   5.019   7.439   0.998 -0.0162  0.0752  0.0690
   27MOL   C32710259   5.133   7.408   0.906 -0.3014 -0.1518 -0.0291
   27MOL   C32810260   5.096   7.450   0.758  0.1747  1.0778  0.3832
   27MOL   C32910261   5.222   7.501   0.685  0.0616  0.3852  0.4291
   27MOL   C33010262   5.205   7.530   0.526  0.4295 -0.1028 -0.2110
   27MOL   C33110263   4.967   7.539   0.775 -0.9535 -0.2728  0.2087
   27MOL   H33210264   5.029   7.641   0.940  1.0124 -1.0594  1.0144
   27MOL   H33310265   4.949   7.355   0.991 -0.6140  0.6878 -1.4136
   27MOL   H33410266   5.051   7.455   1.101 -0.0601  2.0771 -0.2123
   27MOL   H33510267   5.204   7.483   0.942 -0.5526 -0.2797  0.7378
   27MOL   H33610268   5.180   7.310   0.912  0.5089  0.1757 -0.8888
   27MOL   H33710269   5.076   7.361   0.697  1.6986  0.1831  1.1618
   27MOL   H33810270   5.281   7.573   0.740 -0.2338  0.5229  0.5658
   27MOL   H33910271   5.293   7.419   0.680  1.6425  1.7404  0.5307
   27MOL   H34010272   5.165   7.438   0.483 -0.9782 -0.1326  1.1085
   27MOL   H34110273   5.133   7.609   0.502  2.5080  1.6815 -0.7112
   27MOL   H34210274   4.872   7.491   0.751 -1.8571  0.4702  2.2445
   27MOL   H34310275   4.975   7.635   0.724 -1.2525  0.1914  1.0370
   27MOL   C34410276   5.331   7.538   0.452  0.8276  0.8243 -0.3500
   27MOL   C34510277   5.406   0.017   0.496 -0.4406  0.1696  0.1559
   27MOL   C34610278   5.517   0.037   0.393  0.4057  0.4723 -0.2706
   27MOL   C34710279   5.435   0.017   0.266  0.6162 -0.1797 -0.5619
   27MOL   C34810280   5.520   7.632   0.141  0.8251  0.2469  0.4215
   27MOL   C34910281   5.448   0.017   0.009  0.0629  0.2002  0.6550
   27MOL   C35010282   5.316   7.562   0.305 -0.2003  0.2367  0.5231
   27MOL   H35110283   5.382   7.444   0.471 -1.1554 -0.4631 -1.2791
   27MOL   H35210284   5.437   0.013   0.601 -1.7011 -1.1930  0.4866
   27MOL   H35310285   5.340   0.103   0.482 -0.9623 -0.0645  1.1496
   27MOL   H35410286   5.571   0.131   0.398  1.3388 -0.0594 -0.3634
   27MOL   H35510287   5.596   7.615   0.420 -0.9524 -1.0502 -0.0741
   27MOL   H35610288   5.397   0.118   0.249  0.0345 -0.3522 -0.3113
   27MOL   H35710289   5.603   0.054   0.156 -1.1054  2.4671  1.1813
   27MOL   H35810290   5.546   7.526   0.149 -0.3878 -0.0503  0.5124
   27MOL   H35910291   5.426   0.124   0.009 -2.9263 -0.3583  2.2712
   27MOL   H36010292   5.354   7.609   0.016 -0.1894  0.5256 -0.0644
   27MOL   H36110293   5.214   7.588   0.274 -1.0705 -1.8852  1.5183
   27MOL   H36210294   5.339   7.471   0.250 -0.5421 -0.5586  1.6743
   27MOL   C36310295   5.515   7.627   7.524  0.7402 -0.4162  0.2938
   27MOL   C36410296   5.441   0.017   7.395  0.0945  0.0897  0.6734
   27MOL   C36510297   5.413   7.534   7.317 -0.3577  0.6981  0.4624
   27MOL   C36610298   5.512   7.436   7.368  0.4140 -0.2891  0.1300
   27MOL   C36710299   5.478   7.289   7.335 -0.1148 -0.0644  0.1620
   27MOL   C36810300   5.563   7.181   7.407 -1.2878  0.2781 -0.0439
   27MOL   C36910301   5.523   7.471   7.519  0.4781  0.1345  0.0772
   27MOL   H37010302   5.612   0.028   7.519  1.0258 -1.0363 -0.1610
   27MOL   H37110303   5.356   0.079   7.423 -0.7251 -1.8359  2.5586
   27MOL   H37210304   5.491   0.090   7.330 -1.8658  2.7785  2.0956
   27MOL   H37310305   5.311   7.498   7.332  0.7880 -1.6547  3.2080
   27MOL   H37410306   5.435   7.550   7.212  0.7862  0.6360  0.6809
   27MOL   H37510307   5.607   7.452   7.317  0.3316  3.3445  0.9866
   27MOL   H37610308   5.377   7.269   7.370 -0.6430  1.0911 -0.7000
   27MOL   H37710309   5.488   7.274   7.228 -2.6880  0.0651 -0.1290
   27MOL   H37810310   5.665   7.219   7.395  0.1041 -2.7266  1.6181
   27MOL   H37910311   5.562   7.084   7.357  0.4739 -0.1821  0.7368
   27MOL   H38010312   5.438   7.423   7.567 -0.4852  0.2764 -1.4433
   27MOL   H38110313   5.618   7.433   7.557 -0.8378 -3.3847  0.0659
   27MOL   H38210314   5.528   7.179   7.511 -2.1043 -0.5500 -0.3274
   28MOL     C110315   3.072   0.264   3.376 -0.4083  0.6634  0.3581
   28MOL     C210316   3.206   0.322   3.425  0.1979  0.5062  0.0895
   28MOL     C310317   3.176   0.456   3.499 -0.0826  0.0199 -0.2240
   28MOL     C410318   3.028   0.450   3.527  0.6920 -0.9819 -0.2529
   28MOL     C510319   2.954   0.580   3.533  0.3031  0.3207 -0.0226
   28MOL     C610320   3.004   0.679   3.648 -0.3021  0.2388 -0.2383
   28MOL     C710321   2.959   0.359   3.420 -0.9112  0.0106  0.2623
   28MOL     H810322   3.078   0.245   3.269  0.9881 -0.7205  0.6604
   28MOL     H910323   3.274   0.330   3.341 -0.0295  1.2635 -0.0264
   28MOL    H1010324   3.254   0.248   3.490 -3.3511 -1.6047  0.4498
   28MOL    H1110325   3.237   0.460   3.589 -1.1270  0.7343  0.4539
   28MOL    H1210326   3.203   0.536   3.429 -0.0556  1.1927  1.1030
   28MOL    H1310327   3.019   0.398   3.622  2.2277 -1.4842 -0.3783
   28MOL    H1410328   2.962   0.635   3.440 -0.0740 -0.2890 -0.4116
   28MOL    H1510329   2.847   0.566   3.548  0.2482  0.6436 -0.1193
   28MOL    H1610330   3.048   0.635   3.738  1.9874  0.6701 -1.1199
   28MOL    H1710331   3.088   0.740   3.615 -1.3391  1.7727 -0.0628
   28MOL    H1810332   2.880   0.294   3.459 -0.6559  0.0123  0.7852
   28MOL    H1910333   2.930   0.416   3.332  0.9258 -0.0221 -0.3754
   28MOL    H2010334   3.062   0.165   3.421 -0.9547 -0.8573 -2.9843
   28MOL    C2110335   2.896   0.785   3.685 -0.1076  0.2664 -0.0186
   28MOL    C2210336   2.928   0.879   3.805  0.3391  0.5575  0.6013
   28MOL    C2310337   2.867   1.015   3.772  0.2074  0.8521  0.5463
   28MOL    C2410338   2.783   0.988   3.644 -0.3030  0.0742  0.2043
   28MOL    C2510339   2.770   1.106   3.542  0.2270 -0.0881 -0.1187
   28MOL    C2610340   2.669   1.073   3.430  0.2249 -0.5682  0.0491
   28MOL    C2710341   2.857   0.873   3.571 -0.1354  0.2749 -0.4155
   28MOL    H2810342   2.808   0.727   3.715 -0.8411  0.7619 -1.2155
   28MOL    H2910343   2.880   0.835   3.892  1.0122  2.5690  2.0190
   28MOL    H3010344   3.036   0.876   3.815  0.1968  1.0575  2.5070
   28MOL    H3110345   2.814   1.048   3.861 -0.4271  0.9880  0.1200
   28MOL    H3210346   2.945   1.085   3.741  1.2402 -0.8566 -0.8145
   28MOL    H3310347   2.686   0.950   3.676 -0.4906 -0.9118 -1.4652
   28MOL    H3410348   2.863   1.145   3.502  0.5572 -0.2042  0.5341
   28MOL    H3510349   2.739   1.192   3.600  2.0739  1.0629 -0.8064
   28MOL    H3610350   2.592   1.018   3.483  2.1073  0.5076  4.1054
   28MOL    H3710351   2.715   0.998   3.366 -0.2886 -0.1240 -0.8566
   28MOL    H3810352   2.792   0.826   3.497  0.6765 -2.0448  0.3193
   28MOL    H3910353   2.947   0.909   3.521 -0.1147  0.6713 -0.0911
   28MOL    C4010354   2.612   1.193   3.345 -0.1764 -0.5835  0.2918
   28MOL    C4110355   2.712   1.230   3.240  0.1010 -0.4562 -0.2957
   28MOL    C4210356   2.667   1.172   3.105 -0.4052 -0.1004  0.8878
   28MOL    C4310357   2.535   1.103   3.128  0.8132  0.5667 -0.6146
   28MOL    C4410358   2.435   1.110   3.013 -0.4209 -0.3289 -0.3762
   28MOL    C4510359   2.475   1.045   2.887  0.0233  0.2357 -0.0092
   28MOL    C4610360   2.484   1.161   3.261  0.5601  0.5521  0.0657
   28MOL    H4710361   2.599   1.286   3.400  0.3775 -0.3379  0.0082
   28MOL    H4810362   2.812   1.211   3.279  0.1502  0.8628  0.2404
   28MOL    H4910363   2.693   1.336   3.225  0.2765 -0.3582  0.1650
   28MOL    H5010364   2.646   1.249   3.031  0.5332 -1.2155 -0.5668
   28MOL    H5110365   2.740   1.102   3.063 -0.3641 -0.1631  1.0641
   28MOL    H5210366   2.555   0.996   3.137 -1.2461  0.3612  1.8828
   28MOL    H5310367   2.341   1.064   3.045 -0.4882 -0.1536 -0.3176
   28MOL    H5410368   2.400   1.210   2.987 -2.1788 -0.8392 -0.0486
   28MOL    H5510369   2.498   0.939   2.898 -1.2970  0.1123  1.6717
   28MOL    H5610370   2.563   1.088   2.838  0.4881  0.9589  1.4344
   28MOL    H5710371   2.435   1.254   3.233 -1.8553 -0.6035  0.2401
   28MOL    H5810372   2.418   1.098   3.322 -2.1085  2.1041 -1.1285
   28MOL    C5910373   2.351   1.042   2.797  0.6111 -0.2216  0.1223
   28MOL    C6010374   2.374   0.997   2.654  0.2225 -0.3029  0.2541
   28MOL    C6110375   2.243   0.924   2.609 -0.5602  0.4732  0.8112
   28MOL    C6210376   2.220   0.842   2.730  0.7170  0.3665 -0.1410
   28MOL    C6310377   2.077   0.777   2.736 -0.6168  0.2933  0.2991
   28MOL    C6410378   2.039   0.700   2.866 -0.1238 -0.0720 -0.0952
   28MOL    C6510379   2.251   0.934   2.852  0.1859 -0.2464  0.3674
   28MOL    H6610380   2.304   1.140   2.795 -0.0301 -0.4753  1.5891
   28MOL    H6710381   2.388   1.085   2.590  0.9079  0.8420  1.9354
   28MOL    H6810382   2.462   0.933   2.657  0.8834  0.6391  2.2981
   28MOL    H6910383   2.164   0.994   2.582  0.8324  1.1752 -1.6156
   28MOL    H7010384   2.271   0.865   2.521  1.0840  2.0875  0.2073
   28MOL    H7110385   2.283   0.753   2.720 -0.3493 -0.5474  1.2055
   28MOL    H7210386   2.060   0.716   2.647  0.1191  1.4030 -0.6078
   28MOL    H7310387   2.002   0.855   2.733 -1.5467 -0.5668  0.7310
   28MOL    H7410388   2.055   0.757   2.958  1.6235 -1.9416  0.7945
   28MOL    H7510389   1.931   0.685   2.867 -0.3575  1.3668 -1.5592
   28MOL    H7610390   2.155   0.977   2.881  0.8845  1.0542  0.7970
   28MOL    H7710391   2.294   0.867   2.926 -2.1033 -1.1214  0.9441
   28MOL    C7810392   2.112   0.571   2.892  0.2236 -0.0646  0.3013
   28MOL    C7910393   2.099   0.515   3.028 -0.9414  0.1143  0.0527
   28MOL    C8010394   2.029   0.377   3.020 -0.6652 -0.6432  0.0259
   28MOL    C8110395   2.060   0.332   2.872 -0.2114 -0.1215 -0.0681
   28MOL    C8210396   1.950   0.239   2.807  0.2150  0.4123  0.1983
   28MOL    C8310397   1.968   0.096   2.849  0.1100  0.1231 -0.3830
   28MOL    C8410398   2.057   0.461   2.793 -0.2650 -1.0941 -0.0021
   28MOL    H8510399   2.212   0.583   2.850 -1.5869  1.7634 -3.7708
   28MOL    H8610400   2.191   0.489   3.081 -1.2038 -0.7902  0.0760
   28MOL    H8710401   2.041   0.574   3.099  1.7383  1.4041  1.2458
   28MOL    H8810402   2.070   0.306   3.092 -2.8790 -0.3014  1.6817
   28MOL    H8910403   1.922   0.388   3.036 -0.6950 -2.1383  1.0216
   28MOL    H9010404   2.159   0.289   2.861  0.6981  1.9061 -0.0505
   28MOL    H9110405   1.968   0.246   2.699  1.5713 -2.8740  0.1478
   28MOL    H9210406   1.851   0.283   2.823 -1.0615 -1.9168 -0.9590
   28MOL    H9310407   1.908   0.089   2.940 -0.6267 -2.3747 -1.0405
   28MOL    H9410408   2.070   0.061   2.867 -0.1006  0.6053  1.8341
   28MOL    H9510409   1.957   0.491   2.762  0.6777  1.1083 -1.0202
   28MOL    H9610410   2.122   0.448   2.706 -0.8345 -0.1092 -0.5877
   28MOL    C9710411   1.906   7.640   2.755 -0.0787  1.0493 -0.1621
   28MOL    C9810412   1.907   7.500   2.819 -0.1169 -0.3677  0.4982
   28MOL    C9910413   2.007   7.416   2.737  0.2714 -0.2273 -0.2381
   28MOL   C10010414   1.987   7.477   2.600  0.0543  0.8792  0.3622
   28MOL   C10110415   2.082   7.433   2.487  0.2512 -0.0038 -0.3286
   28MOL   C10210416   2.067   7.284   2.459  0.2667 -0.4019 -0.4092
   28MOL   C10310417   1.979   7.623   2.622 -0.1939  0.0164  0.3569
   28MOL   H10410418   1.803   0.024   2.736 -0.1838  0.8949  0.1484
   28MOL   H10510419   1.921   7.484   2.926  0.2717 -0.7775  0.3887
   28MOL   H10610420   1.810   7.450   2.806 -0.1587  0.2338 -1.5856
   28MOL   H10710421   2.111   7.417   2.769  0.6056 -2.6370 -1.1220
   28MOL   H10810422   1.975   7.312   2.744 -1.8485  0.4476  0.5107
   28MOL   H10910423   1.889   7.447   2.562  1.2472 -0.5345 -1.6639
   28MOL   H11010424   2.056   7.491   2.398 -1.3267 -0.5475 -0.2278
   28MOL   H11110425   2.187   7.455   2.507  0.3641 -0.7241 -0.1255
   28MOL   H11210426   2.074   7.235   2.556  0.9669  0.9186  0.2275
   28MOL   H11310427   1.968   7.270   2.417  0.6440 -1.5978 -0.8979
   28MOL   H11410428   2.078   0.022   2.629 -0.4609  0.5320  0.7484
   28MOL   H11510429   1.920   0.036   2.554 -0.3410  0.5629  0.9662
   28MOL   C11610430   2.173   7.226   2.369 -0.0493  0.6580  0.4324
   28MOL   C11710431   2.150   7.073   2.344  0.3131 -0.0755  0.1127
   28MOL   C11810432   2.218   7.030   2.214 -0.0231 -0.8644 -0.1166
   28MOL   C11910433   2.252   7.170   2.149  0.5280  0.4125  0.6938
   28MOL   C12010434   2.232   7.158   1.992 -0.7682  0.2697 -0.3701
   28MOL   C12110435   2.252   7.299   1.924  0.5819  0.4806 -0.5941
   28MOL   C12210436   2.176   7.279   2.221  0.1463 -0.5900 -0.1879
   28MOL   H12310437   2.273   7.227   2.414  0.1916  1.1286 -0.1079
   28MOL   H12410438   2.043   7.068   2.321  0.5373 -0.9133 -0.7478
   28MOL   H12510439   2.160   7.014   2.436 -1.7407  0.2693  0.5835
   28MOL   H12610440   2.151   6.963   2.160 -0.5594 -2.3494  2.3280
   28MOL   H12710441   2.310   6.974   2.233  0.2882 -0.4652 -0.4446
   28MOL   H12810442   2.358   7.189   2.168  0.7411  0.0024 -0.0765
   28MOL   H12910443   2.132   7.119   1.974 -0.8244  0.1643  0.1417
   28MOL   H13010444   2.309   7.093   1.952 -1.2688  0.5236 -1.7531
   28MOL   H13110445   2.346   7.347   1.950  1.4933 -1.6010  0.0446
   28MOL   H13210446   2.178   7.362   1.974  0.5314  0.9766 -1.2920
   28MOL   H13310447   2.232   7.373   2.218  0.2937 -0.6835 -0.3931
   28MOL   H13410448   2.075   7.292   2.181  1.1187  0.5473 -2.3723
   28MOL   C13510449   2.231   7.300   1.773  0.6319  0.4747  0.4948
   28MOL   C13610450   2.087   7.271   1.732 -0.7758 -0.3428  0.0919
   28MOL   C13710451   2.036   7.368   1.625  0.2521 -0.3151  0.3062
   28MOL   C13810452   2.128   7.490   1.652  0.1415  0.0511  0.2365
   28MOL   C13910453   2.144   7.587   1.533  0.3229  0.5584 -0.0081
   28MOL   C14010454   2.016   0.022   1.513 -0.0955  0.6325  0.6794
   28MOL   C14110455   2.263   7.433   1.698  0.4830  0.2724  0.0421
   28MOL   H14210456   2.283   7.209   1.739  0.6682  0.6994 -0.0633
   28MOL   H14310457   2.062   7.172   1.695 -0.4264  0.1287 -1.4531
   28MOL   H14410458   2.027   7.279   1.823 -1.7086  0.3854 -0.5694
   28MOL   H14510459   2.040   7.327   1.524  1.1246  4.0519 -1.5465
   28MOL   H14610460   1.931   7.390   1.643 -0.1111 -1.8965  0.1959
   28MOL   H14710461   2.086   7.552   1.731  1.1170  1.5006 -0.3531
   28MOL   H14810462   2.167   7.524   1.447  0.2740  0.5573 -0.0209
   28MOL   H14910463   2.232   0.001   1.554 -0.5653  1.1204  2.2305
   28MOL   H15010464   1.927   7.607   1.515  0.9695 -1.0181 -1.4189
   28MOL   H15110465   2.000   0.097   1.591 -2.1128  1.3625 -0.4259
   28MOL   H15210466   2.313   7.502   1.767 -0.3136 -0.1021  1.0012
   28MOL   H15310467   2.327   7.403   1.615  0.8916  1.4511 -0.0830
   28MOL   C15410468   2.018   0.085   1.366  0.4818  0.3614 -0.4714
   28MOL   C15510469   1.943   0.221   1.346 -0.0172  0.1348 -0.5653
   28MOL   C15610470   1.903   0.223   1.199  0.6672  0.2513  0.2308
   28MOL   C15710471   1.958   0.095   1.136  0.0018  0.0656  0.0042
   28MOL   C15810472   1.870   0.062   1.016 -0.9252 -0.3309  0.5565
   28MOL   C15910473   1.932   7.593   0.935  0.3766  0.3571  0.4069
   28MOL   C16010474   1.960   7.636   1.257 -0.0020 -0.5734  0.1728
   28MOL   H16110475   2.120   0.108   1.337  0.3274  1.9933  0.2136
   28MOL   H16210476   1.860   0.239   1.414 -0.3178 -1.0167 -0.6059
   28MOL   H16310477   2.001   0.310   1.370  0.3471 -0.6106  1.3974
   28MOL   H16410478   1.796   0.236   1.183  0.2882 -1.6021  1.2002
   28MOL   H16510479   1.948   0.297   1.133 -1.3420  1.3660  0.0718
   28MOL   H16610480   2.059   0.122   1.105 -0.0332  1.6948  1.2205
   28MOL   H16710481   1.857   0.150   0.954 -0.2351  0.3150  1.3225
   28MOL   H16810482   1.765   0.044   1.039 -1.3712  1.5181 -0.0104
   28MOL   H16910483   2.036   7.617   0.911 -0.1953  0.6768 -1.8389
   28MOL   H17010484   1.943   7.505   0.999 -1.6390  1.0514  1.7585
   28MOL   H17110485   2.026   7.552   1.232  1.3159  0.2755  0.7429
   28MOL   H17210486   1.857   7.603   1.269 -0.5417  1.1862  0.4875
   28MOL   C17310487   1.848   7.562   0.814  0.3442 -0.2873  0.2391
   28MOL   C17410488   1.928   7.470   0.719  0.6791 -0.4397 -0.2598
   28MOL   C17510489   1.863   7.329   0.734 -0.3557 -0.9386  0.7275
   28MOL   C17610490   1.722   7.359   0.751  0.1442 -0.0047 -0.9607
   28MOL   C17710491   1.662   7.224   0.807 -0.5328 -0.0364 -0.6034
   28MOL   C17810492   1.514   7.227   0.825  0.4136  0.1422  0.1682
   28MOL   C17910493   1.722   7.479   0.848  0.8751 -0.4615 -0.1440
   28MOL   H18010494   1.815   0.004   0.760 -2.2034 -0.6444  1.1619
   28MOL   H18110495   2.037   7.474   0.718  0.5998  2.1692 -1.5887
   28MOL   H18210496   1.899   7.510   0.623 -0.5234 -1.7471 -0.4694
   28MOL   H18310497   1.891   7.262   0.653  0.5873 -0.9340  1.0412
   28MOL   H18410498   1.912   7.288   0.822  0.0181 -0.5052  0.7214
   28MOL   H18510499   1.670   7.388   0.659 -0.8306 -0.5340 -0.5808
   28MOL   H18610500   1.701   7.188   0.902 -1.2137  0.2103 -0.2273
   28MOL   H18710501   1.690   7.144   0.738 -0.2605 -1.4916  1.1374
   28MOL   H18810502   1.480   7.124   0.822  0.9695 -0.0616  0.6115
   28MOL   H18910503   1.463   7.272   0.740  0.4723 -0.1051  0.0020
   28MOL   H19010504   1.729   7.450   0.953 -0.2074 -0.8010 -0.1542
   28MOL   H19110505   1.634   7.543   0.840  0.1458 -1.5450 -0.9157
   28MOL   C19210506   1.469   7.288   0.955  0.0113  0.2296  0.1045
   28MOL   C19310507   1.513   7.206   1.080 -0.8176 -0.2160 -0.1531
   28MOL   C19410508   1.394   7.203   1.169  0.0112  0.3590 -0.0989
   28MOL   C19510509   1.264   7.209   1.079 -0.3745 -0.4911  0.4515
   28MOL   C19610510   1.131   7.262   1.144  0.0312 -0.3860  0.5806
   28MOL   C19710511   1.051   7.158   1.228 -0.0201 -0.0370  0.4052
   28MOL   C19810512   1.317   7.301   0.967  0.1508  0.4166 -0.0250
   28MOL   H19910513   1.501   7.392   0.962  1.4450 -0.2426  0.8416
   28MOL   H20010514   1.555   7.111   1.049  1.5095  0.2516  1.4221
   28MOL   H20110515   1.596   7.254   1.132 -0.0747 -2.2225  0.5313
   28MOL   H20210516   1.384   7.292   1.230  0.8008  0.1898  0.2820
   28MOL   H20310517   1.397   7.120   1.240  2.8196  0.9186  0.5061
   28MOL   H20410518   1.256   7.108   1.039 -1.7983  0.2086 -1.0851
   28MOL   H20510519   1.074   7.305   1.061  0.3505  0.4151  0.7783
   28MOL   H20610520   1.143   7.348   1.209  1.2960 -0.6525  0.6960
   28MOL   H20710521   1.121   7.115   1.300  0.3766 -0.4516 -0.2189
   28MOL   H20810522   1.025   7.080   1.157 -1.0027  2.8837 -2.5532
   28MOL   H20910523   1.287   7.404   0.986  1.2698  0.5525  1.0823
   28MOL   H21010524   1.265   7.284   0.873 -0.3535 -0.2086  0.3579
   28MOL   C21110525   0.935   7.212   1.315  0.1280 -0.1436 -0.5625
   28MOL   C21210526   0.849   7.097   1.373  0.1341  0.5453 -0.4076
   28MOL   C21310527   0.700   7.151   1.373  0.6820  0.4798  0.3087
   28MOL   C21410528   0.704   7.301   1.324  0.8535 -0.4765  0.4259
   28MOL   C21510529   0.576   7.339   1.248  0.8209 -0.8993  0.0365
   28MOL   C21610530   0.595   7.451   1.152  0.0659 -0.0790 -0.0136
   28MOL   C21710531   0.838   7.298   1.239  0.5854  0.0139  0.1841
   28MOL   H21810532   0.985   7.262   1.398  0.2927  1.0246 -1.3639
   28MOL   H21910533   0.856   7.004   1.315 -2.0259 -0.1502  0.3927
   28MOL   H22010534   0.884   7.089   1.476  0.4652  1.6642 -0.4290
   28MOL   H22110535   0.644   7.085   1.308  1.2126 -1.4870  1.7830
   28MOL   H22210536   0.644   7.142   1.466 -1.5590  0.2083 -1.0270
   28MOL   H22310537   0.715   7.359   1.416 -0.7051 -0.6697  0.7431
   28MOL   H22410538   0.500   7.367   1.321 -0.1291 -2.5718 -0.3070
   28MOL   H22510539   0.534   7.255   1.193  0.7115 -2.8638  3.0227
   28MOL   H22610540   0.628   7.546   1.194 -0.4577  0.7135 -1.3924
   28MOL   H22710541   0.679   7.423   1.089  0.5365  0.8014  0.2040
   28MOL   H22810542   0.874   7.400   1.230  1.9508 -0.1474  3.1157
   28MOL   H22910543   0.815   7.260   1.140 -2.6082  0.5424  0.6647
   28MOL   C23010544   0.473   7.493   1.064  0.1654  0.1938  0.1045
   28MOL   C23110545   0.506   7.595   0.953  0.0418  1.0167 -1.1603
   28MOL   C23210546   0.390   0.051   0.957 -0.2694 -1.0746  0.6906
   28MOL   C23310547   0.346   0.055   1.106 -0.1526  0.3524  0.6843
   28MOL   C23410548   0.215   0.130   1.127 -0.5215  0.5709 -0.6710
   28MOL   C23510549   0.176   0.158   1.268  0.3437  0.8481 -0.4617
   28MOL   C23610550   0.348   7.550   1.132 -0.1404  0.0389  0.4470
   28MOL   H23710551   0.429   7.408   1.013  1.5184  0.0350 -0.8348
   28MOL   H23810552   0.597   0.006   0.969  1.3584 -0.9175 -1.3977
   28MOL   H23910553   0.506   7.550   0.854 -1.6492  0.2484 -0.8257
   28MOL   H24010554   0.317   0.021   0.882 -0.2516 -1.2784  0.7548
   28MOL   H24110555   0.420   0.148   0.919  1.3134 -1.9429 -0.3154
   28MOL   H24210556   0.420   0.112   1.161 -0.5960 -0.7300  2.4435
   28MOL   H24310557   0.135   0.069   1.085 -1.5466 -0.0434  2.0324
   28MOL   H24410558   0.204   0.214   1.059 -0.4821  1.6789  0.6760
   28MOL   H24510559   0.146   0.068   1.322 -0.3078  1.0914 -0.4162
   28MOL   H24610560   0.257   0.206   1.323 -1.1654 -0.1266  2.7765
   28MOL   H24710561   0.263   7.498   1.088 -0.1386 -0.3878  0.9542
   28MOL   H24810562   0.347   7.535   1.240  0.9141  3.6970  1.0428
   28MOL   C24910563   0.070   0.268   1.269  0.0031 -0.3273 -0.1302
   28MOL   C25010564   7.589   0.233   1.210  0.5022 -0.5372  0.0283
   28MOL   C25110565   7.503   0.353   1.248 -0.3620 -0.1906  0.2386
   28MOL   C25210566   7.532   0.368   1.392 -0.3882  0.3646 -0.2925
   28MOL   C25310567   7.506   0.503   1.450  0.7033 -0.0265  0.9901
   28MOL   C25410568   7.487   0.493   1.601 -0.2761 -0.4058 -0.3771
   28MOL   C25510569   0.036   0.333   1.400  0.2404 -0.2524 -0.4382
   28MOL   H25610570   0.116   0.345   1.207  2.0278 -1.6276 -0.3018
   28MOL   H25710571   7.593   0.219   1.102 -1.3487  0.4224 -0.1917
   28MOL   H25810572   7.546   0.144   1.255  0.6212 -0.0277  1.1622
   28MOL   H25910573   7.396   0.334   1.239 -0.1645 -1.1986 -0.1282
   28MOL   H26010574   7.528   0.443   1.193  0.0390  0.0527  0.8186
   28MOL   H26110575   7.467   0.300   1.447 -3.8428  2.7452 -1.2910
   28MOL   H26210576   7.416   0.542   1.402  0.5347  0.1429  1.4436
   28MOL   H26310577   7.588   0.574   1.445  0.2397  0.4757  0.3977
   28MOL   H26410578   7.589   0.482   1.638  0.5514  0.0964 -2.4511
   28MOL   H26510579   7.431   0.401   1.621  2.0578 -1.8623 -0.3970
   28MOL   H26610580   0.065   0.268   1.482  2.0770 -0.2919 -1.1053
   28MOL   H26710581   0.093   0.422   1.428 -0.9128  0.2986  0.1965
   28MOL   C26810582   7.429   0.628   1.657  0.0203  0.4997  0.2360
   28MOL   C26910583   7.434   0.654   1.807  0.3245  0.1945  0.4248
   28MOL   C27010584   7.284   0.654   1.842  0.5506 -0.1566 -0.1409
   28MOL   C27110585   7.210   0.718   1.724  0.3343  0.0649  0.1036
   28MOL   C27210586   7.060   0.689   1.736  0.0940 -0.0632  0.2317
   28MOL   C27310587   6.981   0.750   1.623  0.1800  0.0853  0.1642
   28MOL   C27410588   7.284   0.659   1.605 -0.2003  0.2003  0.3266
   28MOL   H27510589   7.498   0.706   1.626  0.6745 -0.0857  0.1962
   28MOL   H27610590   7.484   0.572   1.859  1.6974  0.3116 -0.6854
   28MOL   H27710591   7.479   0.748   1.838 -0.4840  0.3348  1.1811
   28MOL   H27810592   7.263   0.547   1.847  0.0386 -0.0306  0.5260
   28MOL   H27910593   7.251   0.697   1.937 -1.1452  1.4722 -1.4251
   28MOL   H28010594   7.234   0.824   1.728  2.3391 -0.4094  2.8739
   28MOL   H28110595   7.027   0.741   1.826  1.6912  1.1059  0.1549
   28MOL   H28210596   7.037   0.582   1.735 -0.3576  0.0345  0.2109
   28MOL   H28310597   7.008   0.855   1.618  0.7856  0.0266  1.8447
   28MOL   H28410598   6.997   0.701   1.527 -1.6502 -0.4936  0.1170
   28MOL   H28510599   7.238   0.566   1.571  0.5030 -0.3454  0.8570
   28MOL   H28610600   7.283   0.732   1.524  0.4106 -0.6351 -0.4352
   28MOL   C28710601   6.828   0.741   1.645 -0.8209 -0.4966  0.5734
   28MOL   C28810602   6.761   0.823   1.529  0.0724  0.5523 -0.3406
   28MOL   C28910603   6.638   0.738   1.496 -0.0901  0.0506  0.4007
   28MOL   C29010604   6.621   0.635   1.614  0.3812  0.1193 -0.2422
   28MOL   C29110605   6.539   0.507   1.581 -0.3001 -0.2700  0.0935
   28MOL   C29210606   6.603   0.398   1.484 -0.0584  0.6236  0.3346
   28MOL   C29310607   6.764   0.608   1.657 -0.3264 -0.7195 -0.2016
   28MOL   H29410608   6.805   0.805   1.731 -1.8386 -0.9117  0.6196
   28MOL   H29510609   6.709   0.909   1.572 -1.8484 -0.5382 -0.4203
   28MOL   H29610610   6.827   0.853   1.447 -0.1963  0.2018 -0.6825
   28MOL   H29710611   6.659   0.684   1.403 -0.9772 -0.1589  0.3220
   28MOL   H29810612   6.549   0.799   1.480 -0.2344 -0.2591 -0.0052
   28MOL   H29910613   6.562   0.696   1.682 -0.2192  0.9255 -1.4702
   28MOL   H30010614   6.434   0.526   1.560  0.6442  4.6987 -0.7945
   28MOL   H30110615   6.546   0.460   1.679 -0.8580 -0.6406 -0.0444
   28MOL   H30210616   6.696   0.370   1.533  0.6044  0.0519 -1.2091
   28MOL   H30310617   6.627   0.451   1.392 -2.0877  0.1774 -0.4756
   28MOL   H30410618   6.819   0.549   1.583  0.7204  0.0177 -0.0243
   28MOL   H30510619   6.774   0.559   1.754 -1.4706  0.1875  0.3896
   28MOL   C30610620   6.523   0.278   1.448 -0.3926  0.3096 -0.5110
   28MOL   C30710621   6.575   0.200   1.329 -0.4996  0.1886  0.2761
   28MOL   C30810622   6.529   0.054   1.357  0.6107 -0.1725 -0.2203
   28MOL   C30910623   6.471   0.047   1.500  0.4000 -0.1637 -0.0927
   28MOL   C31010624   6.500   7.567   1.594 -0.0112  0.6032 -0.2006
   28MOL   C31110625   6.421   7.564   1.726 -0.3313  0.1953 -0.3851
   28MOL   C31210626   6.530   0.178   1.559  0.0607 -0.1360 -0.2154
   28MOL   H31310627   6.426   0.318   1.420 -1.0806  1.3346  3.0495
   28MOL   H31410628   6.545   0.238   1.231  1.0544  0.5292 -0.0839
   28MOL   H31510629   6.683   0.185   1.328 -0.6486 -0.9531  1.2637
   28MOL   H31610630   6.463   0.019   1.278 -0.9132 -0.7190  1.2754
   28MOL   H31710631   6.611   7.631   1.347  0.4317 -0.1959 -1.7403
   28MOL   H31810632   6.362   0.054   1.501  0.3768 -0.5900  2.1448
   28MOL   H31910633   6.455   7.489   1.532  1.4066 -1.2448  1.0508
   28MOL   H32010634   6.606   7.544   1.608 -0.1922  0.6500  1.3534
   28MOL   H32110635   6.314   7.547   1.715 -0.1020 -0.7121 -1.2335
   28MOL   H32210636   6.438   0.006   1.787 -2.3219  0.2274  0.1490
   28MOL   H32310637   6.633   0.157   1.590  0.1941  1.4443  0.5118
   28MOL   H32410638   6.476   0.213   1.647 -0.7546 -1.5932 -0.1303
   28MOL   C32510639   6.472   7.441   1.802 -0.3971  0.5092  0.2049
   28MOL   C32610640   6.434   7.427   1.947  0.1671  0.7870 -0.3263
   28MOL   C32710641   6.395   7.275   1.960  0.2608  0.1678  0.1817
   28MOL   C32810642   6.339   7.233   1.824 -0.7593  0.4203 -0.8706
   28MOL   C32910643   6.333   7.076   1.792 -0.1648 -0.2435  0.6314
   28MOL   C33010644   6.226   6.999   1.863 -0.2051 -0.0981 -0.1455
   28MOL   C33110645   6.438   7.304   1.732  0.4151 -0.1660 -0.2465
   28MOL   H33210646   6.579   7.462   1.805 -0.3497  0.1055  1.4325
   28MOL   H33310647   6.359   7.500   1.977 -0.1224  2.0823 -3.9780
   28MOL   H33410648   6.510   7.455   2.021  1.0761  0.0619 -0.9721
   28MOL   H33510649   6.487   7.220   1.978  0.5470  1.2755  2.2354
   28MOL   H33610650   6.332   7.257   2.048  2.0444  0.6027  1.5616
   28MOL   H33710651   6.240   7.276   1.809 -0.6129  1.2348  0.3888
   28MOL   H33810652   6.322   7.067   1.684  4.4105  1.1166 -0.0639
   28MOL   H33910653   6.423   7.024   1.825 -0.0451  0.2993  1.1649
   28MOL   H34010654   6.233   7.028   1.968  0.2119 -0.2348 -0.1321
   28MOL   H34110655   6.128   7.039   1.839 -0.9540 -1.1295  1.1310
   28MOL   H34210656   6.400   7.310   1.630 -1.4968 -1.6605  0.3476
   28MOL   H34310657   6.526   7.239   1.733 -0.4866 -1.4326  2.2118
   28MOL   C34410658   6.238   6.855   1.857 -0.1637  0.3898  0.2624
   28MOL   C34510659   6.262   6.795   1.717  0.1212  0.3819  0.5035
   28MOL   C34610660   6.191   6.659   1.717 -0.5208  0.9129  0.5575
   28MOL   C34710661   6.112   6.643   1.851 -0.4223  0.0790  0.7155
   28MOL   C34810662   6.173   6.535   1.946  0.6564 -0.0961 -0.7063
   28MOL   C34910663   6.084   6.502   2.063  0.1468 -0.1867 -0.5129
   28MOL   C35010664   6.117   6.781   1.918 -0.0729 -0.0049 -0.2180
   28MOL   H35110665   6.325   6.842   1.921  0.7981  1.1547 -0.8832
   28MOL   H35210666   6.368   6.779   1.699  0.4278  1.0301  1.6594
   28MOL   H35310667   6.219   6.856   1.638  0.3142  1.1471  0.9944
   28MOL   H35410668   6.127   6.636   1.632  0.7932 -1.4785  0.1448
   28MOL   H35510669   6.275   6.590   1.700 -0.2772  1.2400  0.4333
   28MOL   H35610670   6.014   6.605   1.822 -0.0991  0.0251 -0.3196
   28MOL   H35710671   6.186   6.445   1.885 -0.3306 -0.8527  0.1788
   28MOL   H35810672   6.271   6.575   1.970 -0.7279  2.0009  1.7230
   28MOL   H35910673   5.981   6.492   2.028  0.1318  0.4834 -0.6778
   28MOL   H36010674   6.069   6.587   2.130  1.1549 -0.2984 -0.1371
   28MOL   H36110675   6.024   6.834   1.900  0.5772  1.6225  0.9900
   28MOL   H36210676   6.134   6.779   2.026  0.3495  2.5791 -0.2142
   28MOL   C36310677   6.158   6.384   2.136  0.0093  0.2524 -0.7147
   28MOL   C36410678   6.078   6.329   2.257  0.5649 -0.2748 -0.4853
   28MOL   C36510679   6.184   6.290   2.366  0.4694  0.3041  0.0949
   28MOL   C36610680   6.320   6.324   2.305 -0.3542 -0.3135 -0.3991
   28MOL   C36710681   6.424   6.358   2.411  0.2692  0.2228 -0.5260
   28MOL   C36810682   6.566   6.336   2.352 -0.0633 -0.1931  0.0667
   28MOL   C36910683   6.292   6.427   2.198 -0.3724  0.5592  0.0189
   28MOL   H37010684   6.182   6.302   2.069  0.3534  0.6032 -1.0198
   28MOL   H37110685   6.016   6.409   2.298  0.3201 -0.4553 -0.5037
   28MOL   H37210686   6.005   6.254   2.229 -3.0594  2.7408  0.4325
   28MOL   H37310687   6.161   6.348   2.456 -0.4999 -1.4453  1.0083
   28MOL   H37410688   6.172   6.184   2.388  0.5728  0.3617  0.4336
   28MOL   H37510689   6.366   6.246   2.245  2.0448 -0.2488  1.3035
   28MOL   H37610690   6.410   6.463   2.439 -0.2382 -0.3382  1.3949
   28MOL   H37710691   6.424   6.301   2.504  2.0334  0.0831 -0.5822
   28MOL   H37810692   6.594   6.424   2.296  0.1960  0.2685  0.9124
   28MOL   H37910693   6.572   6.242   2.297  0.6404  0.9936 -1.9085
   28MOL   H38010694   6.274   6.520   2.252  2.5382  1.5439 -0.6345
   28MOL   H38110695   6.376   6.451   2.134  0.6259  0.1808  1.1498
   28MOL   H38210696   6.641   6.324   2.431  0.4014 -0.4939 -0.4218
   29MOL     C110697   3.398   6.932   3.038  0.3538 -0.2116  0.1631
   29MOL     C210698   3.269   6.918   2.957 -0.2072  0.0094 -0.1089
   29MOL     C310699   3.277   7.016   2.834  0.1819 -0.2078  0.1461
   29MOL     C410700   3.422   7.052   2.829 -0.4755  0.3523  0.1281
   29MOL     C510701   3.439   7.199   2.789 -0.1219  0.1527 -0.3113
   29MOL     C610702   3.396   7.219   2.643  0.2038 -0.9193  0.0254
   29MOL     C710703   3.481   7.030   2.969  1.0464 -0.3098 -0.0219
   29MOL     H810704   3.366   6.962   3.138  0.0359 -0.2430  0.0724
   29MOL     H910705   3.183   6.947   3.018  0.0795 -0.2755  0.4322
   29MOL    H1010706   3.259   6.815   2.924 -1.0294  0.1054 -0.1795
   29MOL    H1110707   3.232   6.965   2.749 -0.0821 -4.0256  2.4609
   29MOL    H1210708   3.206   7.096   2.857 -1.4489 -1.3977 -0.6618
   29MOL    H1310709   3.476   6.997   2.752  0.0393  0.7619  0.1946
   29MOL    H1410710   3.393   7.268   2.860  0.9460  2.1994 -1.5571
   29MOL    H1510711   3.545   7.223   2.790 -0.0300 -0.2872  0.5002
   29MOL    H1610712   3.429   7.144   2.570 -1.6406 -0.4490 -1.3256
   29MOL    H1710713   3.287   7.224   2.644  0.1708 -0.7949 -1.5939
   29MOL    H1810714   3.581   6.987   2.977  1.5035  0.7346  0.0279
   29MOL    H1910715   3.493   7.126   3.020  0.6723 -0.7660  0.9331
   29MOL    H2010716   3.447   6.835   3.040 -0.5985 -0.6824  1.2575
   29MOL    C2110717   3.431   7.370   2.597  0.0784 -0.7754 -0.1776
   29MOL    C2210718   3.586   7.396   2.579 -1.1142  0.0903 -0.4970
   29MOL    C2310719   3.605   7.479   2.451 -0.1267 -0.3378  0.7790
   29MOL    C2410720   3.460   7.538   2.430  0.1195 -0.3932  0.4516
   29MOL    C2510721   3.436   7.582   2.281 -0.9341  0.2497  0.3046
   29MOL    C2610722   3.309   0.017   2.270 -0.4361  0.7469  0.5013
   29MOL    C2710723   3.368   7.424   2.471 -0.2659 -0.4495 -0.2603
   29MOL    H2810724   3.402   7.443   2.672  1.9818 -0.6125  0.4145
   29MOL    H2910725   3.634   7.443   2.665 -2.2627  2.8819 -1.2941
   29MOL    H3010726   3.639   7.301   2.578 -1.6267 -0.1955 -2.9489
   29MOL    H3110727   3.686   7.552   2.456  0.1549 -0.6571  0.8595
   29MOL    H3210728   3.628   7.418   2.364  0.0155  1.1632 -0.2537
   29MOL    H3310729   3.455   7.621   2.500 -1.7457 -1.4550  1.6394
   29MOL    H3410730   3.440   7.494   2.216 -0.0158 -0.5104  1.3730
   29MOL    H3510731   3.515   7.646   2.243  0.9592 -1.0109  2.0079
   29MOL    H3610732   3.341   0.117   2.297  0.9139  0.4787 -0.0394
   29MOL    H3710733   3.241   7.617   2.341  1.6721 -0.4600  1.7864
   29MOL    H3810734   3.263   7.450   2.473 -0.3199 -0.5478 -1.6281
   29MOL    H3910735   3.366   7.348   2.393  1.7964  0.4274 -1.2135
   29MOL    C4010736   3.263   0.020   2.121 -0.2080 -0.6304  0.8668
   29MOL    C4110737   3.119   0.079   2.106  0.3157 -0.0738 -0.5374
   29MOL    C4210738   3.108   0.097   1.960 -0.0589 -0.0271  0.0598
   29MOL    C4310739   3.249   0.127   1.909  0.0868 -0.0386 -0.3295
   29MOL    C4410740   3.275   0.069   1.768 -0.4157  0.2382  0.0050
   29MOL    C4510741   3.183   0.119   1.652  0.9593  0.2584 -0.1934
   29MOL    C4610742   3.348   0.093   2.016  0.1458 -0.7135 -0.0176
   29MOL    H4710743   3.237   7.565   2.096 -4.1628  0.2412  0.9737
   29MOL    H4810744   3.119   0.178   2.152  2.0046  1.3197 -3.3832
   29MOL    H4910745   3.046   0.017   2.156  0.3540  1.0086  0.9074
   29MOL    H5010746   3.066   0.005   1.918 -0.1096 -0.2542  0.5999
   29MOL    H5110747   3.033   0.175   1.948 -0.3312 -0.2364  0.3671
   29MOL    H5210748   3.246   0.233   1.882 -2.6469 -0.1092 -0.3946
   29MOL    H5310749   3.373   0.099   1.731 -0.3794  1.1962  0.8848
   29MOL    H5410750   3.272   7.607   1.775  0.5444  0.2799  1.1595
   29MOL    H5510751   3.207   0.222   1.628 -0.2386  0.7009  0.4614
   29MOL    H5610752   3.085   0.118   1.699  0.8683 -0.7356 -0.3776
   29MOL    H5710753   3.434   0.031   1.992 -0.2589 -1.8567  1.4229
   29MOL    H5810754   3.387   0.189   2.051  0.6626 -0.6100 -0.8638
   29MOL    C5910755   3.174   0.032   1.520  0.2131 -0.0003  0.1993
   29MOL    C6010756   3.105   0.102   1.407  0.0531  0.1888 -0.3414
   29MOL    C6110757   3.212   0.132   1.300 -0.0308  1.1285  0.7752
   29MOL    C6210758   3.312   0.018   1.313 -0.0414 -0.1532 -0.6180
   29MOL    C6310759   3.270   7.546   1.225  0.0227 -0.0032 -0.4663
   29MOL    C6410760   3.384   7.444   1.216  0.1114 -0.2720 -0.2420
   29MOL    C6510761   3.309   7.629   1.465  0.2752  0.2156 -0.5736
   29MOL    H6610762   3.121   7.586   1.537 -1.7426  0.5447 -2.6662
   29MOL    H6710763   3.038   0.037   1.350  0.3111  0.9780 -1.5850
   29MOL    H6810764   3.057   0.194   1.440 -0.0700  0.1575 -0.4311
   29MOL    H6910765   3.180   0.148   1.197  0.4357  0.6214  0.5514
   29MOL    H7010766   3.262   0.226   1.322 -0.5856  0.9199  3.0302
   29MOL    H7110767   3.413   0.046   1.284  0.0760  2.4406  2.0447
   29MOL    H7210768   3.252   7.579   1.122 -0.7373  2.2968  0.3889
   29MOL    H7310769   3.180   7.504   1.270  0.8809 -0.6796  0.6379
   29MOL    H7410770   3.474   7.495   1.181 -1.0687  1.7757 -0.3965
   29MOL    H7510771   3.413   7.387   1.305  1.9699  0.1307 -0.5773
   29MOL    H7610772   3.332   7.526   1.490  0.1497  0.6588  1.5184
   29MOL    H7710773   3.382   0.046   1.516  0.8887 -1.7098  1.0499
   29MOL    C7810774   3.354   7.342   1.109 -0.3116  0.0873 -1.2517
   29MOL    C7910775   3.319   7.385   0.970 -0.1319 -0.3403  0.0642
   29MOL    C8010776   3.329   7.261   0.882  0.1678 -0.7246  0.5374
   29MOL    C8110777   3.445   7.183   0.939  0.2742  0.3580  1.1327
   29MOL    C8210778   3.576   7.186   0.855 -0.2588  0.8763 -0.2820
   29MOL    C8310779   3.670   7.063   0.875 -0.0738 -0.3586  0.6302
   29MOL    C8410780   3.467   7.248   1.078 -0.3132  0.1492 -0.0649
   29MOL    H8510781   3.264   7.289   1.139 -0.3100 -0.3459 -2.0179
   29MOL    H8610782   3.219   7.426   0.953  0.6551  1.6987  0.2591
   29MOL    H8710783   3.400   7.452   0.943  1.0819 -1.0610  1.7968
   29MOL    H8810784   3.235   7.206   0.889 -0.3624  0.1338  0.3076
   29MOL    H8910785   3.344   7.293   0.778 -0.5053 -0.8270  0.4040
   29MOL    H9010786   3.417   7.078   0.947  1.0212 -0.0404 -1.2266
   29MOL    H9110787   3.631   7.279   0.870  0.5514  0.3517  0.0208
   29MOL    H9210788   3.561   7.191   0.747 -2.4114  0.0302 -0.0560
   29MOL    H9310789   3.626   6.972   0.835 -0.4036  0.4776 -0.9285
   29MOL    H9410790   3.685   7.038   0.980 -1.0142  0.5763  1.0034
   29MOL    H9510791   3.567   7.289   1.094 -0.0057 -0.1373 -1.2253
   29MOL    H9610792   3.463   7.169   1.153  1.5468 -0.9037 -1.0473
   29MOL    C9710793   3.815   7.086   0.822  0.1047  0.0139  0.7105
   29MOL    C9810794   3.905   6.965   0.824  0.1287 -0.2622  0.4007
   29MOL    C9910795   4.043   7.012   0.803  0.0509 -0.1009 -0.1086
   29MOL   C10010796   4.042   7.155   0.851 -0.3583  0.1374  0.1564
   29MOL   C10110797   4.155   7.196   0.948 -1.1219  0.0180  0.1564
   29MOL   C10210798   4.292   7.182   0.881  0.2918 -0.6906 -0.4282
   29MOL   C10310799   3.897   7.187   0.903 -0.0581  0.4998 -0.1177
   29MOL   H10410800   3.814   7.111   0.716 -2.7036  0.1406  0.7491
   29MOL   H10510801   3.890   6.907   0.915  0.2083 -0.3807  0.3381
   29MOL   H10610802   3.884   6.895   0.743  2.6416  0.9540 -1.3529
   29MOL   H10710803   4.121   6.959   0.858 -0.0332  1.2659  1.3450
   29MOL   H10810804   4.065   7.005   0.696 -2.1661  1.2554 -0.6859
   29MOL   H10910805   4.046   7.214   0.760 -0.6211 -0.2661 -0.1164
   29MOL   H11010806   4.136   7.300   0.977  1.3760  0.2395  1.1045
   29MOL   H11110807   4.159   7.142   1.043  0.2301  1.8567  1.1877
   29MOL   H11210808   4.297   7.084   0.834 -1.2150  0.0467 -2.2093
   29MOL   H11310809   4.300   7.257   0.803 -3.5979  0.7274  0.3893
   29MOL   H11410810   3.886   7.149   1.004 -0.0735 -0.5979 -0.5223
   29MOL   H11510811   3.874   7.293   0.906  0.0578  0.4876  3.3149
   29MOL   C11610812   4.408   7.220   0.981  0.1519 -0.1657  0.2306
   29MOL   C11710813   4.425   7.134   1.105  0.1601  0.5276  0.5394
   29MOL   C11810814   4.577   7.149   1.143 -0.1698 -0.1622  0.1058
   29MOL   C11910815   4.655   7.184   1.015 -0.5234  0.1624  0.5302
   29MOL   C12010816   4.752   7.076   0.962 -0.3424  0.2762  0.0109
   29MOL   C12110817   4.873   7.049   1.049 -0.0605 -0.4953 -0.2039
   29MOL   C12210818   4.543   7.215   0.914 -0.6549 -0.2749 -0.2816
   29MOL   H12310819   4.395   7.324   1.011  1.5930 -0.3880  1.6404
   29MOL   H12410820   4.416   7.031   1.072  0.0778  0.1974  1.5971
   29MOL   H12510821   4.353   7.164   1.182 -1.2808  0.5638 -0.7958
   29MOL   H12610822   4.608   7.059   1.195  1.9625  1.1518  1.1645
   29MOL   H12710823   4.600   7.237   1.203  0.9911 -0.8763  0.7122
   29MOL   H12810824   4.710   7.277   1.028 -0.2651  0.0273  0.4069
   29MOL   H12910825   4.787   7.121   0.869 -0.6380 -0.5897 -0.5154
   29MOL   H13010826   4.697   6.986   0.934  0.1781  0.1151 -0.4974
   29MOL   H13110827   4.843   7.012   1.147 -0.7100 -2.6014 -1.1784
   29MOL   H13210828   4.920   7.145   1.073  2.3847 -0.8773 -3.2449
   29MOL   H13310829   4.557   7.304   0.853  2.0556 -1.8965 -2.1229
   29MOL   H13410830   4.541   7.136   0.839  1.7076 -0.1811 -0.4752
   29MOL   C13510831   4.978   6.953   0.982  0.1909 -0.2811 -0.6796
   29MOL   C13610832   5.050   7.006   0.865  1.2425  0.1285 -0.4415
   29MOL   C13710833   5.192   7.007   0.901  0.5169 -0.5250  0.1200
   29MOL   C13810834   5.200   7.011   1.046 -0.1306 -0.2508 -0.5449
   29MOL   C13910835   5.344   6.991   1.093  0.3922 -0.4564  0.1940
   29MOL   C14010836   5.434   7.117   1.053 -0.5609 -0.1704 -0.5514
   29MOL   C14110837   5.093   6.914   1.078 -0.3740  0.8262  0.1549
   29MOL   H14210838   4.930   6.860   0.950 -0.5079  0.2732 -1.2852
   29MOL   H14310839   5.018   6.950   0.778  0.9750  1.7142 -1.3859
   29MOL   H14410840   5.015   7.107   0.843  1.4863  0.6917  1.6266
   29MOL   H14510841   5.253   6.927   0.858  2.9095  0.3519  1.7738
   29MOL   H14610842   5.240   7.094   0.857 -0.5800 -0.5811 -1.2120
   29MOL   H14710843   5.165   7.105   1.090  1.3608 -0.3241  0.8518
   29MOL   H14810844   5.380   6.897   1.051  0.9292  0.6209 -1.8230
   29MOL   H14910845   5.339   6.977   1.201 -0.5830 -1.3232  0.0524
   29MOL   H15010846   5.435   7.113   0.944 -3.4370 -0.7147 -0.6018
   29MOL   H15110847   5.398   7.215   1.083 -0.5531 -0.6598  1.0870
   29MOL   H15210848   5.062   6.913   1.182 -0.7152  0.3138  0.0495
   29MOL   H15310849   5.111   6.813   1.043  0.8330  0.3327  2.1324
   29MOL   C15410850   5.580   7.114   1.109  0.7399 -0.8960  0.1500
   29MOL   C15510851   5.682   7.206   1.032 -0.3811  0.2213  0.1813
   29MOL   C15610852   5.813   7.134   1.045 -0.4181 -0.0437 -0.7771
   29MOL   C15710853   5.787   7.015   1.150  1.2244  0.1907 -0.0566
   29MOL   C15810854   5.889   6.899   1.137 -0.1050 -0.6205  0.1652
   29MOL   C15910855   6.030   6.921   1.200 -0.3767  0.4486 -0.0915
   29MOL   C16010856   5.649   6.976   1.124  0.1340  1.0002  0.2977
   29MOL   H16110857   5.568   7.151   1.211  1.2010  0.2607 -0.1961
   29MOL   H16210858   5.639   7.218   0.933  0.1990  1.1718  0.0449
   29MOL   H16310859   5.683   7.302   1.084 -0.9195  0.5561 -0.4257
   29MOL   H16410860   5.845   7.089   0.951  0.2879  0.6919 -0.9001
   29MOL   H16510861   5.889   7.206   1.073 -1.0889 -0.4910  2.2901
   29MOL   H16610862   5.787   7.050   1.253 -0.4753  1.0721 -0.3519
   29MOL   H16710863   5.904   6.866   1.034 -1.1020 -0.6263  0.0207
   29MOL   H16810864   5.849   6.810   1.185  2.2856 -2.6424 -1.4586
   29MOL   H16910865   6.085   6.996   1.143 -0.4844  1.2458  0.8457
   29MOL   H17010866   6.004   6.979   1.288 -0.9891  1.9121 -1.2122
   29MOL   H17110867   5.604   6.922   1.207  0.1767 -0.6984 -0.7681
   29MOL   H17210868   5.639   6.905   1.042  2.0011  0.4913  0.4817
   29MOL   C17310869   6.111   6.799   1.239 -0.1517  1.2846 -0.1013
   29MOL   C17410870   6.142   6.720   1.109 -0.1590 -0.0077 -0.5324
   29MOL   C17510871   6.275   6.644   1.138  0.9193 -0.0809  0.0858
   29MOL   C17610872   6.330   6.695   1.275 -0.4292 -0.2434  0.9663
   29MOL   C17710873   6.482   6.708   1.277  0.2293 -0.4671  0.3678
   29MOL   C17810874   6.549   6.780   1.395 -0.0892 -0.0098  0.2021
   29MOL   C17910875   6.253   6.824   1.300  0.3819 -0.4627 -0.1776
   29MOL   H18010876   6.061   6.743   1.317  0.1067  1.1168 -0.0539
   29MOL   H18110877   6.165   6.784   1.024 -4.1008 -0.0707 -1.7323
   29MOL   H18210878   6.057   6.658   1.081  0.0347 -1.0109  1.0039
   29MOL   H18310879   6.250   6.538   1.142 -0.3538  0.2253  0.3484
   29MOL   H18410880   6.347   6.664   1.059  1.1087 -1.6010 -0.1426
   29MOL   H18510881   6.308   6.619   1.351 -1.4368  0.3670  1.2945
   29MOL   H18610882   6.511   6.758   1.185  2.5328 -0.7273  0.9146
   29MOL   H18710883   6.525   6.608   1.269 -3.1221 -1.9803  0.2701
   29MOL   H18810884   6.521   6.726   1.485 -0.2655 -0.0328  0.1341
   29MOL   H18910885   6.505   6.880   1.405 -0.5972 -0.0898 -1.0780
   29MOL   H19010886   6.292   6.916   1.258 -0.7088 -0.1423 -0.5025
   29MOL   H19110887   6.239   6.839   1.407  3.1453 -0.6637  0.2498
   29MOL   C19210888   6.704   6.784   1.390  0.2895  0.3424  0.6051
   29MOL   C19310889   6.773   6.652   1.394 -0.6252  0.3459  0.1934
   29MOL   C19410890   6.917   6.680   1.428 -0.4992 -0.1424  0.2717
   29MOL   C19510891   6.902   6.788   1.538  0.2800 -0.3390  0.1484
   29MOL   C19610892   7.018   6.892   1.532 -1.0468 -0.4155  0.2528
   29MOL   C19710893   7.167   6.839   1.554 -0.7178 -0.0354 -0.5385
   29MOL   C19810894   6.760   6.854   1.522 -0.4300  0.4572 -0.2244
   29MOL   H19910895   6.736   6.837   1.300 -0.4042  1.3171  0.9214
   29MOL   H20010896   6.732   6.587   1.470 -0.7074 -1.5849 -1.4742
   29MOL   H20110897   6.764   6.600   1.299 -0.4447 -0.8040  0.7942
   29MOL   H20210898   6.975   6.709   1.340  2.0904  1.3928  2.4034
   29MOL   H20310899   6.966   6.587   1.460 -3.3939 -0.6197  3.5428
   29MOL   H20410900   6.911   6.735   1.633  3.1826 -0.2510 -0.0437
   29MOL   H20510901   6.997   6.960   1.615  0.3674  0.8165 -0.3824
   29MOL   H20610902   7.002   6.950   1.441 -2.3669 -1.1356 -0.0041
   29MOL   H20710903   7.209   6.792   1.465  0.2635 -0.2779  0.0537
   29MOL   H20810904   7.166   6.771   1.639 -0.0466  0.5889 -0.0263
   29MOL   H20910905   6.771   6.960   1.498  0.6091 -0.1932 -2.7752
   29MOL   H21010906   6.700   6.833   1.611 -0.9365 -0.5059 -0.7763
   29MOL   C21110907   7.250   6.961   1.594 -1.0013  0.0780 -0.3622
   29MOL   C21210908   7.401   6.930   1.596 -0.2732 -0.1692 -0.1417
   29MOL   C21310909   7.467   7.005   1.714 -0.1994  1.0885 -0.1145
   29MOL   C21410910   7.353   7.079   1.789 -0.0039 -0.4985 -0.1132
   29MOL   C21510911   7.368   7.082   1.942  0.5323  0.4236  1.0386
   29MOL   C21610912   7.482   7.174   1.984 -0.2213  0.3306 -0.6150
   29MOL   C21710913   7.224   7.013   1.741 -1.0570  0.7978  0.0262
   29MOL   H21810914   7.230   7.041   1.522 -1.8946  0.3221  0.1517
   29MOL   H21910915   7.413   6.822   1.601 -4.5435 -0.7202  0.1256
   29MOL   H22010916   7.448   6.948   1.500  2.8679  0.0951  1.3911
   29MOL   H22110917   7.506   6.922   1.773 -3.4751  0.1732  0.8967
   29MOL   H22210918   7.555   7.062   1.685  1.1055 -0.0043  1.6714
   29MOL   H22310919   7.336   7.180   1.750 -2.5451 -1.5830 -1.9412
   29MOL   H22410920   7.406   6.982   1.965  0.2037  0.2872  0.9812
   29MOL   H22510921   7.277   7.099   1.999 -0.2437  2.7719 -0.8435
   29MOL   H22610922   7.569   7.165   1.918  1.8590 -0.1802  2.0925
   29MOL   H22710923   7.447   7.277   1.988  2.0663  1.0797  1.6324
   29MOL   H22810924   7.150   7.093   1.742 -3.5358 -1.3737 -2.6737
   29MOL   H22910925   7.193   6.934   1.809  1.6774 -0.2959  0.0589
   29MOL   C23010926   7.530   7.147   2.129 -0.6840 -0.1663 -0.2491
   29MOL   C23110927   7.620   7.267   2.180  0.1621 -0.1115 -0.6208
   29MOL   C23210928   0.067   7.192   2.278  0.1751 -0.2451 -0.2679
   29MOL   C23310929   0.097   7.054   2.216  0.2784  0.0335  1.0592
   29MOL   C23410930   0.122   6.946   2.325  0.0607 -0.3304  0.0643
   29MOL   C23510931   0.255   6.977   2.385 -0.2072 -0.8763  0.2008
   29MOL   C23610932   7.611   7.016   2.144 -0.6308 -0.3355  0.0443
   29MOL   H23710933   7.442   7.129   2.191  0.2971  0.4035  1.3510
   29MOL   H23810934   0.030   7.310   2.097  0.2735 -1.6223 -1.3404
   29MOL   H23910935   7.569   7.341   2.242  0.5615  1.3955 -2.0540
   29MOL   H24010936   0.004   7.177   2.366 -0.3890 -0.0837 -0.6422
   29MOL   H24110937   0.158   7.247   2.304 -1.0382  0.3905  2.9895
   29MOL   H24210938   0.182   7.051   2.148 -0.5616  0.2971 -0.0082
   29MOL   H24310939   0.116   6.843   2.288  1.5184 -0.0179 -1.1193
   29MOL   H24410940   0.046   6.955   2.402  0.2433 -0.4089  0.2538
   29MOL   H24510941   0.326   6.938   2.312 -0.4561 -1.1500  0.1032
   29MOL   H24610942   0.273   7.084   2.387  0.2091 -0.9632  3.7503
   29MOL   H24710943   7.554   6.945   2.205  0.7355 -1.3173  0.2102
   29MOL   H24810944   7.638   6.958   2.056  1.6002 -0.2524  0.6411
   29MOL   C24910945   0.278   6.917   2.517 -0.0674  0.0598 -0.0013
   29MOL   C25010946   0.277   6.765   2.514 -0.3362 -0.2443  0.5756
   29MOL   C25110947   0.386   6.721   2.601  0.5740 -0.3660 -1.4114
   29MOL   C25210948   0.485   6.840   2.610  0.0006  0.2717 -0.5973
   29MOL   C25310949   0.559   6.842   2.749  0.3256 -0.8692  0.0575
   29MOL   C25410950   0.628   6.717   2.784 -0.0870 -0.0474 -0.4042
   29MOL   C25510951   0.402   6.965   2.597  0.3267 -0.1379  0.4269
   29MOL   H25610952   0.200   6.963   2.577 -0.2717 -2.4208  1.7007
   29MOL   H25710953   0.179   6.733   2.549  0.5864 -1.7238  1.8829
   29MOL   H25810954   0.278   6.715   2.417  0.1250  0.7306  0.0740
   29MOL   H25910955   0.424   6.628   2.559  0.7973  0.0617 -2.1762
   29MOL   H26010956   0.336   6.680   2.689  0.2508  0.2362 -1.3120
   29MOL   H26110957   0.558   6.839   2.529  0.0877  0.4511 -0.5227
   29MOL   H26210958   0.490   6.861   2.831  0.2937 -0.3468 -0.0871
   29MOL   H26310959   0.625   6.927   2.735  0.8111 -1.4121 -1.0044
   29MOL   H26410960   0.677   6.679   2.695 -1.1462 -1.6099 -0.3330
   29MOL   H26510961   0.552   6.641   2.799  1.2115 -1.0253  1.3782
   29MOL   H26610962   0.462   7.041   2.548  1.9656 -1.1307  0.8829
   29MOL   H26710963   0.366   7.010   2.689 -1.8617  2.1036 -1.4348
   29MOL   C26810964   0.701   6.718   2.919  0.6039  0.1317  0.2864
   29MOL   C26910965   0.825   6.806   2.910 -0.6021 -0.5307 -0.5416
   29MOL   C27010966   0.923   6.743   3.013 -0.1073  0.0666 -0.1947
   29MOL   C27110967   0.851   6.629   3.085  0.3992  0.5001 -0.0536
   29MOL   C27210968   0.933   6.507   3.137 -0.1432 -0.1010  0.5193
   29MOL   C27310969   0.841   6.393   3.185  0.1216 -0.1306 -0.7468
   29MOL   C27410970   0.750   6.582   2.973 -0.2689 -0.6260  0.5136
   29MOL   H27510971   0.635   6.759   2.996 -1.1508  1.6880 -1.9852
   29MOL   H27610972   0.867   6.782   2.813  0.6164 -1.8688  0.3024
   29MOL   H27710973   0.819   6.914   2.917  0.0270 -0.6239  1.5444
   29MOL   H27810974   1.021   6.723   2.969  0.4660 -0.3008  1.2081
   29MOL   H27910975   0.956   6.819   3.085 -1.1713  0.4878 -0.1308
   29MOL   H28010976   0.799   6.671   3.171  0.8644 -0.7784  0.8690
   29MOL   H28110977   0.994   6.533   3.224  1.3308 -1.6893 -0.0113
   29MOL   H28210978   1.008   6.480   3.063 -1.6864 -1.2236 -0.6560
   29MOL   H28310979   0.792   6.337   3.105  0.7584 -1.3483 -0.2946
   29MOL   H28410980   0.905   6.321   3.237 -0.3289  0.5970  0.8419
   29MOL   H28510981   0.797   6.529   2.890  2.7969  1.0195  1.1239
   29MOL   H28610982   0.664   6.530   3.015 -0.5543  0.0296  0.7491
   29MOL   C28710983   0.737   6.427   3.289  0.8340  0.2432  0.4707
   29MOL   C28810984   0.642   6.314   3.328 -0.0937 -0.3214 -0.4647
   29MOL   C28910985   0.595   6.346   3.469  0.8654 -0.3693 -0.2725
   29MOL   C29010986   0.676   6.468   3.519 -0.0047 -0.6642  0.2137
   29MOL   C29110987   0.725   6.465   3.664 -0.3409 -0.4344 -0.5405
   29MOL   C29210988   0.616   6.409   3.755  0.1017  0.5471  0.2113
   29MOL   C29310989   0.788   6.482   3.420 -0.0395  0.6103  0.1703
   29MOL   H29410990   0.678   6.509   3.248  0.5909 -0.1941 -0.0679
   29MOL   H29510991   0.556   6.321   3.262  0.1432  1.4215 -0.6016
   29MOL   H29610992   0.694   6.219   3.314  1.1143  0.4426 -1.1715
   29MOL   H29710993   0.626   6.265   3.535 -3.5269 -1.1436  1.0201
   29MOL   H29810994   0.487   6.357   3.463  0.7794 -1.0974 -0.1371
   29MOL   H29910995   0.614   6.553   3.492 -1.3724 -2.1461 -1.3997
   29MOL   H30010996   0.747   6.565   3.702 -2.6465 -0.1350  0.0657
   29MOL   H30110997   0.811   6.401   3.685  0.6595  1.6431  1.9993
   29MOL   H30210998   0.588   6.310   3.721  1.8426 -0.0002  0.3082
   29MOL   H30310999   0.525   6.465   3.734  1.4586  3.6685  2.2036
   29MOL   H30411000   0.867   6.415   3.453 -0.8688  0.3990  1.7837
   29MOL   H30511001   0.818   6.587   3.419  1.5464  0.1694  0.7561
   29MOL   C30611002   0.649   6.390   3.905 -0.5473 -0.0177  0.5408
   29MOL   C30711003   0.525   6.344   3.990  0.7160  1.0386 -0.2516
   29MOL   C30811004   0.591   6.247   4.093 -0.5421 -0.3009 -0.1038
   29MOL   C30911005   0.743   6.241   4.070 -0.2737  0.1506 -0.0400
   29MOL   C31011006   0.806   6.097   4.095 -0.1306 -0.5158  0.2827
   29MOL   C31111007   0.951   6.066   4.040 -0.0022 -0.3533  0.4297
   29MOL   C31211008   0.758   6.287   3.926  0.4226 -0.6826 -0.6879
   29MOL   H31311009   0.685   6.483   3.947  1.3431 -1.2772  1.7909
   29MOL   H31411010   0.473   6.430   4.031  0.3281 -0.0955  1.6802
   29MOL   H31511011   0.449   6.310   3.920  1.9913  0.4810 -1.3997
   29MOL   H31611012   0.560   6.293   4.187 -1.4161 -2.0225  0.4598
   29MOL   H31711013   0.541   6.151   4.080 -2.5334  0.6471  0.2644
   29MOL   H31811014   0.789   6.319   4.130  0.7445 -0.5710  0.1457
   29MOL   H31911015   0.802   6.072   4.201 -2.7714 -1.1938  0.0611
   29MOL   H32011016   0.736   6.030   4.047 -0.4371 -0.1041  0.1461
   29MOL   H32111017   1.017   6.143   4.079 -0.2912  0.4964 -0.7522
   29MOL   H32211018   0.949   6.069   3.931 -1.2969  0.8985  0.4774
   29MOL   H32311019   0.748   6.208   3.852  0.3967 -0.7195 -0.6441
   29MOL   H32411020   0.861   6.321   3.908  0.1642 -0.7519 -2.4217
   29MOL   C32511021   0.993   5.927   4.083 -0.8933  0.4153 -0.6421
   29MOL   C32611022   0.909   5.814   4.028  0.7129 -0.1142 -0.0804
   29MOL   C32711023   1.000   5.691   4.046  0.2087 -0.5734 -0.3722
   29MOL   C32811024   1.136   5.742   4.011 -0.3318 -0.0802 -0.3279
   29MOL   C32911025   1.250   5.670   4.086  0.1838  0.2096  0.1861
   29MOL   C33011026   1.385   5.681   4.022  0.3791 -0.8910 -0.0062
   29MOL   C33111027   1.136   5.894   4.041 -0.2343  1.1150 -0.9132
   29MOL   H33211028   0.982   5.920   4.191  2.1702 -0.4742 -0.3327
   29MOL   H33311029   0.902   5.810   3.919  0.8576 -0.3623 -0.0795
   29MOL   H33411030   0.809   5.806   4.071  1.1251  2.1160  1.3609
   29MOL   H33511031   0.996   5.664   4.151 -0.7849 -1.1263 -0.5399
   29MOL   H33611032   0.971   5.600   3.992  1.0406 -1.3732  0.5106
   29MOL   H33711033   1.146   5.736   3.903 -3.1239 -0.6015 -0.5925
   29MOL   H33811034   1.248   5.687   4.193  1.3147  0.4536  0.1744
   29MOL   H33911035   1.238   5.562   4.074 -2.5625  0.3164  1.5792
   29MOL   H34011036   1.401   5.617   3.935 -0.4395 -0.0364 -0.7966
   29MOL   H34111037   1.398   5.786   3.998 -0.5037 -0.7755  0.0289
   29MOL   H34211038   1.169   5.950   3.954  0.6943  2.1717  0.1022
   29MOL   H34311039   1.211   5.922   4.116  0.8299 -1.9775 -0.7822
   29MOL   C34411040   1.501   5.655   4.110  0.9542 -0.3166  0.1871
   29MOL   C34511041   1.630   5.677   4.030  0.2434 -0.2098  0.0937
   29MOL   C34611042   1.712   5.559   4.057 -0.5669  0.2057  0.0801
   29MOL   C34711043   1.615   5.447   4.090 -0.2895 -0.3831  0.5496
   29MOL   C34811044   1.683   5.324   4.152 -0.2032 -0.9810  0.1919
   29MOL   C34911045   1.595   5.210   4.203 -0.2930  0.1140  0.0803
   29MOL   C35011046   1.508   5.512   4.179 -0.4680  0.4640  1.4965
   29MOL   H35111047   1.494   5.730   4.189 -0.3074 -0.7320  0.4742
   29MOL   H35211048   1.672   5.775   4.055 -1.1913  0.6081 -0.6316
   29MOL   H35311049   1.608   5.665   3.924 -0.8593 -1.0637  0.4159
   29MOL   H35411050   1.772   5.537   3.969  1.1063 -0.3421  1.3141
   29MOL   H35511051   1.773   5.564   4.148  0.3274 -1.1847 -0.4297
   29MOL   H35611052   1.567   5.417   3.997  0.6906  0.2672 -0.1725
   29MOL   H35711053   1.766   5.289   4.091  1.7699  3.2298  0.2359
   29MOL   H35811054   1.736   5.358   4.241  1.1258 -0.0224 -0.9511
   29MOL   H35911055   1.532   5.179   4.120 -0.8285  0.6100  0.2995
   29MOL   H36011056   1.516   5.237   4.273 -0.4208 -1.6236  0.6280
   29MOL   H36111057   1.421   5.447   4.173 -1.2829  1.6308  0.5259
   29MOL   H36211058   1.539   5.529   4.282 -1.4262  2.1333  1.5297
   29MOL   C36311059   1.680   5.094   4.274 -0.0222 -0.3015 -0.6552
   29MOL   C36411060   1.737   4.982   4.183 -0.1064  0.2474 -0.2260
   29MOL   C36511061   1.762   4.865   4.279 -0.3034 -0.1210 -0.4123
   29MOL   C36611062   1.647   4.878   4.390 -0.3063  0.4559 -0.3789
   29MOL   C36711063   1.541   4.777   4.370  0.1353  0.5476 -0.2355
   29MOL   C36811064   1.406   4.789   4.445 -0.4108 -0.3983  0.4037
   29MOL   C36911065   1.596   5.022   4.386  0.0831 -0.5800 -0.6411
   29MOL   H37011066   1.767   5.136   4.325 -0.6824  0.1840  0.0952
   29MOL   H37111067   1.651   4.962   4.120 -0.0036 -0.7059 -0.0688
   29MOL   H37211068   1.822   5.000   4.117 -1.5729  1.0981 -1.9195
   29MOL   H37311069   1.767   4.769   4.228 -0.4866 -2.0377  3.0542
   29MOL   H37411070   1.861   4.882   4.319 -1.4249  0.9990  1.9770
   29MOL   H37511071   1.690   4.853   4.487 -1.7680 -1.3896 -0.1893
   29MOL   H37611072   1.510   4.777   4.265  0.0157 -0.5061 -0.2042
   29MOL   H37711073   1.573   4.675   4.386  0.6538  0.7820  0.2422
   29MOL   H37811074   1.423   4.808   4.551 -0.7799  0.3498  0.3328
   29MOL   H37911075   1.330   4.714   4.425  0.7811 -1.6890  0.6167
   29MOL   H38011076   1.490   5.023   4.359  0.4790 -1.4331 -2.3005
   29MOL   H38111077   1.602   5.069   4.484  1.7699  0.8486 -1.4065
   29MOL   H38211078   1.360   4.884   4.418 -0.4229 -0.5676 -0.1639
   30MOL     C111079   7.613   6.741   7.111  0.0411  0.2071 -0.5216
   30MOL     C211080   7.481   6.669   7.078  0.2147  0.5658  0.0718
   30MOL     C311081   7.463   6.574   7.199 -0.4732 -0.6710 -0.2004
   30MOL     C411082   7.523   6.647   7.317  0.0622 -0.0677 -0.1503
   30MOL     C511083   7.564   6.554   7.433  0.6457  0.0462  0.4501
   30MOL     C611084   7.615   6.636   7.557  0.1943 -0.2417  0.4784
   30MOL     C711085   7.640   6.724   7.261  0.0297 -0.1654 -0.4276
   30MOL     H811086   0.044   6.683   7.060 -0.1240 -0.4069 -0.0793
   30MOL     H911087   7.475   6.621   6.981  2.7286 -1.3535  0.8196
   30MOL    H1011088   7.408   6.750   7.088 -1.2549 -0.9421  1.9443
   30MOL    H1111089   7.360   6.553   7.229 -0.7056  1.7507  0.7810
   30MOL    H1211090   7.506   6.474   7.194 -0.9484 -0.8504 -0.9328
   30MOL    H1311091   7.438   6.701   7.359  1.7893  0.4395  2.8271
   30MOL    H1411092   7.485   6.486   7.465  2.2220 -1.7273  0.6891
   30MOL    H1511093   7.646   6.491   7.399 -1.1309 -2.4798  0.7893
   30MOL    H1611094   0.056   6.697   7.538  0.9934 -1.9121 -1.4366
   30MOL    H1711095   7.551   6.720   7.581  0.2597 -0.6601  2.1876
   30MOL    H1811096   0.007   6.820   7.311  2.0425  0.5556 -2.2876
   30MOL    H1911097   0.087   6.671   7.275 -0.4775 -0.9092  0.1949
   30MOL    H2011098   7.606   6.844   7.077 -0.4796 -0.0603 -1.2445
   30MOL    C2111099   7.634   6.549   0.030 -0.1336  0.1016 -0.3892
   30MOL    C2211100   0.133   6.509   0.073 -0.3940 -1.1168 -0.1370
   30MOL    C2311101   0.133   6.491   0.227 -0.3668 -0.2698 -0.1890
   30MOL    C2411102   0.007   6.552   0.277  0.1080  0.3173  0.2102
   30MOL    C2511103   0.017   6.641   0.402  0.5152 -0.0625  0.0018
   30MOL    C2611104   0.083   6.558   0.515 -0.0848 -0.6754 -0.2235
   30MOL    C2711105   7.607   6.639   0.157 -0.2043  0.3941 -0.5255
   30MOL    H2811106   7.563   6.466   0.025  1.5354 -1.3575 -0.4022
   30MOL    H2911107   0.163   6.408   0.043 -2.7161 -1.2262 -2.3142
   30MOL    H3011108   0.206   6.585   0.047 -0.5183  0.0619  2.8295
   30MOL    H3111109   0.139   6.386   0.255 -2.6270 -0.3594  0.0922
   30MOL    H3211110   0.215   6.547   0.272  0.7301 -1.2912 -0.9002
   30MOL    H3311111   7.571   6.482   0.283  1.5755 -1.5998 -0.9649
   30MOL    H3411112   7.569   6.672   0.444  0.4974 -0.1348  0.0131
   30MOL    H3511113   0.063   6.739   0.388 -1.8264  1.1693  0.5897
   30MOL    H3611114   0.182   6.516   0.498  0.8154  1.7722 -1.3451
   30MOL    H3711115   0.004   6.488   0.541 -1.5325  0.6344 -1.0007
   30MOL    H3811116   7.504   6.668   0.179 -0.4599 -1.4013  0.6852
   30MOL    H3911117   0.017   6.730   0.138  1.7156 -0.7939 -0.5580
   30MOL    C4011118   0.091   6.644   0.650  0.7651 -0.5170  0.6264
   30MOL    C4111119   0.155   6.572   0.776  0.2831  1.1352  1.0633
   30MOL    C4211120   0.209   6.677   0.863  0.6432  0.0436 -0.0319
   30MOL    C4311121   0.254   6.790   0.766 -0.1179  0.1646 -0.5566
   30MOL    C4411122   0.267   6.924   0.835 -0.4135 -0.0600 -0.5368
   30MOL    C4511123   0.318   7.048   0.747  0.2036 -0.5708 -0.1574
   30MOL    C4611124   0.165   6.775   0.646 -0.0680 -0.2209  0.1972
   30MOL    H4711125   7.637   6.663   0.684  0.0281 -0.5988 -1.4812
   30MOL    H4811126   0.232   6.502   0.744 -0.3224  1.1147 -0.4250
   30MOL    H4911127   0.086   6.503   0.824  2.7936 -2.4511 -0.2559
   30MOL    H5011128   0.130   6.707   0.932  1.1122  0.2052  0.4396
   30MOL    H5111129   0.298   6.643   0.916  2.0855  1.1375 -1.6846
   30MOL    H5211130   0.353   6.752   0.737 -0.2807  0.3083 -1.3224
   30MOL    H5311131   0.170   6.950   0.877 -1.8602 -0.9930 -3.1790
   30MOL    H5411132   0.333   6.912   0.921  1.0580 -2.2593 -1.9294
   30MOL    H5511133   0.267   7.048   0.651  1.3825 -1.0325 -0.7904
   30MOL    H5611134   0.426   7.034   0.736  0.1874  0.3871 -1.5827
   30MOL    H5711135   0.107   6.862   0.616  0.5986  1.2316  2.9894
   30MOL    H5811136   0.237   6.769   0.564  1.9068 -0.7179  1.9362
   30MOL    C5911137   0.302   7.191   0.804 -0.5867 -0.7769  0.0889
   30MOL    C6011138   0.389   7.292   0.727  0.3947 -0.3091  0.0837
   30MOL    C6111139   0.294   7.412   0.707  0.2853  0.8159  0.3027
   30MOL    C6211140   0.154   7.351   0.688  0.0821  0.0130 -0.3249
   30MOL    C6311141   0.033   7.445   0.671 -0.4232 -0.2370 -0.0029
   30MOL    C6411142   0.007   7.534   0.790  0.6441 -0.7984  0.6657
   30MOL    C6511143   0.154   7.236   0.793  0.3162  0.2247 -0.2147
   30MOL    H6611144   0.331   7.202   0.908  0.5902 -1.0147 -0.2074
   30MOL    H6711145   0.482   7.308   0.781  0.3241 -2.8134  0.9879
   30MOL    H6811146   0.414   7.253   0.628  0.4093 -1.6189  0.6050
   30MOL    H6911147   0.301   7.460   0.804 -0.6228  0.5478  0.5040
   30MOL    H7011148   0.337   7.479   0.632 -0.0106 -0.9317 -1.4945
   30MOL    H7111149   0.144   7.299   0.593 -1.3278  0.1555 -0.2645
   30MOL    H7211150   7.596   7.377   0.655 -1.6496  1.3000 -0.2350
   30MOL    H7311151   0.053   7.497   0.578  4.0158 -0.1766  0.8774
   30MOL    H7411152   0.101   7.545   0.844  1.9264  1.2395 -1.8769
   30MOL    H7511153   7.628   7.635   0.760 -0.3084 -1.3588 -0.4229
   30MOL    H7611154   0.114   7.282   0.883 -3.0829 -1.2213 -0.9211
   30MOL    H7711155   0.093   7.154   0.757  1.7341 -0.3123 -1.4269
   30MOL    C7811156   7.547   7.475   0.875 -0.1294  0.2357 -0.0284
   30MOL    C7911157   7.526   7.568   1.000  0.3120  0.0482  0.3327
   30MOL    C8011158   7.386   7.540   1.059 -0.1749  0.2582 -1.0215
   30MOL    C8111159   7.307   7.498   0.937 -0.3246 -0.0858 -0.3541
   30MOL    C8211160   7.196   7.593   0.892  0.7617  0.2764  0.5413
   30MOL    C8311161   7.086   7.608   1.000 -0.2473 -0.2322 -0.3108
   30MOL    C8411162   7.409   7.478   0.814  1.0881 -0.2344 -0.4931
   30MOL    H8511163   7.574   7.376   0.913 -0.0393  0.9902  1.8725
   30MOL    H8611164   7.607   7.550   1.071  1.4188 -1.0384 -1.1691
   30MOL    H8711165   7.542   0.026   0.974 -0.2599 -0.5006 -2.3646
   30MOL    H8811166   7.382   7.451   1.122 -1.2225 -0.2051 -1.7268
   30MOL    H8911167   7.342   7.626   1.110  0.2661 -1.4113  2.3299
   30MOL    H9011168   7.259   7.403   0.961 -0.8749  0.3731  0.4013
   30MOL    H9111169   7.159   7.557   0.796  2.1992  0.7540 -0.2135
   30MOL    H9211170   7.245   0.041   0.871  2.2989 -1.3531 -3.8483
   30MOL    H9311171   7.130   7.635   1.096 -1.8425  1.8821 -0.1497
   30MOL    H9411172   7.036   7.512   1.016  0.3210 -0.3873  0.5978
   30MOL    H9511173   7.394   7.564   0.748 -1.2235 -1.1431 -1.1996
   30MOL    H9611174   7.380   7.395   0.751 -1.7214  1.1143 -1.0296
   30MOL    C9711175   6.986   0.067   0.964 -0.0296 -0.4688  0.1557
   30MOL    C9811176   6.862   0.095   1.056 -0.0412 -0.7129  0.4036
   30MOL    C9911177   6.756   0.165   0.966 -0.0693  0.3473 -0.0417
   30MOL   C10011178   6.806   0.139   0.822  0.4025  0.2460 -0.0345
   30MOL   C10111179   6.694   0.110   0.722 -0.7098 -0.0667  0.6502
   30MOL   C10211180   6.731   0.133   0.571  0.6530  0.3403 -0.2766
   30MOL   C10311181   6.923   0.041   0.829 -1.2030 -0.5003 -0.0252
   30MOL   H10411182   7.046   0.156   0.946  0.3504 -0.6465  0.5228
   30MOL   H10511183   6.818   7.646   1.083 -1.4214 -0.3931 -0.6539
   30MOL   H10611184   6.892   0.148   1.147 -0.6039 -0.5421  0.4902
   30MOL   H10711185   6.657   0.129   0.991  0.7597 -0.7289  1.8029
   30MOL   H10811186   6.764   0.271   0.993  0.8279 -0.0299  1.2263
   30MOL   H10911187   6.858   0.230   0.792  0.9439  0.1344  0.5662
   30MOL   H11011188   6.659   0.009   0.742  0.2344 -0.4078  0.6083
   30MOL   H11111189   6.610   0.177   0.744 -0.1890  1.4135 -1.6783
   30MOL   H11211190   6.777   0.230   0.552  0.8747  0.3089  0.0849
   30MOL   H11311191   6.813   0.065   0.547  0.8720  1.0420 -1.5359
   30MOL   H11411192   6.887   7.586   0.818 -0.3317 -0.5216 -3.1070
   30MOL   H11511193   6.983   0.055   0.739 -0.1384  3.6377  1.1781
   30MOL   C11611194   6.623   0.088   0.469 -0.0893 -0.2774  0.9355
   30MOL   C11711195   6.648   0.133   0.318  0.4245  0.2533  0.6784
   30MOL   C11811196   6.579   0.033   0.221 -0.0304 -0.6003  0.2937
   30MOL   C11911197   6.527   7.571   0.313 -0.2753 -0.2346  1.0510
   30MOL   C12011198   6.520   7.426   0.252  0.3489  0.6311  0.3536
   30MOL   C12111199   6.422   7.341   0.340 -0.6666 -0.3612  0.3020
   30MOL   C12211200   6.593   7.588   0.453 -0.1091 -0.1190  0.4047
   30MOL   H12311201   6.527   0.126   0.503  0.4186 -2.0228  4.5940
   30MOL   H12411202   6.756   0.129   0.303  0.4140  0.8357  0.4330
   30MOL   H12511203   6.620   0.235   0.292 -2.2747 -0.0640  2.2169
   30MOL   H12611204   6.660   7.642   0.159 -0.2578  0.9000 -0.9508
   30MOL   H12711205   6.497   0.069   0.159 -0.0443 -0.7168  0.2443
   30MOL   H12811206   6.425   7.606   0.322  0.2896  0.9090  3.2088
   30MOL   H12911207   6.610   7.368   0.271  0.1611  1.1208  2.9003
   30MOL   H13011208   6.491   7.438   0.148  0.9577  0.8657  0.2033
   30MOL   H13111209   6.327   7.394   0.342 -0.7999 -0.6453  2.5700
   30MOL   H13211210   6.459   7.339   0.442 -2.2797 -0.4394  0.8876
   30MOL   H13311211   6.526   7.554   0.532 -1.4819 -0.6807 -0.9730
   30MOL   H13411212   6.680   7.527   0.480  0.1037 -0.1623 -0.3627
   30MOL   C13511213   6.407   7.195   0.284  0.0221 -0.3761  0.0873
   30MOL   C13611214   6.300   7.107   0.351 -0.4563 -0.2542  0.0616
   30MOL   C13711215   6.294   6.992   0.252 -0.6296 -0.3222  0.2988
   30MOL   C13811216   6.299   7.068   0.117  0.4775  0.4860  0.3560
   30MOL   C13911217   6.355   6.985   0.002  0.4165  0.2601 -0.4127
   30MOL   C14011218   6.275   6.853   7.618 -0.2559 -0.3104 -0.3159
   30MOL   C14111219   6.367   7.200   0.141 -0.3195 -0.1337  0.2585
   30MOL   H14211220   6.500   7.140   0.276  0.0710 -0.1469 -0.9517
   30MOL   H14311221   6.325   7.059   0.445 -1.1237 -1.2178 -0.2449
   30MOL   H14411222   6.204   7.155   0.367 -0.2262  0.8499 -1.7262
   30MOL   H14511223   6.382   6.929   0.258 -0.2956  0.0177 -0.8788
   30MOL   H14611224   6.207   6.928   0.272 -1.4530  1.2004  1.7134
   30MOL   H14711225   6.198   7.093   0.085  0.7633  0.8782 -0.2657
   30MOL   H14811226   6.458   6.950   0.013  0.9538  2.0313  0.3648
   30MOL   H14911227   6.358   7.049   7.561  0.0515  0.5856 -0.1902
   30MOL   H15011228   6.318   6.788   0.047 -1.0066 -0.6505 -0.1811
   30MOL   H15111229   6.172   6.869   0.003 -0.7796 -0.9653 -1.6500
   30MOL   H15211230   6.301   7.280   0.109  1.8543  1.8309  0.5908
   30MOL   H15311231   6.463   7.212   0.090 -1.3304  1.5634 -1.2597
   30MOL   C15411232   6.296   6.794   7.476  0.3810 -0.0957  0.0086
   30MOL   C15511233   6.231   6.659   7.450 -0.0891 -0.2524 -0.8673
   30MOL   C15611234   6.304   6.601   7.322 -0.2874  0.2010  0.4626
   30MOL   C15711235   6.425   6.695   7.304 -0.2906  0.4090 -0.2262
   30MOL   C15811236   6.565   6.637   7.265  0.4447  0.4258  0.6053
   30MOL   C15911237   6.654   6.746   7.196 -0.3475  0.6296  0.4726
   30MOL   C16011238   6.435   6.776   7.433 -0.7899  0.4322  0.2510
   30MOL   H16111239   6.251   6.869   7.411  1.3422  0.6648  0.1973
   30MOL   H16211240   6.248   6.605   7.543  1.2348 -0.3312 -1.1412
   30MOL   H16311241   6.124   6.679   7.438  0.1756  1.7843 -0.1034
   30MOL   H16411242   6.331   6.499   7.349  1.2611  0.2102 -0.9280
   30MOL   H16511243   6.243   6.610   7.232 -0.8831 -3.3624  0.4624
   30MOL   H16611244   6.401   6.765   7.224 -0.0543 -0.8547 -1.4167
   30MOL   H16711245   6.561   6.555   7.193  0.3996  2.6187 -1.9621
   30MOL   H16811246   6.616   6.603   7.355  1.6858  0.6066 -0.0304
   30MOL   H16911247   6.601   6.775   7.105  2.1390  0.0789 -1.1842
   30MOL   H17011248   6.663   6.828   7.268 -0.9529 -1.3564  2.9086
   30MOL   H17111249   6.486   6.871   7.414  0.2850 -0.0979  0.4916
   30MOL   H17211250   6.493   6.737   7.516  0.9599  1.8400 -0.2770
   30MOL   C17311251   6.801   6.712   7.162 -0.2676 -0.3446  0.0643
   30MOL   C17411252   6.801   6.611   7.043 -0.2774  0.0750  0.0773
   30MOL   C17511253   6.900   6.668   6.942 -0.0758 -0.0310 -0.2219
   30MOL   C17611254   6.990   6.764   7.024 -0.0677 -0.1510 -0.0091
   30MOL   C17711255   7.080   6.860   6.945  0.1722 -0.6624 -0.2677
   30MOL   C17811256   7.162   6.797   6.836 -0.1112  0.5777  0.7111
   30MOL   C17911257   6.886   6.832   7.117 -0.0770 -0.2935  0.0551
   30MOL   H18011258   6.847   6.674   7.253  0.6789 -2.1419 -1.1279
   30MOL   H18111259   6.709   6.585   6.990 -0.2629  0.4849 -0.1494
   30MOL   H18211260   6.851   6.518   7.071 -0.1524 -0.8319 -2.9084
   30MOL   H18311261   6.955   6.592   6.886  0.4493  0.7868 -0.8342
   30MOL   H18411262   6.847   6.731   6.870  0.1299 -1.5366 -1.7026
   30MOL   H18511263   7.046   6.692   7.084  0.3142 -1.7531 -2.2186
   30MOL   H18611264   7.147   6.926   7.000  0.3051  0.2864 -1.5466
   30MOL   H18711265   7.011   6.928   6.896  0.8604  0.0277 -0.2976
   30MOL   H18811266   7.102   6.726   6.779  1.6804  0.5925 -1.2847
   30MOL   H18911267   7.235   6.735   6.890 -0.6297 -0.8741 -0.2174
   30MOL   H19011268   6.836   6.909   7.058  2.3420  1.0952 -0.2086
   30MOL   H19111269   6.935   6.890   7.194  1.9640 -0.5299 -1.0410
   30MOL   C19211270   7.231   6.882   6.730 -0.6345 -0.1731  0.8236
   30MOL   C19311271   7.137   6.917   6.611 -0.0114 -0.6263 -0.1736
   30MOL   C19411272   7.228   6.932   6.489  0.0479  0.3943 -0.1713
   30MOL   C19511273   7.326   6.814   6.512 -0.4112  1.3040  0.2951
   30MOL   C19611274   7.460   6.822   6.425 -0.1502  0.4346 -0.4079
   30MOL   C19711275   7.437   6.777   6.276 -0.1011  0.5702 -0.4658
   30MOL   C19811276   7.351   6.804   6.664 -0.2634 -0.6085 -1.1599
   30MOL   H19911277   7.271   6.973   6.774  0.8280 -0.7059  0.5995
   30MOL   H20011278   7.075   6.834   6.579 -1.9424  0.7584 -0.1183
   30MOL   H20111279   7.079   7.008   6.624 -0.5741 -1.1513  1.0759
   30MOL   H20211280   7.283   7.026   6.492  0.1086  0.3550 -0.0561
   30MOL   H20311281   7.185   6.922   6.389 -0.7347 -2.2395  0.4061
   30MOL   H20411282   7.273   6.728   6.471 -0.1414  1.8507 -1.2518
   30MOL   H20511283   7.515   6.742   6.474 -1.6284  0.5453  1.4778
   30MOL   H20611284   7.520   6.912   6.434  0.2411  0.0806  0.5143
   30MOL   H20711285   7.371   6.849   6.228 -2.1490  0.4219  2.0209
   30MOL   H20811286   7.389   6.679   6.279  1.2008 -0.0733 -0.1530
   30MOL   H20911287   7.448   6.844   6.694 -0.7231  0.9315 -1.6924
   30MOL   H21011288   7.349   6.701   6.698 -1.0292 -0.2886 -0.1911
   30MOL   C21111289   7.568   6.766   6.193 -0.2765  0.2982  0.2514
   30MOL   C21211290   0.003   6.885   6.181 -0.3513 -0.6580 -0.3872
   30MOL   C21311291   0.055   6.898   6.038  0.4144  0.1559 -0.1181
   30MOL   C21411292   0.034   6.770   5.968  0.3829  0.9782 -0.5965
   30MOL   C21511293   0.023   6.789   5.819 -0.4864 -0.0325 -0.1616
   30MOL   C21611294   7.647   6.655   5.740  0.3455 -0.2624  0.2873
   30MOL   C21711295   7.559   6.717   6.048  1.1716 -0.8871  0.4207
   30MOL   H21811296   7.621   6.681   6.236 -0.8844  0.2084  0.8426
   30MOL   H21911297   7.605   6.978   6.213 -0.6315 -0.6737 -0.7313
   30MOL   H22011298   0.092   6.861   6.239 -0.0029  0.0784 -0.6176
   30MOL   H22111299   7.632   6.965   5.988  0.4264 -0.5330 -1.0775
   30MOL   H22211300   0.151   6.946   6.017 -0.2460  1.0686 -1.1324
   30MOL   H22311301   0.112   6.697   5.989  0.1533  0.0781 -2.6975
   30MOL   H22411302   0.109   6.843   5.778 -2.5641  2.0517 -1.9892
   30MOL   H22511303   7.579   6.846   5.801 -0.3384  0.1600 -0.3201
   30MOL   H22611304   0.075   6.578   5.759  0.5105 -0.3839 -0.8141
   30MOL   H22711305   7.553   6.623   5.785 -1.6011  0.7652 -2.9188
   30MOL   H22811306   7.556   6.608   6.052  1.5800 -1.0206 -2.1014
   30MOL   H22911307   7.466   6.748   5.999  1.9730 -1.1725 -1.3360
   30MOL   C23011308   7.614   6.674   5.589  0.6537  1.0809  0.4486
   30MOL   C23111309   7.590   6.542   5.519  0.0760  0.3676 -0.4410
   30MOL   C23211310   7.595   6.588   5.371  0.3422 -0.2280 -0.1144
   30MOL   C23311311   0.075   6.673   5.367 -0.2783  0.1585 -0.5492
   30MOL   C23411312   0.072   6.792   5.265 -0.0989 -0.1549 -0.1754
   30MOL   C23511313   0.052   6.762   5.118  0.2099  0.2901  0.1850
   30MOL   C23611314   0.083   6.724   5.515  0.3711 -0.0379 -0.2133
   30MOL   H23711315   7.534   6.748   5.577 -0.1587 -0.0037 -0.9653
   30MOL   H23811316   0.027   6.475   5.536  1.7731  1.3750 -4.2506
   30MOL   H23911317   7.505   6.488   5.561 -1.2687  2.3210 -0.5846
   30MOL   H24011318   7.511   6.653   5.347  0.4106 -0.1893 -0.2546
   30MOL   H24111319   7.598   6.505   5.300  2.2268 -1.1452  1.0218
   30MOL   H24211320   0.157   6.605   5.345  0.2289  0.5148  0.2033
   30MOL   H24311321   0.156   6.857   5.287  0.5098 -1.3364  1.1006
   30MOL   H24411322   7.632   6.851   5.296  0.3163 -0.9843  2.7871
   30MOL   H24511323   7.628   6.682   5.099 -0.0542  0.2695  1.2326
   30MOL   H24611324   7.643   6.844   5.072 -2.2100 -0.6087  1.4487
   30MOL   H24711325   0.074   6.833   5.518  0.7713 -0.0233  0.5673
   30MOL   H24811326   0.173   6.687   5.563 -0.1750 -1.3467 -0.1708
   30MOL   C24911327   0.185   6.730   5.048  0.5523  0.6986 -0.4494
   30MOL   C25011328   0.235   6.587   5.060 -0.5120  0.4765  0.9643
   30MOL   C25111329   0.326   6.559   4.936 -0.3086  0.5737  0.9132
   30MOL   C25211330   0.260   6.642   4.823  0.3303  0.0789 -0.3915
   30MOL   C25311331   0.357   6.693   4.714 -0.1145 -0.4542 -0.1526
   30MOL   C25411332   0.403   6.572   4.622  0.0988 -0.5230 -0.2215
   30MOL   C25511333   0.186   6.759   4.896  0.0732  0.3762  0.1296
   30MOL   H25611334   0.256   6.798   5.095 -2.2771  1.1331  3.5162
   30MOL   H25711335   0.284   6.585   5.157 -0.1867 -0.8250  0.7862
   30MOL   H25811336   0.145   6.526   5.054  0.0233 -0.0411 -3.1306
   30MOL   H25911337   0.328   6.452   4.918 -0.0041  0.7572 -0.1517
   30MOL   H26011338   0.431   6.582   4.955 -0.2381  1.2517 -0.2961
   30MOL   H26111339   0.187   6.579   4.773  0.3688  1.5193 -2.3097
   30MOL   H26211340   0.449   6.725   4.761 -0.8651  0.5430  0.6434
   30MOL   H26311341   0.324   6.777   4.654  0.4843 -0.3854 -0.3839
   30MOL   H26411342   0.320   6.529   4.565  1.3661 -0.1510 -2.3840
   30MOL   H26511343   0.446   6.502   4.694 -1.4794 -2.1064 -0.7848
   30MOL   H26611344   0.088   6.761   4.848  0.4648 -2.4884 -0.8937
   30MOL   H26711345   0.245   6.846   4.868 -0.3795  0.7758  0.4181
   30MOL   C26811346   0.505   6.611   4.510 -0.3700 -0.0241  0.0547
   30MOL   C26911347   0.501   6.511   4.389 -0.6209 -0.0761 -0.0677
   30MOL   C27011348   0.637   6.525   4.320  0.1978 -0.0890  0.6349
   30MOL   C27111349   0.726   6.601   4.417 -0.1423  0.9201 -0.1361
   30MOL   C27211350   0.869   6.543   4.425  0.4857  0.0081  0.1023
   30MOL   C27311351   0.961   6.577   4.307  0.0187 -1.1034  0.0765
   30MOL   C27411352   0.653   6.618   4.551  0.4174  0.3660  1.9340
   30MOL   H27511353   0.485   6.714   4.480  1.3353  1.3689  3.3771
   30MOL   H27611354   0.492   6.412   4.435 -2.1815 -0.4658 -1.1870
   30MOL   H27711355   0.416   6.531   4.325 -0.1674  0.5183 -0.4853
   30MOL   H27811356   0.680   6.426   4.302  0.2124  0.1661 -0.7846
   30MOL   H27911357   0.617   6.578   4.227 -2.6496 -0.4423  1.0238
   30MOL   H28011358   0.737   6.702   4.379  0.9555  0.7737 -0.2193
   30MOL   H28111359   0.853   6.435   4.424 -2.3837  0.3697  0.8320
   30MOL   H28211360   0.917   6.573   4.518 -1.8461  2.0605  0.7045
   30MOL   H28311361   0.904   6.548   4.219  0.3236  0.7738 -0.7827
   30MOL   H28411362   0.969   6.685   4.291 -0.0631 -0.8985  1.3840
   30MOL   H28511363   0.683   6.538   4.619  2.5951 -0.0757  0.5132
   30MOL   H28611364   0.685   6.707   4.605  2.0855  0.2084  1.2498
   30MOL   C28711365   1.099   6.515   4.316 -1.1140 -0.4335 -0.1050
   30MOL   C28811366   1.186   6.518   4.189 -0.1547 -0.1003 -0.0510
   30MOL   C28911367   1.326   6.506   4.249  0.1566  0.0234  0.5184
   30MOL   C29011368   1.327   6.526   4.402 -0.1361 -0.4186 -0.5453
   30MOL   C29111369   1.447   6.607   4.456  0.2255  0.0626 -0.0196
   30MOL   C29211370   1.435   6.628   4.608 -0.0399  0.6154 -0.1541
   30MOL   C29311371   1.184   6.586   4.425 -0.1854  0.5573 -0.4865
   30MOL   H29411372   1.090   6.409   4.342  0.3394 -0.6357 -0.3956
   30MOL   H29511373   1.149   6.454   4.109 -0.6382 -0.7998  0.7248
   30MOL   H29611374   1.177   6.619   4.148  0.8342 -0.7808 -2.0334
   30MOL   H29711375   1.396   6.578   4.206 -1.2194  2.1244  1.6437
   30MOL   H29811376   1.359   6.409   4.214 -1.7921 -0.4692 -0.0310
   30MOL   H29911377   1.319   6.430   4.454  0.4430 -0.3930 -0.4022
   30MOL   H30011378   1.441   6.706   4.411 -0.4061 -0.0988 -0.2874
   30MOL   H30111379   1.536   6.549   4.433  0.2216  0.9858 -2.4446
   30MOL   H30211380   1.412   6.531   4.652 -0.2496  0.3777 -0.7882
   30MOL   H30311381   1.347   6.691   4.623 -2.2364 -2.2034 -0.7921
   30MOL   H30411382   1.175   6.694   4.410 -0.3292  0.8517  1.5493
   30MOL   H30511383   1.139   6.556   4.519 -2.1756 -0.4169 -1.7259
   30MOL   C30611384   1.571   6.682   4.662  0.1627 -0.1451 -0.7222
   30MOL   C30711385   1.604   6.814   4.594  0.2478 -0.0747 -0.6789
   30MOL   C30811386   1.698   6.887   4.687 -0.1246 -0.0378 -0.7045
   30MOL   C30911387   1.693   6.812   4.824 -0.3978 -0.9658 -0.2492
   30MOL   C31011388   1.687   6.911   4.939 -0.0266  0.2726 -0.7722
   30MOL   C31111389   1.720   6.848   5.081  1.0893 -0.4485 -0.5318
   30MOL   C31211390   1.584   6.709   4.819 -0.0028  0.7369  0.1660
   30MOL   H31311391   1.646   6.604   4.648  0.9623  0.4410  0.2398
   30MOL   H31411392   1.653   6.811   4.497 -0.3598  0.0469 -0.9905
   30MOL   H31511393   1.521   6.883   4.581  0.5781  0.4470 -0.0619
   30MOL   H31611394   1.801   6.880   4.650  0.4310  1.6207  0.4588
   30MOL   H31711395   1.676   6.993   4.700  1.3807 -0.0143  2.0849
   30MOL   H31811396   1.793   6.768   4.830  0.1093  0.1805 -0.2409
   30MOL   H31911397   1.752   6.992   4.909 -0.0058  1.0380  1.2687
   30MOL   H32011398   1.583   6.945   4.940  0.0180  0.4108  0.1816
   30MOL   H32111399   1.827   6.828   5.084  0.8818 -1.9987 -2.1725
   30MOL   H32211400   1.672   6.751   5.089  0.2461  0.1119  1.5677
   30MOL   H32311401   1.488   6.748   4.854  0.7383  2.1649  0.6615
   30MOL   H32411402   1.613   6.625   4.881 -0.4311  0.7233  0.3519
   30MOL   C32511403   1.682   6.944   5.192  0.2313 -0.8570 -0.1582
   30MOL   C32611404   1.722   6.885   5.324 -0.4306  0.2126  0.3531
   30MOL   C32711405   1.674   7.000   5.417  0.5250 -0.3743  0.1358
   30MOL   C32811406   1.709   7.141   5.350  0.1386  0.1699 -0.1608
   30MOL   C32911407   1.613   7.255   5.373  0.1884 -0.2562  0.1108
   30MOL   C33011408   1.687   7.389   5.407  0.5261 -0.1543  0.2812
   30MOL   C33111409   1.728   7.101   5.202 -0.0758  1.0598  0.1259
   30MOL   H33211410   1.574   6.947   5.189  0.2960  0.5531 -1.5621
   30MOL   H33311411   1.830   6.870   5.329 -0.2693 -0.4384 -3.2604
   30MOL   H33411412   1.675   6.788   5.342  2.4931 -1.4428 -0.3831
   30MOL   H33511413   1.565   6.992   5.419  0.5146  0.1701  2.9313
   30MOL   H33611414   1.709   6.983   5.518 -1.5728  0.1486  0.9848
   30MOL   H33711415   1.810   7.158   5.389  1.2023 -1.8668 -1.8871
   30MOL   H33811416   1.543   7.277   5.292 -1.9809 -1.7948  1.5146
   30MOL   H33911417   1.559   7.233   5.465  1.6392  0.1181  1.0647
   30MOL   H34011418   1.616   7.459   5.451  1.3419  1.5554 -1.0800
   30MOL   H34111419   1.762   7.372   5.484  1.5990  0.2760 -0.6573
   30MOL   H34211420   1.835   7.102   5.182 -0.0731 -1.7377 -0.2358
   30MOL   H34311421   1.687   7.156   5.117  0.9971  1.3021 -0.2406
   30MOL   C34411422   1.748   7.466   5.294  0.1911  0.1271  0.7265
   30MOL   C34511423   1.811   7.600   5.345 -0.3190  0.2630 -0.4554
   30MOL   C34611424   1.794   0.050   5.233 -0.1932  0.1555 -0.2121
   30MOL   C34711425   1.680   0.004   5.145  0.7680 -0.2222 -0.0727
   30MOL   C34811426   1.711   0.017   4.994 -1.0582 -0.0646  0.4053
   30MOL   C34911427   1.591   7.646   4.887  0.0019 -0.3590 -0.7348
   30MOL   C35011428   1.654   7.505   5.178 -0.1588  0.5580  0.4203
   30MOL   H35111429   1.829   7.403   5.257  0.0220 -0.4231  1.2873
   30MOL   H35211430   1.916   7.592   5.373 -0.0961 -0.7155 -1.5301
   30MOL   H35311431   1.755   7.639   5.430  2.2923  2.3111  0.3974
   30MOL   H35411432   1.794   0.153   5.269  1.2361 -0.0684  0.4616
   30MOL   H35511433   1.885   0.049   5.172  0.1339 -0.9744  0.2694
   30MOL   H35611434   1.591   0.063   5.168 -0.3681 -2.4054  1.3657
   30MOL   H35711435   1.743   0.119   4.976 -0.4195 -0.4460 -0.7182
   30MOL   H35811436   1.803   7.619   4.955 -1.7632  0.6931 -2.2694
   30MOL   H35911437   1.500   0.044   4.924  1.3166  1.1487  0.6853
   30MOL   H36011438   1.571   7.539   4.893 -3.2365  0.3391  2.1833
   30MOL   H36111439   1.549   7.486   5.200 -0.7498  3.6229  0.5043
   30MOL   H36211440   1.681   7.453   5.085  1.1429  1.7062  0.1428
   30MOL   C36311441   1.617   0.029   4.740  0.2915 -0.3596  1.0155
   30MOL   C36411442   1.662   0.173   4.718  0.7877 -0.2231  0.1764
   30MOL   C36511443   1.634   0.206   4.570 -0.5197  0.3243  0.3119
   30MOL   C36611444   1.547   0.093   4.511  0.2415  0.0600  0.1337
   30MOL   C36711445   1.434   0.126   4.413 -0.1590  0.5982 -0.2735
   30MOL   C36811446   1.356   0.004   4.365 -0.2708 -0.0323  0.5915
   30MOL   C36911447   1.497   0.015   4.635  0.2823 -0.5728  0.7660
   30MOL   H37011448   1.692   7.605   4.707 -0.2567 -0.7844  0.6826
   30MOL   H37111449   1.608   0.235   4.790  0.6765  0.4061 -0.4377
   30MOL   H37211450   1.769   0.176   4.738  0.4599 -1.3444  2.2110
   30MOL   H37311451   1.572   0.296   4.573 -1.4794 -0.2693 -1.4610
   30MOL   H37411452   1.727   0.220   4.515  0.2090 -2.0829  0.8915
   30MOL   H37511453   1.616   0.020   4.468 -2.1369 -1.6843 -0.8424
   30MOL   H37611454   1.369   0.190   4.473 -0.2458 -0.8011  1.1360
   30MOL   H37711455   1.464   0.175   4.320  0.1742 -1.1435 -1.0953
   30MOL   H37811456   1.315   7.597   4.450  0.7767  0.1215  1.2000
   30MOL   H37911457   1.424   7.593   4.302 -0.8699  0.4261 -0.5082
   30MOL   H38011458   1.409   0.066   4.673  0.6910  1.5748 -1.0857
   30MOL   H38111459   1.471   7.562   4.600 -0.7878 -0.3618  0.9345
   30MOL   H38211460   1.273   0.029   4.299 -0.4340  1.0636  1.2021
   31MOL     C111461   2.812   0.718   0.779  0.3001 -0.8653 -0.5086
   31MOL     C211462   2.786   0.622   0.896  0.2201  0.3958 -0.6528
   31MOL     C311463   2.668   0.684   0.971  0.4188 -0.4785 -0.2213
   31MOL     C411464   2.575   0.753   0.866  1.0135  0.5623  0.8140
   31MOL     C511465   2.507   0.887   0.910 -0.3131  0.0649  0.4858
   31MOL     C611466   2.430   0.858   1.037  0.1676  0.1935  0.0953
   31MOL     C711467   2.672   0.771   0.738  0.3217  0.0724  0.3585
   31MOL     H811468   2.876   0.793   0.824  0.7948 -0.7385 -1.4009
   31MOL     H911469   2.877   0.591   0.948 -0.1276  2.0823  1.0298
   31MOL    H1011470   2.741   0.532   0.854 -0.6096  0.9513 -0.9575
   31MOL    H1111471   2.626   0.611   1.040  0.4717  0.5813  0.9455
   31MOL    H1211472   2.709   0.770   1.023  0.6533 -0.6911 -0.0597
   31MOL    H1311473   2.494   0.685   0.838  0.9189  1.4788 -1.2178
   31MOL    H1411474   2.595   0.949   0.920  0.2739 -1.0340  2.3438
   31MOL    H1511475   2.448   0.930   0.829  1.9725  2.1171 -0.1398
   31MOL    H1611476   2.367   0.769   1.038 -1.4773  1.3259  1.0444
   31MOL    H1711477   2.498   0.834   1.118  0.1038  0.5490  0.2545
   31MOL    H1811478   2.626   0.710   0.661 -0.1177  1.2425 -0.3299
   31MOL    H1911479   2.673   0.870   0.693 -0.7475  0.8594  1.9939
   31MOL    H2011480   2.872   0.675   0.699 -1.2108 -0.8513 -1.6769
   31MOL    C2111481   2.334   0.981   1.063  0.5168 -0.2490  0.1789
   31MOL    C2211482   2.202   0.989   0.971 -0.0777  1.3796 -0.1597
   31MOL    C2311483   2.094   1.003   1.070  0.2906 -0.5461  0.0989
   31MOL    C2411484   2.150   1.057   1.207 -0.4889 -0.3313 -0.2048
   31MOL    C2511485   2.060   1.030   1.323 -0.6996  0.1010  0.3069
   31MOL    C2611486   1.964   1.145   1.358 -0.2670  0.3167  0.7971
   31MOL    C2711487   2.280   0.976   1.209 -0.1369 -0.4991  0.1094
   31MOL    H2811488   2.387   1.076   1.058  0.5790 -0.1522  2.2023
   31MOL    H2911489   2.215   1.086   0.924 -0.9400  2.0921  1.0408
   31MOL    H3011490   2.187   0.902   0.907  0.0982 -0.7763  2.6172
   31MOL    H3111491   2.010   1.067   1.042 -0.8805 -2.4958 -0.9333
   31MOL    H3211492   2.051   0.904   1.084 -2.4102  0.3965 -1.2116
   31MOL    H3311493   2.178   1.162   1.195  1.2750 -0.7343  0.3011
   31MOL    H3411494   2.128   1.017   1.407  0.6313  0.2968 -0.7240
   31MOL    H3511495   2.005   0.937   1.309 -1.5923  0.4024  1.7258
   31MOL    H3611496   1.949   1.201   1.265  1.8483 -2.9901 -1.6746
   31MOL    H3711497   2.019   1.205   1.429  0.0747  0.2377  0.5994
   31MOL    H3811498   2.352   1.016   1.281 -1.4488  0.5058  0.8870
   31MOL    H3911499   2.263   0.872   1.239  1.0574 -0.7402 -0.0286
   31MOL    C4011500   1.821   1.106   1.409 -0.0811  0.6018  0.3316
   31MOL    C4111501   1.749   1.224   1.473  0.1974 -0.4343 -0.1589
   31MOL    C4211502   1.611   1.203   1.443  0.9373  0.5960 -0.0660
   31MOL    C4311503   1.611   1.152   1.296 -0.1183  0.1504  0.6962
   31MOL    C4411504   1.474   1.084   1.266 -0.5366  1.0893  0.4194
   31MOL    C4511505   1.469   0.998   1.141 -0.0736  0.1596 -0.0126
   31MOL    C4611506   1.731   1.053   1.300  0.6770 -0.0401  0.2324
   31MOL    H4711507   1.832   1.024   1.480  1.1238  1.1363  0.7864
   31MOL    H4811508   1.781   1.324   1.445 -0.8780  0.2003  0.8231
   31MOL    H4911509   1.767   1.217   1.581 -2.0426 -0.3244  0.2400
   31MOL    H5011510   1.564   1.139   1.518 -0.8608 -0.2996 -1.9031
   31MOL    H5111511   1.565   1.301   1.460 -0.0713 -0.2707  2.4701
   31MOL    H5211512   1.638   1.229   1.224  1.3796  0.0681  1.1455
   31MOL    H5311513   1.459   1.023   1.355  1.5630  0.9489  0.6970
   31MOL    H5411514   1.402   1.166   1.268 -1.4635  0.2825  0.6063
   31MOL    H5511515   1.546   0.921   1.140 -0.4316 -0.2053  0.4230
   31MOL    H5611516   1.506   1.051   1.053  0.4279  2.0305  1.3014
   31MOL    H5711517   1.691   0.954   1.321 -0.5276  0.1689 -0.9899
   31MOL    H5811518   1.767   1.043   1.198 -1.6822  3.6526 -1.0629
   31MOL    C5911519   1.336   0.923   1.123  0.3594  0.7023 -0.1130
   31MOL    C6011520   1.229   1.014   1.072 -0.3652  0.1650  0.3326
   31MOL    C6111521   1.135   0.915   0.999  0.4422  0.2377  0.4894
   31MOL    C6211522   1.224   0.802   0.935 -0.7768  0.2971 -0.1706
   31MOL    C6311523   1.152   0.657   0.932 -0.7765 -0.3041 -0.0614
   31MOL    C6411524   1.031   0.659   0.843  0.4336  0.5931  0.1790
   31MOL    C6511525   1.344   0.803   1.023  0.1281  0.0841  0.0441
   31MOL    H6611526   1.306   0.897   1.224  1.0683 -1.9483 -0.5501
   31MOL    H6711527   1.174   1.066   1.149 -0.2355  2.5450 -1.1201
   31MOL    H6811528   1.267   1.091   1.004 -0.7499 -0.0982 -0.1826
   31MOL    H6911529   1.073   0.881   1.081  1.9957  0.2817  1.7005
   31MOL    H7011530   1.081   0.966   0.918 -3.1375  0.2849  2.7973
   31MOL    H7111531   1.240   0.826   0.830  1.7980 -2.3062 -0.4130
   31MOL    H7211532   1.128   0.625   1.033 -0.8145 -1.6458 -0.4863
   31MOL    H7311533   1.229   0.598   0.884 -0.2277 -0.7034  1.2899
   31MOL    H7411534   0.954   0.719   0.892  0.6386  0.7513  0.3097
   31MOL    H7511535   1.058   0.708   0.749 -0.1502 -2.5509 -1.6770
   31MOL    H7611536   1.362   0.707   1.072  0.1378 -0.5728 -1.2179
   31MOL    H7711537   1.434   0.809   0.961  1.4152  2.0326  2.0601
   31MOL    C7811538   0.977   0.517   0.824 -0.0833  0.1744 -0.5120
   31MOL    C7911539   0.832   0.509   0.762  0.2508 -0.3415 -0.0764
   31MOL    C8011540   0.818   0.378   0.677 -0.8696  0.3967  0.0914
   31MOL    C8111541   0.966   0.343   0.649  0.3581  0.2868 -0.1190
   31MOL    C8211542   1.009   0.361   0.504  0.1567 -0.1550  0.0381
   31MOL    C8311543   0.934   0.272   0.402  0.2555 -0.1259  0.3424
   31MOL    C8411544   1.057   0.424   0.739  0.0033 -0.1013 -0.1178
   31MOL    H8511545   0.971   0.480   0.926  0.6530  0.4734 -0.3592
   31MOL    H8611546   0.746   0.538   0.822 -0.0984 -0.3061 -0.5895
   31MOL    H8711547   0.831   0.589   0.687 -1.1606 -0.6627 -0.4255
   31MOL    H8811548   0.778   0.306   0.749  0.4512 -0.8639 -0.4049
   31MOL    H8911549   0.760   0.381   0.585  2.8356 -1.2098 -2.4346
   31MOL    H9011550   0.986   0.237   0.664 -2.2418 -0.1596  0.4784
   31MOL    H9111551   1.117   0.348   0.504 -0.0341 -1.9561  1.1068
   31MOL    H9211552   1.001   0.469   0.495  2.1546  0.0762  0.7072
   31MOL    H9311553   0.829   0.253   0.424 -0.0343  1.8112  0.7144
   31MOL    H9411554   0.966   0.168   0.408  2.6191  0.5433 -0.2414
   31MOL    H9511555   1.129   0.479   0.678  0.3804  0.5423  0.8966
   31MOL    H9611556   1.111   0.355   0.804 -0.7104 -1.4057 -0.8968
   31MOL    C9711557   0.959   0.306   0.256 -0.4698  0.5174  0.1507
   31MOL    C9811558   0.869   0.226   0.165 -0.2593  0.8425  0.0411
   31MOL    C9911559   0.936   0.234   0.021 -0.0924  0.2490 -0.2597
   31MOL   C10011560   1.085   0.239   0.053  0.0699  0.0295 -0.4851
   31MOL   C10111561   1.171   0.121   7.641  0.4844  0.1936 -0.9321
   31MOL   C10211562   1.124   7.628   0.060 -0.5025  0.5538  0.6669
   31MOL   C10311563   1.105   0.273   0.207 -0.0451 -0.5490 -0.5324
   31MOL   H10411564   0.940   0.410   0.230 -0.3207 -0.0758 -2.5318
   31MOL   H10511565   0.869   0.123   0.198  2.3874  0.1926 -1.7377
   31MOL   H10611566   0.770   0.271   0.159  0.3856  2.2656 -0.3904
   31MOL   H10711567   0.913   0.150   7.603  0.1693  0.6921 -0.9296
   31MOL   H10811568   0.899   0.325   7.621 -0.2908 -0.0363 -0.6511
   31MOL   H10911569   1.127   0.322   7.644  0.4291  2.2146  2.9030
   31MOL   H11011570   1.152   0.112   7.534  0.2288 -1.2379 -0.7817
   31MOL   H11111571   1.278   0.136   0.004  0.6970 -1.7463 -0.1895
   31MOL   H11211572   1.150   7.615   0.165  0.5652 -2.0448  0.1143
   31MOL   H11311573   1.017   7.618   0.043 -0.1504 -1.3743 -0.5840
   31MOL   H11411574   1.147   0.184   0.254 -0.6794  0.3699  1.8414
   31MOL   H11511575   1.179   0.352   0.219  1.1627 -1.8567  0.8083
   31MOL   C11611576   1.192   7.514   7.632 -0.5644  0.1858  0.1629
   31MOL   C11711577   1.346   7.516   7.613 -0.4338 -0.1536  0.0600
   31MOL   C11811578   1.400   7.375   7.612  0.0696  0.5124  0.1985
   31MOL   C11911579   1.276   7.283   7.618 -0.2235  0.2008 -0.2090
   31MOL   C12011580   1.305   7.152   0.040 -0.0853 -0.5444 -0.1403
   31MOL   C12111581   1.388   7.047   7.606 -0.2651 -0.9501  0.5937
   31MOL   C12211582   1.178   7.367   0.050  0.4153 -0.1309  0.0071
   31MOL   H12311583   1.157   7.517   7.528 -1.2737 -1.1671  0.3533
   31MOL   H12411584   1.395   7.566   0.049  0.6012  1.6464 -1.5737
   31MOL   H12511585   1.370   7.581   7.529  1.7916  0.2476  0.9862
   31MOL   H12611586   1.460   7.356   0.054 -1.2863 -0.1725  0.9701
   31MOL   H12711587   1.464   7.360   7.525 -0.2036  1.0858 -0.1039
   31MOL   H12811588   1.239   7.259   7.518  0.0764 -0.8474 -0.0831
   31MOL   H12911589   1.206   7.110   0.056  0.6472 -2.3596 -0.1829
   31MOL   H13011590   1.350   7.164   0.139  2.0220  1.3708 -1.2793
   31MOL   H13111591   1.488   7.085   7.583  0.2572 -1.7772  1.4312
   31MOL   H13211592   1.336   7.027   7.513 -0.9934  0.0316  0.7777
   31MOL   H13311593   1.072   7.351   0.029  0.6130 -2.0759  0.3886
   31MOL   H13411594   1.203   7.357   0.155  1.0253 -0.5155 -0.1729
   31MOL   C13511595   1.402   6.908   0.036  0.2324 -1.0436  0.1476
   31MOL   C13611596   1.355   6.791   7.592  0.0203  0.3595  0.6263
   31MOL   C13711597   1.450   6.673   7.632 -0.2395  0.0555  0.4612
   31MOL   C13811598   1.586   6.732   0.028 -0.5720  0.4717  0.2250
   31MOL   C13911599   1.658   6.654   0.139 -0.6937  0.7059  0.0877
   31MOL   C14011600   1.714   6.515   0.085  0.1985  0.2460  0.8496
   31MOL   C14111601   1.556   6.877   0.068 -0.2546 -0.1802  0.2250
   31MOL   H14211602   1.340   6.900   0.125 -1.5937 -0.1511 -1.0260
   31MOL   H14311603   1.250   6.766   7.601 -0.4783  1.1099 -2.6638
   31MOL   H14411604   1.369   6.812   7.486  0.1190  0.3321  0.6328
   31MOL   H14511605   1.406   6.610   0.062  0.5348 -1.3666 -0.2303
   31MOL   H14611606   1.456   6.603   7.548 -1.8446  1.7706 -1.1381
   31MOL   H14711607   1.663   6.733   7.598 -1.1650 -0.6334 -0.3896
   31MOL   H14811608   1.602   6.643   0.231  0.0328 -2.3414  0.2153
   31MOL   H14911609   1.743   6.718   0.162  0.1767  0.4718 -2.2519
   31MOL   H15011610   1.632   6.464   0.034  0.5893  0.7451 -0.2992
   31MOL   H15111611   1.790   6.532   0.009  0.7059 -0.5031  1.1866
   31MOL   H15211612   1.625   6.950   0.025 -1.5919 -0.4492 -2.4721
   31MOL   H15311613   1.567   6.872   0.176 -0.8386 -1.6349  0.2271
   31MOL   C15411614   1.765   6.430   0.198  0.5749  0.5918 -0.3026
   31MOL   C15511615   1.862   6.326   0.162  0.3048  0.0648  0.3403
   31MOL   C15611616   1.855   6.220   0.267 -1.0290  0.0936  0.2356
   31MOL   C15711617   1.716   6.234   0.326  0.1128  0.1888  0.1506
   31MOL   C15811618   1.637   6.110   0.364 -0.1338  0.5646  0.1601
   31MOL   C15911619   1.693   6.048   0.493  0.6279  0.1693  0.4133
   31MOL   C16011620   1.649   6.349   0.262 -1.2475 -0.0502  0.2530
   31MOL   H16111621   1.820   6.497   0.265  0.9230  0.5776 -0.5716
   31MOL   H16211622   1.847   6.272   0.068  1.8900  0.1961  0.0096
   31MOL   H16311623   1.960   6.370   0.149  0.4485 -0.5775 -0.8182
   31MOL   H16411624   1.866   6.121   0.224  2.1037 -2.3591  6.0840
   31MOL   H16511625   1.922   6.232   0.352 -0.9390 -0.3619  0.2274
   31MOL   H16611626   1.745   6.280   0.421 -2.2259 -0.9506  1.4582
   31MOL   H16711627   1.622   6.037   0.285  1.5222  1.0835 -0.6614
   31MOL   H16811628   1.536   6.143   0.389  0.1889  0.6845  1.3336
   31MOL   H16911629   1.801   6.055   0.499  0.6783 -0.1735 -0.0607
   31MOL   H17011630   1.656   6.107   0.577 -0.7685  2.1296 -1.4983
   31MOL   H17111631   1.601   6.406   0.342  2.0098  1.4327  1.2622
   31MOL   H17211632   1.573   6.320   0.190  0.0676 -0.8483 -0.8525
   31MOL   C17311633   1.647   5.905   0.495  0.0519  0.0411 -0.0750
   31MOL   C17411634   1.697   5.835   0.627  0.3980  0.0498  0.8380
   31MOL   C17511635   1.572   5.771   0.692 -0.2103 -0.1093 -0.2759
   31MOL   C17611636   1.467   5.766   0.577  0.3181  0.4875 -0.4232
   31MOL   C17711637   1.324   5.753   0.635  0.0140  0.1841 -0.5745
   31MOL   C17811638   1.291   5.605   0.678 -0.1786  0.3960  0.3536
   31MOL   C17911639   1.499   5.893   0.502  0.4566  0.2465  0.1138
   31MOL   H18011640   1.688   5.856   0.407 -0.8350 -1.4882  0.3359
   31MOL   H18111641   1.749   5.909   0.688 -1.5705  1.5579  0.7455
   31MOL   H18211642   1.773   5.761   0.602  2.0134  0.9317  2.9474
   31MOL   H18311643   1.592   5.674   0.737 -0.8880  0.5278  1.4662
   31MOL   H18411644   1.542   5.845   0.766  0.3087  1.4395 -1.5769
   31MOL   H18511645   1.494   5.682   0.513 -0.8412  0.9565 -1.5467
   31MOL   H18611646   1.250   5.774   0.557  0.3346  0.1544 -0.8893
   31MOL   H18711647   1.314   5.817   0.722 -0.3018  0.7272 -1.0052
   31MOL   H18811648   1.214   5.615   0.755 -1.4825 -0.6493 -0.7938
   31MOL   H18911649   1.376   5.555   0.724 -0.2071 -0.9285 -1.0078
   31MOL   H19011650   1.459   5.982   0.550  1.2806 -0.5063  2.2404
   31MOL   H19111651   1.466   5.885   0.398  2.1622 -0.6450 -0.3802
   31MOL   C19211652   1.220   5.525   0.563 -0.4830  0.3704 -0.3580
   31MOL   C19311653   1.157   5.401   0.629  0.1422  0.4496  0.1676
   31MOL   C19411654   1.166   5.288   0.519 -0.2116 -0.3622  0.1418
   31MOL   C19511655   1.305   5.310   0.462 -0.4575 -0.0121 -0.1433
   31MOL   C19611656   1.323   5.248   0.323 -0.0450  0.7195  0.1526
   31MOL   C19711657   1.467   5.275   0.278 -0.4212 -0.3766  0.2546
   31MOL   C19811658   1.310   5.464   0.458  0.3195  0.2198  0.4443
   31MOL   H19911659   1.134   5.572   0.516 -0.6437 -0.4810 -0.9151
   31MOL   H20011660   1.227   5.367   0.705  0.8331 -1.5794 -1.3339
   31MOL   H20111661   1.061   5.428   0.673 -0.7713 -1.8154 -0.3646
   31MOL   H20211662   1.092   5.296   0.440 -1.7294  0.7863  1.6579
   31MOL   H20311663   1.155   5.187   0.558  4.0810 -0.4714  1.4028
   31MOL   H20411664   1.383   5.278   0.531  0.9769 -0.5753 -1.9871
   31MOL   H20511665   1.259   5.301   0.252 -0.9825  1.9374  1.8635
   31MOL   H20611666   1.283   5.147   0.316  1.1645  0.2893 -0.6908
   31MOL   H20711667   1.538   5.234   0.349  1.4617 -0.0441 -1.3792
   31MOL   H20811668   1.476   5.384   0.276  2.1884 -0.5098  2.4395
   31MOL   H20911669   1.283   5.506   0.362  0.2888 -0.4352  0.1615
   31MOL   H21011670   1.413   5.494   0.475 -0.0197  1.3990  0.4109
   31MOL   C21111671   1.500   5.225   0.137 -0.0686 -0.6220  0.4688
   31MOL   C21211672   1.644   5.250   0.095 -0.0219  0.0410 -0.7341
   31MOL   C21311673   1.652   5.289   7.604 -0.2585  0.5267 -0.7420
   31MOL   C21411674   1.514   5.295   7.550  0.3845 -0.4904 -0.3904
   31MOL   C21511675   1.498   5.409   7.452  0.4329  0.0435  0.9946
   31MOL   C21611676   1.371   5.399   7.369  0.0158  0.1115  0.0931
   31MOL   C21711677   1.417   5.297   0.029 -0.1238  0.1682 -0.2838
   31MOL   H21811678   1.466   5.122   0.122 -0.8967 -0.3471  0.4200
   31MOL   H21911679   1.678   5.320   0.171  2.3816 -0.8535 -0.9309
   31MOL   H22011680   1.713   5.166   0.105 -0.6650 -0.3925  0.2317
   31MOL   H22111681   1.700   5.387   7.602  1.6094 -0.3146  1.4179
   31MOL   H22211682   1.720   5.230   7.544  0.2507  0.0758  0.2677
   31MOL   H22311683   1.499   5.202   7.494  1.4906 -3.1309  3.4429
   31MOL   H22411684   1.587   5.415   7.390  0.1970  0.9564  0.7371
   31MOL   H22511685   1.500   5.507   7.500  0.4539  1.2232 -1.3771
   31MOL   H22611686   1.357   5.304   7.318 -0.0464 -0.2140  0.7154
   31MOL   H22711687   1.286   5.405   7.437  0.0044  1.0627  0.0140
   31MOL   H22811688   1.328   5.235   0.019  0.9930 -1.2462 -1.6977
   31MOL   H22911689   1.392   5.401   0.051  1.3138  0.2545  0.9976
   31MOL   C23011690   1.368   5.518   7.269 -0.1813  0.1678  0.1818
   31MOL   C23111691   1.353   5.655   7.334 -0.5591 -1.1549 -0.0443
   31MOL   C23211692   1.278   5.742   7.234 -0.4882 -0.0313 -0.5363
   31MOL   C23311693   1.179   5.638   7.175 -0.4762 -0.4730 -0.3523
   31MOL   C23411694   1.127   5.661   7.033  0.0288  0.2869 -0.1254
   31MOL   C23511695   1.073   5.805   7.017  1.0470 -0.0011 -0.3497
   31MOL   C23611696   1.249   5.507   7.180 -0.1433  0.4169 -1.0029
   31MOL   H23711697   1.457   5.522   7.207 -0.3876  1.6183 -0.0315
   31MOL   H23811698   1.298   5.646   7.428 -0.6821 -0.9993 -0.1018
   31MOL   H23911699   1.448   5.700   7.364  0.1247 -2.2762 -0.5207
   31MOL   H24011700   1.358   5.760   7.162  0.8154  0.7292  1.0535
   31MOL   H24111701   1.230   5.835   7.266 -1.0385 -0.8130  0.9510
   31MOL   H24211702   1.090   5.625   7.236 -1.8765  2.9928 -1.5110
   31MOL   H24311703   1.051   5.587   7.004  0.7403  0.1439 -1.6641
   31MOL   H24411704   1.212   5.667   6.965  1.2914  1.3759  1.5216
   31MOL   H24511705   1.004   5.808   7.101  1.1177  0.7375 -0.3177
   31MOL   H24611706   1.157   5.873   7.031  0.1158  1.2908 -1.0152
   31MOL   H24711707   1.297   5.457   7.096 -2.6188 -0.7314 -1.7658
   31MOL   H24811708   1.179   5.433   7.219  1.0823 -0.0356  0.3866
   31MOL   C24911709   1.016   5.820   6.876  0.2343 -0.1583  0.1989
   31MOL   C25011710   0.938   5.951   6.856 -0.1009  0.4245 -0.2075
   31MOL   C25111711   0.908   5.939   6.712 -0.1527 -1.1568  0.0290
   31MOL   C25211712   1.042   5.893   6.646  0.1655  0.3040 -0.3692
   31MOL   C25311713   1.016   5.797   6.529 -0.3395 -0.2820 -0.3182
   31MOL   C25411714   1.150   5.781   6.445  0.5301  0.3578 -0.0957
   31MOL   C25511715   1.114   5.834   6.764 -0.5824  0.5146 -0.3608
   31MOL   H25611716   0.956   5.732   6.853 -0.5619  0.0048  1.5938
   31MOL   H25711717   0.843   5.957   6.909 -0.5526  1.6346 -1.1242
   31MOL   H25811718   0.993   6.041   6.884 -0.9017  1.7172 -2.6075
   31MOL   H25911719   0.875   6.032   6.667 -1.8650 -1.2703  1.0158
   31MOL   H26011720   0.832   5.862   6.694 -2.3177  1.1391 -0.9679
   31MOL   H26111721   1.091   5.984   6.610  0.8785  0.8160  1.8188
   31MOL   H26211722   0.936   5.834   6.465  0.8759 -0.7919 -2.1433
   31MOL   H26311723   0.996   5.699   6.572 -3.2891  0.1535 -0.5994
   31MOL   H26411724   1.227   5.740   6.510 -2.9622 -0.2522  3.8252
   31MOL   H26511725   1.184   5.881   6.417 -1.9290  1.1299 -0.4303
   31MOL   H26611726   1.190   5.910   6.786  0.8573 -0.9201 -0.2422
   31MOL   H26711727   1.185   5.752   6.748  0.0284  0.5873  1.8322
   31MOL   C26811728   1.126   5.693   6.319 -0.9038  0.2227  0.4921
   31MOL   C26911729   1.144   5.546   6.361 -0.0099  0.1284  0.3509
   31MOL   C27011730   1.177   5.464   6.242 -0.3695  0.3207 -0.3492
   31MOL   C27111731   1.219   5.571   6.138  0.0927  0.1899 -0.3886
   31MOL   C27211732   1.346   5.535   6.059  0.2506  0.2592  0.0708
   31MOL   C27311733   1.381   5.647   5.954  0.4099  0.5872 -0.3325
   31MOL   C27411734   1.226   5.706   6.210 -0.3651 -0.0537  0.2845
   31MOL   H27511735   1.024   5.707   6.284 -1.1088 -0.0572  0.9754
   31MOL   H27611736   1.238   5.552   6.416  0.6918 -0.6969 -0.7325
   31MOL   H27711737   1.067   5.506   6.427 -0.3941  0.0951 -0.1166
   31MOL   H27811738   1.259   5.394   6.262 -0.6281 -0.3006 -1.4221
   31MOL   H27911739   1.088   5.407   6.219 -0.3270  0.4723 -0.8977
   31MOL   H28011740   1.143   5.583   6.061 -1.8152  0.3870  1.4702
   31MOL   H28111741   1.334   5.437   6.013 -0.8197  0.1146  0.6587
   31MOL   H28211742   1.436   5.528   6.120 -0.3641  1.0255  1.0783
   31MOL   H28311743   1.285   5.679   5.915 -0.1847  0.8487  1.2925
   31MOL   H28411744   1.414   5.741   5.999 -1.7897  0.0049  2.6426
   31MOL   H28511745   1.327   5.708   6.250 -0.5939 -3.5301  1.1775
   31MOL   H28611746   1.209   5.792   6.145  0.2883 -0.8863 -1.0074
   31MOL   C28711747   1.485   5.601   5.848 -0.4724  0.0732 -0.1037
   31MOL   C28811748   1.449   5.492   5.747 -0.2584 -0.1261 -0.0947
   31MOL   C28911749   1.556   5.508   5.636 -0.0693 -0.4841  0.3565
   31MOL   C29011750   1.588   5.658   5.629 -0.1850  0.4202  0.0331
   31MOL   C29111751   1.553   5.721   5.498  0.0140 -0.7839 -0.0024
   31MOL   C29211752   1.611   5.653   5.370  0.1909  0.6781 -0.1360
   31MOL   C29311753   1.521   5.720   5.756  0.5506  0.6459  0.2982
   31MOL   H29411754   1.579   5.570   5.895  0.3829  1.2032 -1.0416
   31MOL   H29511755   1.442   5.394   5.793  0.8566 -0.0306  0.3045
   31MOL   H29611756   1.352   5.508   5.700 -0.2327 -0.9526 -0.4317
   31MOL   H29711757   1.511   5.465   5.546  0.5999 -1.2740  0.3950
   31MOL   H29811758   1.650   5.456   5.654  0.8678  0.8890 -0.4154
   31MOL   H29911759   1.694   5.683   5.638 -0.7431  2.2133  2.0931
   31MOL   H30011760   1.598   5.819   5.487  1.9905 -1.8383 -1.8098
   31MOL   H30111761   1.445   5.728   5.489 -0.2206 -0.2082  2.8924
   31MOL   H30211762   1.580   5.549   5.363 -0.1220  0.6894  0.9231
   31MOL   H30311763   1.718   5.640   5.387  0.0442 -0.3304  0.0920
   31MOL   H30411764   1.430   5.767   5.719  0.6570  0.2905 -0.4126
   31MOL   H30511765   1.578   5.800   5.804 -1.5142  0.8292  2.5399
   31MOL   C30611766   1.574   5.713   5.231 -0.4988  0.4635  0.2411
   31MOL   C30711767   1.642   5.656   5.106 -0.1848 -0.5862  0.1990
   31MOL   C30811768   1.524   5.600   5.025  0.0805 -0.3732  0.0313
   31MOL   C30911769   1.408   5.683   5.053  0.2936  0.4927 -0.3672
   31MOL   C31011770   1.271   5.622   5.019  0.2006 -0.6178 -0.8493
   31MOL   C31111771   1.172   5.740   4.998  0.2514  0.4758 -1.0730
   31MOL   C31211772   1.424   5.702   5.202 -0.9223 -0.3713 -0.2231
   31MOL   H31311773   1.599   5.819   5.221  1.3250 -0.1520 -2.1241
   31MOL   H31411774   1.696   5.731   5.048  0.9515 -0.5701  1.2525
   31MOL   H31511775   1.711   5.573   5.120 -1.0502 -1.0352  1.8628
   31MOL   H31611776   1.542   5.598   4.917 -0.8811  0.0253 -0.1415
   31MOL   H31711777   1.501   5.498   5.056  0.0678 -0.8827 -1.5935
   31MOL   H31811778   1.418   5.773   4.991  2.6397  0.6892  0.2517
   31MOL   H31911779   1.255   5.583   4.919 -0.0570  2.2887 -1.9951
   31MOL   H32011780   1.242   5.545   5.091 -0.7341  0.5960  0.1129
   31MOL   H32111781   1.195   5.789   4.903 -1.2935  0.3001 -1.5522
   31MOL   H32211782   1.177   5.820   5.072  0.2189  0.4802 -1.0763
   31MOL   H32311783   1.369   5.631   5.263 -0.6779  0.2922  0.7842
   31MOL   H32411784   1.370   5.792   5.230  1.5742  0.8284  0.9785
   31MOL   C32511785   1.022   5.684   5.005  0.3508  0.3473  0.7390
   31MOL   C32611786   0.910   5.777   5.052 -0.9242 -0.4713 -0.2890
   31MOL   C32711787   0.786   5.705   5.032  0.2271 -0.3760 -0.4453
   31MOL   C32811788   0.809   5.648   4.887  0.2405 -0.3258 -0.3762
   31MOL   C32911789   0.719   5.536   4.858 -0.0444  0.4303  0.2645
   31MOL   C33011790   0.579   5.582   4.810  0.9221  0.0038 -0.7097
   31MOL   C33111791   0.959   5.616   4.880 -0.4151  0.3292 -0.8767
   31MOL   H33211792   1.022   5.601   5.074 -0.9925 -0.5463 -0.3196
   31MOL   H33311793   0.917   5.865   4.987 -0.2304  0.1805  0.6542
   31MOL   H33411794   0.922   5.827   5.148 -1.4130  2.2970 -1.6091
   31MOL   H33511795   0.774   5.624   5.104  1.9637 -0.9598 -0.7971
   31MOL   H33611796   0.696   5.766   5.031 -0.0104 -0.7356 -1.1855
   31MOL   H33711797   0.782   5.733   4.825  0.6898 -0.6817 -1.0662
   31MOL   H33811798   0.779   5.479   4.788 -0.3422  1.0305 -0.4779
   31MOL   H33911799   0.710   5.476   4.949 -3.0983  2.4996  1.3904
   31MOL   H34011800   0.538   5.651   4.884  0.1879 -1.7409  0.5191
   31MOL   H34111801   0.598   5.624   4.711 -1.1739 -2.0508 -2.0348
   31MOL   H34211802   1.003   5.657   4.789  0.8026 -1.2530 -1.0119
   31MOL   H34311803   0.991   5.512   4.873 -0.7180  0.2607 -1.3177
   31MOL   C34411804   0.488   5.469   4.795 -0.0347  0.6896  0.5188
   31MOL   C34511805   0.350   5.500   4.727 -0.1570  0.0465 -0.4886
   31MOL   C34611806   0.277   5.364   4.744 -0.2348  0.1537  0.6319
   31MOL   C34711807   0.321   5.316   4.880  0.0740  0.9841 -0.0251
   31MOL   C34811808   0.354   5.162   4.889 -0.3591  0.4872 -0.5650
   31MOL   C34911809   0.229   5.078   4.865  0.0031 -0.0458  0.6881
   31MOL   C35011810   0.436   5.406   4.928 -0.2195 -0.5172 -0.1356
   31MOL   H35111811   0.537   5.396   4.730 -3.3441  0.1147 -1.4627
   31MOL   H35211812   0.372   5.531   4.625  1.6299  0.1981 -0.0693
   31MOL   H35311813   0.305   5.571   4.796  0.1987  1.4701 -1.7128
   31MOL   H35411814   0.173   5.382   4.717  0.1029 -1.7821 -2.2695
   31MOL   H35511815   0.311   5.300   4.662  0.9471  1.0056  0.4356
   31MOL   H35611816   0.241   5.340   4.951 -2.6670 -1.2095 -2.2659
   31MOL   H35711817   0.435   5.137   4.820 -0.2168  0.8617 -0.5292
   31MOL   H35811818   0.395   5.144   4.988 -2.1227  3.6373  0.7850
   31MOL   H35911819   0.180   5.100   4.770  0.3714 -1.3311  0.1944
   31MOL   H36011820   0.154   5.108   4.938 -0.5314 -0.4844  0.3194
   31MOL   H36111821   0.401   5.481   4.998  0.2360  0.3608 -0.8467
   31MOL   H36211822   0.521   5.351   4.970  0.1513  0.2624  0.1293
   31MOL   C36311823   0.248   4.922   4.881  0.3278 -0.4074  0.0159
   31MOL   C36411824   0.348   4.881   4.987  0.0868  0.0875 -0.1439
   31MOL   C36511825   0.382   4.730   4.953  0.9964 -0.5391  0.1013
   31MOL   C36611826   0.386   4.729   4.797 -0.0284  0.2419  0.1002
   31MOL   C36711827   0.525   4.722   4.733  0.3112  0.1720 -0.0586
   31MOL   C36811828   0.612   4.610   4.788 -0.3416  0.3590  0.1498
   31MOL   C36911829   0.305   4.856   4.755  0.2829 -0.2235  0.0555
   31MOL   H37011830   0.147   4.890   4.910  0.0011 -0.0609 -0.7282
   31MOL   H37111831   0.440   4.940   4.987 -1.8598  3.2796  0.1982
   31MOL   H37211832   0.299   4.887   5.085 -1.7908 -0.2794 -1.0276
   31MOL   H37311833   0.474   4.696   5.001  0.2146 -0.3841  1.7565
   31MOL   H37411834   0.302   4.663   4.984  0.8459 -0.5028 -0.2145
   31MOL   H37511835   0.337   4.637   4.765  0.7885 -0.0562 -0.3250
   31MOL   H37611836   0.511   4.721   4.625 -1.5782  1.4227  0.1360
   31MOL   H37711837   0.581   4.814   4.751  0.3276 -0.0192  0.8957
   31MOL   H37811838   0.683   4.652   4.860  0.0900  2.2410 -1.3260
   31MOL   H37911839   0.669   4.567   4.705  1.4878  1.5883  0.7401
   31MOL   H38011840   0.363   4.928   4.697 -0.5161  0.0575 -0.4129
   31MOL   H38111841   0.222   4.822   4.693 -1.4550  2.9099  0.5931
   31MOL   H38211842   0.555   4.526   4.827 -0.0381 -0.6881 -1.6131
   32MOL     C111843   3.940   0.707   5.721  0.1920 -0.0852 -0.8505
   32MOL     C211844   3.859   0.583   5.689  0.4475 -0.6089  0.4143
   32MOL     C311845   3.952   0.464   5.698 -0.0011 -0.4157 -0.9589
   32MOL     C411846   4.087   0.518   5.755  0.0823 -0.0047 -0.1936
   32MOL     C511847   4.210   0.448   5.697 -0.0749  0.3805  0.1705
   32MOL     C611848   4.216   0.300   5.729 -0.7700  0.1105  0.2178
   32MOL     C711849   4.085   0.669   5.729  0.0163 -0.2050 -0.0278
   32MOL     H811850   3.925   0.786   5.647 -0.3729  0.5911 -0.0271
   32MOL     H911851   3.822   0.583   5.586  1.1385 -2.2842  0.1338
   32MOL    H1011852   3.771   0.593   5.751  0.2980  0.0814  0.0969
   32MOL    H1111853   3.918   0.384   5.764  0.2542  0.1421 -0.1548
   32MOL    H1211854   3.980   0.426   5.600  3.1993  0.2467 -0.3647
   32MOL    H1311855   4.085   0.503   5.863  1.3040 -1.9289 -0.4066
   32MOL    H1411856   4.204   0.458   5.588  0.3150  0.5714  0.1647
   32MOL    H1511857   4.305   0.484   5.737  1.7648 -1.4914 -2.2745
   32MOL    H1611858   4.205   0.305   5.837 -2.1717  2.2496  0.0244
   32MOL    H1711859   4.125   0.244   5.703  0.7228 -1.4153 -1.9227
   32MOL    H1811860   4.128   0.732   5.806  3.2787 -2.7932  0.3649
   32MOL    H1911861   4.138   0.689   5.636  1.4913  2.5705  1.3552
   32MOL    H2011862   3.908   0.751   5.815 -3.3035 -1.3168 -1.3735
   32MOL    C2111863   4.358   0.240   5.697  0.0558 -0.3111  0.5029
   32MOL    C2211864   4.378   0.098   5.748  0.4569 -0.6140 -0.0273
   32MOL    C2311865   4.475   0.027   5.648  0.3949  0.3284 -1.0228
   32MOL    C2411866   4.519   0.134   5.543 -0.8123  0.1634 -0.4148
   32MOL    C2511867   4.554   0.074   5.404  1.2572 -0.8189 -0.0549
   32MOL    C2611868   4.599   0.177   5.295 -0.1025 -0.4754 -0.3300
   32MOL    C2711869   4.409   0.238   5.550 -0.3361 -0.5886 -0.3007
   32MOL    H2811870   4.419   0.301   5.764 -3.3169  3.3454  0.3911
   32MOL    H2911871   4.408   0.109   5.852 -2.6323  0.2464  0.8070
   32MOL    H3011872   4.283   0.046   5.748  0.2881 -0.3283 -1.2321
   32MOL    H3111873   4.553   7.619   5.701 -1.1638 -1.5961 -0.6856
   32MOL    H3211874   4.422   7.596   5.594 -0.6141  1.0180 -1.0428
   32MOL    H3311875   4.609   0.185   5.577 -0.5443  0.8653 -2.1073
   32MOL    H3411876   4.474   0.006   5.374 -0.6306  1.6962 -0.8697
   32MOL    H3511877   4.644   0.014   5.420  1.4115 -1.1257 -1.9340
   32MOL    H3611878   4.667   0.249   5.339 -0.9011  1.9605 -2.9854
   32MOL    H3711879   4.517   0.247   5.279 -0.3384 -0.5583  0.4978
   32MOL    H3811880   4.457   0.333   5.527 -0.8086 -0.0174  1.0389
   32MOL    H3911881   4.327   0.215   5.481 -0.4080  0.0451 -0.4295
   32MOL    C4011882   4.642   0.109   5.165 -0.1431 -0.2943  0.2496
   32MOL    C4111883   4.664   0.214   5.052  0.0573 -0.4473 -0.4561
   32MOL    C4211884   4.782   0.155   4.975  0.6627 -0.4481 -0.1710
   32MOL    C4311885   4.874   0.114   5.094 -0.6684  0.0700 -0.0814
   32MOL    C4411886   4.996   0.039   5.050 -0.6004 -0.4421 -0.9121
   32MOL    C4511887   5.095   0.043   5.166  0.1840 -0.4779  0.6440
   32MOL    C4611888   4.781   0.035   5.178 -0.0162 -0.1449  0.5574
   32MOL    H4711889   4.558   0.045   5.141  0.7341 -1.5998  0.5947
   32MOL    H4811890   4.700   0.308   5.096 -0.8253  0.2263 -1.1516
   32MOL    H4911891   4.579   0.222   4.985 -1.2123 -0.9591  1.0497
   32MOL    H5011892   4.754   0.067   4.918 -1.5769 -0.4952  0.9551
   32MOL    H5111893   4.823   0.220   4.897 -0.0286 -0.9404 -0.9550
   32MOL    H5211894   4.890   0.208   5.146 -1.1136 -0.3670  0.8449
   32MOL    H5311895   4.971   7.589   5.009  2.7539 -1.1843 -1.3827
   32MOL    H5411896   5.053   0.092   4.973  0.1651  0.0681 -0.0177
   32MOL    H5511897   5.045   0.015   5.258 -0.4220 -1.7969 -0.0711
   32MOL    H5611898   5.133   0.142   5.189  0.2717 -0.2837 -0.2934
   32MOL    H5711899   4.758   7.581   5.144  0.1094 -0.0125  0.0635
   32MOL    H5811900   4.813   0.004   5.277  1.2843 -1.1795 -0.1652
   32MOL    C5911901   5.208   7.590   5.166 -0.0287  0.3326  0.2722
   32MOL    C6011902   5.320   7.617   5.065  0.3680 -0.0449 -0.0933
   32MOL    C6111903   5.449   7.562   5.130  0.4080 -0.2681  0.2406
   32MOL    C6211904   5.430   7.587   5.281 -0.2686 -0.3410  0.6050
   32MOL    C6311905   5.502   7.478   5.369  0.2173  0.9277  0.6381
   32MOL    C6411906   5.658   7.504   5.364  0.4302 -0.4011  0.4502
   32MOL    C6511907   5.278   7.564   5.302 -0.4248 -0.4867  0.5447
   32MOL    H6611908   5.160   7.493   5.149  0.3855 -0.3627  2.8510
   32MOL    H6711909   5.292   7.565   4.973  0.3029 -0.3126  0.0774
   32MOL    H6811910   5.336   0.074   5.039  3.6109 -0.8293 -1.5796
   32MOL    H6911911   5.447   7.456   5.105 -3.7540 -0.2451  0.1722
   32MOL    H7011912   5.541   7.612   5.097  1.0903 -2.3804 -1.1757
   32MOL    H7111913   5.454   0.044   5.304 -2.4489  0.4008 -0.3137
   32MOL    H7211914   5.481   7.379   5.330 -0.4963  0.7434  1.4725
   32MOL    H7311915   5.466   7.484   5.472  0.9589 -1.3321  1.0637
   32MOL    H7411916   5.692   7.521   5.262 -0.6055  0.9315  0.3152
   32MOL    H7511917   5.668   7.596   5.421  0.5215  1.0841 -1.9060
   32MOL    H7611918   5.260   7.461   5.333  1.4912 -0.5211  1.6098
   32MOL    H7711919   5.235   7.625   5.382  1.8439  0.2946  1.1942
   32MOL    C7811920   5.750   7.403   5.441  0.8708  0.1238  0.3604
   32MOL    C7911921   5.899   7.432   5.410  0.9125  0.4295  0.2744
   32MOL    C8011922   5.966   7.421   5.543 -0.2846  0.4003  0.3266
   32MOL    C8111923   5.864   7.340   5.631  0.1275  0.1425 -0.5127
   32MOL    C8211924   5.888   7.349   5.782 -0.3777 -0.6726 -0.9934
   32MOL    C8311925   6.035   7.313   5.830 -1.1312  0.1830 -0.3034
   32MOL    C8411926   5.728   7.399   5.599  0.4670  0.3358  0.6212
   32MOL    H8511927   5.732   7.301   5.406  1.7039 -0.7066  2.2590
   32MOL    H8611928   5.941   7.369   5.333  0.7999 -0.6765  1.1120
   32MOL    H8711929   5.915   7.529   5.362 -5.4080  2.0821  1.0327
   32MOL    H8811930   6.062   7.370   5.549 -0.3487  0.4135  1.7773
   32MOL    H8911931   5.988   7.516   5.593 -0.8738  0.3359  0.7251
   32MOL    H9011932   5.854   7.234   5.608  1.1217  0.0132 -0.3657
   32MOL    H9111933   5.808   7.289   5.824 -0.4824 -0.7584 -1.3127
   32MOL    H9211934   5.869   7.448   5.821  1.6944 -0.7981  0.3949
   32MOL    H9311935   6.108   7.379   5.782 -1.2236  1.7657  1.6706
   32MOL    H9411936   6.044   7.206   5.812 -2.7112 -0.0625  0.3510
   32MOL    H9511937   5.728   7.501   5.636  1.0285  1.3573 -2.1110
   32MOL    H9611938   5.642   7.343   5.636 -0.4797  1.1686 -0.2962
   32MOL    C9711939   6.041   7.321   5.988 -0.2584 -0.1407  0.3843
   32MOL    C9811940   6.186   7.312   6.031 -0.2446  0.4486  0.2980
   32MOL    C9911941   6.183   7.261   6.176 -0.1337 -0.1759 -0.1416
   32MOL   C10011942   6.044   7.211   6.207 -0.7654  0.7126  0.9862
   32MOL   C10111943   6.034   7.085   6.294 -0.3571  0.2075  0.1157
   32MOL   C10211944   6.082   7.098   6.446  0.2863 -0.4303 -0.9735
   32MOL   C10311945   5.975   7.202   6.069 -0.0229 -0.6914  0.3068
   32MOL   H10411946   5.991   7.411   6.024 -1.3354  0.2249 -1.9150
   32MOL   H10511947   6.237   7.241   5.965  1.6889  1.2932  0.8517
   32MOL   H10611948   6.242   7.405   6.027  1.7132 -0.7425 -0.8104
   32MOL   H10711949   6.257   7.182   6.185  0.1150 -0.1294 -1.7533
   32MOL   H10811950   6.202   7.347   6.240 -1.2456 -0.2616  0.3155
   32MOL   H10911951   6.004   7.301   6.254 -2.9414  1.8605 -2.8722
   32MOL   H11011952   5.929   7.056   6.298  0.3451 -2.4850  0.2891
   32MOL   H11111953   6.096   7.006   6.250  3.3857  1.3589  3.0008
   32MOL   H11211954   6.190   7.110   6.451  0.0310  1.7281  0.0252
   32MOL   H11311955   6.040   7.190   6.487 -0.3125 -1.2411  0.2303
   32MOL   H11411956   6.002   7.109   6.020  1.3003 -0.0326 -0.2305
   32MOL   H11511957   5.866   7.204   6.070 -0.0107  0.3662  1.4937
   32MOL   C11611958   6.051   6.972   6.529  0.0572  0.0549  0.4750
   32MOL   C11711959   6.150   6.850   6.493 -0.0831  0.2296  0.9741
   32MOL   C11811960   6.159   6.766   6.618 -0.8215  0.1875  0.0871
   32MOL   C11911961   6.084   6.846   6.724  0.0014  0.0412  0.5770
   32MOL   C12011962   6.145   6.831   6.867  0.1362 -0.4220  0.4514
   32MOL   C12111963   6.048   6.878   6.974  0.5589  0.6152 -0.7669
   32MOL   C12211964   6.076   6.991   6.677 -0.1614  0.1698 -0.3401
   32MOL   H12311965   5.951   6.934   6.509  0.4813  0.3467 -2.5091
   32MOL   H12411966   6.245   6.893   6.462 -1.9638  3.5109 -0.6246
   32MOL   H12511967   6.110   6.802   6.403  0.2403  1.2750  0.2622
   32MOL   H12611968   6.261   6.770   6.657 -0.6094 -1.7792 -0.1914
   32MOL   H12711969   6.129   6.661   6.611 -0.4571  0.1188 -0.5144
   32MOL   H12811970   5.983   6.807   6.732 -0.6760  1.3910 -1.1282
   32MOL   H12911971   6.243   6.880   6.868 -1.7462  3.5036  0.3931
   32MOL   H13011972   6.155   6.724   6.882 -0.3816 -0.4582  0.5222
   32MOL   H13111973   5.968   6.805   6.987  0.3255  0.6654 -1.8513
   32MOL   H13211974   5.993   6.962   6.930 -2.7376 -1.0180  0.0879
   32MOL   H13311975   5.998   7.054   6.720 -1.7102 -2.0160  0.1510
   32MOL   H13411976   6.171   7.041   6.696  0.2123 -0.2317 -1.1324
   32MOL   C13511977   6.112   6.923   7.102 -0.3723 -0.3288  0.0511
   32MOL   C13611978   6.213   7.035   7.091  0.0089  0.6512  0.3847
   32MOL   C13711979   6.201   7.117   7.222  0.0321 -0.1671  0.1989
   32MOL   C13811980   6.056   7.116   7.253  0.4275 -0.7151  0.0612
   32MOL   C13911981   6.042   7.150   7.410  0.4579 -0.1699  0.2200
   32MOL   C14011982   6.101   7.286   7.448  0.0995 -1.0121 -0.9250
   32MOL   C14111983   6.010   6.975   7.208 -0.4099  0.1508 -0.7338
   32MOL   H14211984   6.157   6.831   7.139 -0.2994 -0.8813 -1.3903
   32MOL   H14311985   6.310   6.986   7.091 -0.0243  0.5830  1.3903
   32MOL   H14411986   6.215   7.104   7.007  0.0155  0.3664  0.1514
   32MOL   H14511987   6.262   7.062   7.294  0.2808 -1.1761 -0.7631
   32MOL   H14611988   6.246   7.216   7.229  0.0261 -0.0979 -0.6655
   32MOL   H14711989   6.003   7.194   7.199  0.5113 -0.0037  0.9859
   32MOL   H14811990   6.078   7.070   7.475  0.8008 -0.4552 -0.3268
   32MOL   H14911991   5.935   7.150   7.432  0.1305  2.4678 -1.2177
   32MOL   H15011992   6.209   7.274   7.450  0.6319  3.0545 -0.9631
   32MOL   H15111993   6.087   7.353   7.362 -4.1281 -0.1362  0.3196
   32MOL   H15211994   5.907   6.960   7.175 -0.7710  1.7684 -0.3734
   32MOL   H15311995   6.012   6.909   7.295  1.7043 -3.0597 -3.0756
   32MOL   C15411996   6.045   7.349   7.576 -0.3503 -0.2228 -0.2188
   32MOL   C15511997   5.904   7.390   7.557 -0.6937 -0.3906  0.2070
   32MOL   C15611998   5.898   7.536   7.608 -0.9966 -0.3514  0.0811
   32MOL   C15711999   6.019   7.564   0.043 -1.0743  0.5147  0.5669
   32MOL   C15812000   6.049   0.064   0.073  0.0118 -0.4701 -0.4909
   32MOL   C15912001   6.156   0.078   0.177 -0.5710  0.5961  0.2204
   32MOL   C16012002   6.125   7.483   7.617  0.1449  0.5106 -0.3005
   32MOL   H16112003   6.047   7.282   0.015 -0.9676  0.4715  0.3505
   32MOL   H16212004   5.863   7.376   7.456 -2.0416  2.2860  0.3314
   32MOL   H16312005   5.836   7.330   7.617 -3.2098 -0.0507 -2.1753
   32MOL   H16412006   5.907   7.606   7.525  0.4202  1.6348  1.8658
   32MOL   H16512007   5.806   7.574   0.004 -1.6044  0.3087 -1.7457
   32MOL   H16612008   6.000   7.523   0.142  1.2320  1.3810  1.3962
   32MOL   H16712009   5.955   0.112   0.100 -0.8144 -1.8079 -0.9453
   32MOL   H16812010   6.092   0.118   7.636  2.6909 -1.5570  0.1307
   32MOL   H16912011   6.138   0.001   0.252 -1.0814  0.9523  0.4616
   32MOL   H17012012   6.255   0.047   0.143 -0.8993  0.7156 -0.8789
   32MOL   H17112013   6.212   7.474   0.035  0.2676 -0.0936 -0.5406
   32MOL   H17212014   6.163   7.535   7.529 -0.7973 -0.7609 -1.4732
   32MOL   C17312015   6.155   0.223   0.243 -0.1618  0.5522 -0.1840
   32MOL   C17412016   6.230   0.227   0.377  0.2144 -0.1280 -0.0358
   32MOL   C17512017   6.303   0.360   0.385 -0.4673 -0.0089 -0.0598
   32MOL   C17612018   6.264   0.436   0.259  0.2066  0.1451 -0.3865
   32MOL   C17712019   6.384   0.531   0.221  0.4889 -0.6248 -0.0517
   32MOL   C17812020   6.377   0.578   0.076 -0.6884 -1.1189  0.5788
   32MOL   C17912021   6.237   0.326   0.157  0.1511  0.5322  0.7620
   32MOL   H18012022   6.054   0.263   0.247 -0.8933 -1.1802 -0.6747
   32MOL   H18112023   6.304   0.147   0.379  0.6675  0.1931 -2.5055
   32MOL   H18212024   6.166   0.218   0.465 -0.1581 -1.5069 -0.4364
   32MOL   H18312025   6.280   0.417   0.475 -1.8989 -0.0339 -0.3989
   32MOL   H18412026   6.411   0.345   0.393 -0.4604  0.0975  0.0382
   32MOL   H18512027   6.173   0.493   0.279 -0.6831 -1.5921  0.6329
   32MOL   H18612028   6.476   0.483   0.254 -0.5603 -1.0260  2.3456
   32MOL   H18712029   6.385   0.619   0.285  0.3250 -0.8055  0.1960
   32MOL   H18812030   6.277   0.613   0.052  0.0623  1.2251  0.7653
   32MOL   H18912031   6.391   0.494   0.009  1.1036  0.0049 -0.4901
   32MOL   H19012032   6.332   0.280   0.131 -0.9745 -1.4729 -0.0317
   32MOL   H19112033   6.185   0.354   0.065 -0.6568 -0.9964  0.7281
   32MOL   C19212034   6.479   0.689   0.052  0.1454 -0.5221  0.7466
   32MOL   C19312035   6.473   0.756   7.567 -0.3735 -0.3344 -0.1856
   32MOL   C19412036   6.609   0.735   7.500  0.2133  0.2253 -0.2746
   32MOL   C19512037   6.704   0.729   7.615 -0.5134  0.0835 -0.5240
   32MOL   C19612038   6.754   0.864   0.003 -0.7906 -0.4218 -0.0775
   32MOL   C19712039   6.876   0.863   0.104  0.5497  0.2291  0.2119
   32MOL   C19812040   6.628   0.658   0.084  0.3286  0.0726  0.8013
   32MOL   H19912041   6.446   0.770   0.117 -3.4267  0.4562 -2.0859
   32MOL   H20012042   6.388   0.724   7.507 -0.5707 -0.5581  0.2110
   32MOL   H20112043   6.448   0.862   7.575  0.8499 -0.0029 -0.6563
   32MOL   H20212044   6.630   0.815   7.430 -0.3895 -0.6799 -1.5083
   32MOL   H20312045   6.612   0.635   7.457 -0.7540 -0.5030  1.3139
   32MOL   H20412046   6.790   0.670   7.581  0.3082  2.0259 -1.9110
   32MOL   H20512047   6.670   0.919   0.045  0.1914  1.1456 -0.0972
   32MOL   H20612048   6.785   0.915   7.559 -0.9970  1.0670  0.6647
   32MOL   H20712049   6.951   0.811   0.045 -0.8048 -0.9129 -0.5133
   32MOL   H20812050   6.859   0.792   0.184 -1.2559 -1.0334 -1.2533
   32MOL   H20912051   6.648   0.709   0.178 -0.5343  1.0701  0.4585
   32MOL   H21012052   6.636   0.551   0.098 -0.6274 -0.1094  0.0428
   32MOL   C21112053   6.934   0.999   0.143  0.0462  0.0430  0.5490
   32MOL   C21212054   7.079   0.984   0.195  0.0424  0.3177 -0.7478
   32MOL   C21312055   7.101   1.111   0.281  0.2664 -0.8100 -0.2713
   32MOL   C21412056   6.959   1.151   0.337 -0.6357 -0.2103  0.1765
   32MOL   C21512057   6.945   1.149   0.488 -0.9941  0.7572 -0.6978
   32MOL   C21612058   6.817   1.197   0.547  0.3260 -0.0030 -0.7933
   32MOL   C21712059   6.861   1.070   0.259  0.9405 -0.5777 -0.2449
   32MOL   H21812060   6.923   1.062   0.055  0.0422 -0.8945 -0.1396
   32MOL   H21912061   7.086   0.908   0.272  0.3614  1.8502  0.7592
   32MOL   H22012062   7.139   0.948   0.111  0.4684  1.4706 -0.9447
   32MOL   H22112063   7.188   1.106   0.345  2.3515  2.1632 -2.7237
   32MOL   H22212064   7.133   1.199   0.225 -1.9954 -0.2227 -0.6935
   32MOL   H22312065   6.942   1.255   0.309  1.3607  0.5105  1.6134
   32MOL   H22412066   7.012   1.225   0.530  0.1931 -1.0381  0.7116
   32MOL   H22512067   6.993   1.059   0.525 -0.1498  0.7493 -1.7738
   32MOL   H22612068   6.799   1.301   0.519 -2.3550 -0.1449  0.1951
   32MOL   H22712069   6.737   1.147   0.492 -0.4720  1.1116 -0.6659
   32MOL   H22812070   6.790   1.143   0.220  1.2587 -0.2570 -0.2363
   32MOL   H22912071   6.816   0.999   0.327  1.6797  2.0351  3.1245
   32MOL   C23012072   6.788   1.179   0.700 -0.6492  0.6624 -0.5576
   32MOL   C23112073   6.767   1.036   0.741  0.0815 -0.0304 -0.0326
   32MOL   C23212074   6.660   1.035   0.855  0.4317  0.2770  0.6157
   32MOL   C23312075   6.564   1.150   0.822  0.5008  0.3241 -0.1926
   32MOL   C23412076   6.491   1.196   0.947 -0.5240 -1.0424  0.0319
   32MOL   C23512077   6.352   1.254   0.931 -0.8311  0.4006 -0.0649
   32MOL   C23612078   6.656   1.251   0.746  0.0886 -0.4259  0.2760
   32MOL   H23712079   6.864   1.225   0.763 -0.1963  0.4327 -0.9228
   32MOL   H23812080   6.726   0.974   0.661  3.2539 -2.2250 -0.0298
   32MOL   H23912081   6.855   0.983   0.776 -1.5820 -2.0711  1.2055
   32MOL   H24012082   6.702   1.056   0.953  0.3104 -1.9465  1.1927
   32MOL   H24112083   6.611   0.938   0.867  0.3731  0.3414  0.8995
   32MOL   H24212084   6.493   1.116   0.748  1.1074  0.5520 -0.8868
   32MOL   H24312085   6.561   1.272   0.983  0.7665 -1.9047 -0.6489
   32MOL   H24412086   6.489   1.120   1.025  2.4557 -0.5925  0.6045
   32MOL   H24512087   6.360   1.360   0.907 -1.6094  0.1705 -1.4145
   32MOL   H24612088   6.294   1.205   0.852  1.1601 -2.9948  0.4726
   32MOL   H24712089   6.679   1.344   0.799  0.7422 -0.7052  0.4845
   32MOL   H24812090   6.585   1.286   0.672 -0.4987 -0.9971  0.5667
   32MOL   C24912091   6.274   1.247   1.065  0.4637 -0.1135  0.1456
   32MOL   C25012092   6.151   1.337   1.052  0.0453 -0.7684  0.2868
   32MOL   C25112093   6.049   1.272   1.144 -0.4110  0.4088 -0.8973
   32MOL   C25212094   6.068   1.117   1.121 -0.5728 -0.1552  0.2699
   32MOL   C25312095   6.014   1.046   1.243  0.4084  0.1576 -0.3292
   32MOL   C25412096   5.862   1.019   1.236  0.4042  0.0735  0.0492
   32MOL   C25512097   6.216   1.110   1.111  0.0971 -1.0523 -0.3424
   32MOL   H25612098   6.345   1.279   1.142  2.2849 -1.4652 -0.9323
   32MOL   H25712099   6.163   1.442   1.077 -0.0697 -0.3130 -1.4588
   32MOL   H25812100   6.119   1.326   0.948  1.3139  0.7122 -0.2699
   32MOL   H25912101   5.950   1.308   1.117 -0.2240  0.5066 -1.4730
   32MOL   H26012102   6.086   1.311   1.239  0.6885  0.5332 -1.3642
   32MOL   H26112103   6.026   1.082   1.027 -0.1836  0.8018 -0.2717
   32MOL   H26212104   6.044   1.094   1.336 -0.2617  0.4878 -0.2781
   32MOL   H26312105   6.053   0.946   1.262 -0.3636  0.0258  0.6309
   32MOL   H26412106   5.802   1.109   1.228 -1.1544 -0.7391  2.3117
   32MOL   H26512107   5.832   0.982   1.334  1.3370  2.2656  1.1957
   32MOL   H26612108   6.247   1.035   1.038  0.9586  1.0907 -2.2638
   32MOL   H26712109   6.267   1.085   1.204  0.2836 -1.5450 -0.5727
   32MOL   C26812110   5.801   0.928   1.131  0.0563  1.0528  0.3578
   32MOL   C26912111   5.661   0.880   1.166 -0.2517  0.4240 -0.1942
   32MOL   C27012112   5.643   0.775   1.060  1.1999  0.5191 -0.7362
   32MOL   C27112113   5.780   0.718   1.025  0.6072 -0.0030  0.1391
   32MOL   C27212114   5.793   0.566   1.048  0.2985  0.6163  0.5218
   32MOL   C27312115   5.691   0.482   0.964 -0.2070  0.3859  0.2290
   32MOL   C27412116   5.875   0.802   1.115 -0.3031 -0.0057 -0.0599
   32MOL   H27512117   5.793   0.969   1.030  3.7807  0.4398 -0.2407
   32MOL   H27612118   5.651   0.846   1.270  1.3942 -1.2218 -0.5557
   32MOL   H27712119   5.574   0.943   1.148 -0.5737  0.7514  2.2483
   32MOL   H27812120   5.569   0.710   1.105  0.3971  2.3006  0.6052
   32MOL   H27912121   5.591   0.805   0.970  0.9569 -2.6748 -1.6873
   32MOL   H28012122   5.812   0.744   0.925  0.4186 -2.2099 -0.5250
   32MOL   H28112123   5.785   0.549   1.156 -1.1686 -1.5938  0.0938
   32MOL   H28212124   5.894   0.535   1.021 -0.0600  0.2476 -0.3837
   32MOL   H28312125   5.591   0.525   0.965  0.7782  2.7366  1.3342
   32MOL   H28412126   5.738   0.493   0.867  2.7584  1.4309  1.7209
   32MOL   H28512127   5.882   0.766   1.218  0.3111  3.8536  1.3159
   32MOL   H28612128   5.976   0.807   1.076 -1.1999  1.4296 -2.2726
   32MOL   C28712129   5.682   0.331   0.989  0.0808  0.2635 -0.7403
   32MOL   C28812130   5.567   0.263   0.915  0.3404  0.6671 -0.0304
   32MOL   C28912131   5.623   0.120   0.881 -0.2232  0.5717  0.0106
   32MOL   C29012132   5.781   0.113   0.895  0.5990 -0.0606 -0.4378
   32MOL   C29112133   5.856   0.063   0.764  0.7514 -0.4574 -0.3054
   32MOL   C29212134   5.805   7.568   0.715 -0.1343  0.3525  0.2301
   32MOL   C29312135   5.812   0.259   0.939  0.0706  0.5052  0.0037
   32MOL   H29412136   5.662   0.314   1.095  2.0043  0.2522 -0.3466
   32MOL   H29512137   5.465   0.275   0.950  0.3366  2.1396 -0.5131
   32MOL   H29612138   5.558   0.315   0.819 -0.5323 -0.4250 -0.5491
   32MOL   H29712139   5.593   0.087   0.782 -0.5709  1.8485 -0.3166
   32MOL   H29812140   5.584   0.042   0.947 -0.1710 -0.0548 -0.6942
   32MOL   H29912141   5.807   0.042   0.973 -4.6378 -2.2837 -0.5149
   32MOL   H30012142   5.960   0.079   0.794  0.3010  1.6097  0.2438
   32MOL   H30112143   5.843   0.139   0.687 -2.5030  1.2699  1.8120
   32MOL   H30212144   5.697   7.557   0.715 -0.1120  0.0405 -0.8012
   32MOL   H30312145   5.856   7.500   0.783  0.4088 -0.1598 -0.6671
   32MOL   H30412146   5.843   0.317   0.852 -2.6787  0.0901 -1.2805
   32MOL   H30512147   5.899   0.258   1.005 -0.6027 -1.9680  0.9071
   32MOL   C30612148   5.844   7.534   0.575  0.4650  0.6063  0.1395
   32MOL   C30712149   5.987   7.556   0.534 -0.6150  0.1860 -0.0026
   32MOL   C30812150   6.029   7.442   0.443 -0.1019  0.7181  0.3502
   32MOL   C30912151   5.899   7.367   0.403  0.2658 -0.7080 -0.1584
   32MOL   C31012152   5.900   7.225   0.345 -0.4947  0.0111 -0.3113
   32MOL   C31112153   5.790   7.202   0.240  0.7200 -0.0165  0.4873
   32MOL   C31212154   5.813   7.387   0.534 -0.2240 -0.1490 -0.4793
   32MOL   H31312155   5.784   7.592   0.504 -1.1889  2.3991  2.9322
   32MOL   H31412156   6.008   7.646   0.476  2.5167 -0.6991 -0.3474
   32MOL   H31512157   6.049   7.561   0.624 -1.2031 -1.0771  0.4873
   32MOL   H31612158   6.083   7.466   0.351 -0.1331  2.5300  0.7864
   32MOL   H31712159   6.091   7.375   0.502 -0.6944  0.7248  0.9775
   32MOL   H31812160   5.858   7.429   0.323 -0.7543 -0.5835  0.4652
   32MOL   H31912161   5.994   7.203   0.293 -1.3870 -1.0344 -1.5218
   32MOL   H32012162   5.885   7.152   0.424 -1.1412  0.1047 -0.3414
   32MOL   H32112163   5.822   7.276   0.167  0.7490 -1.6216 -1.1542
   32MOL   H32212164   5.700   7.241   0.288 -0.2622 -0.3143 -1.0828
   32MOL   H32312165   5.852   7.320   0.611  0.6918  0.1945 -0.6312
   32MOL   H32412166   5.708   7.366   0.518 -0.2704  0.5614 -1.1203
   32MOL   C32512167   5.785   7.059   0.192  0.2417  0.4502 -0.1270
   32MOL   C32612168   5.676   7.044   0.088 -0.5364  0.3398  0.2273
   32MOL   C32712169   5.735   6.953   7.624  1.2229 -0.1292  0.1002
   32MOL   C32812170   5.870   6.899   0.021  0.1688 -0.1721  0.8797
   32MOL   C32912171   5.862   6.753   0.080  0.1762  1.1430 -0.0935
   32MOL   C33012172   5.780   6.647   0.008  0.1151  0.1128 -0.5487
   32MOL   C33112173   5.912   7.004   0.124  0.1935  0.2657  0.0298
   32MOL   H33212174   5.760   6.993   0.275 -0.6238 -0.5646 -1.1811
   32MOL   H33312175   5.647   7.139   0.042  0.1952  0.1189 -0.7064
   32MOL   H33412176   5.591   6.986   0.125 -1.5714  2.7246  1.7226
   32MOL   H33512177   5.658   6.880   7.599 -1.6691  2.4142  1.1766
   32MOL   H33612178   5.749   7.006   7.529 -0.3523 -0.0413 -0.1030
   32MOL   H33712179   5.940   6.885   7.587 -1.4485 -0.1418 -0.5516
   32MOL   H33812180   5.964   6.717   0.090 -1.2437 -3.0417  0.3607
   32MOL   H33912181   5.827   6.758   0.183  2.2964  1.2411  0.6530
   32MOL   H34012182   5.682   6.661   0.052  0.7961 -0.5012  1.1905
   32MOL   H34112183   5.783   6.674   7.549 -0.5828  0.1080 -0.5683
   32MOL   H34212184   5.959   7.085   0.069 -3.3888  1.2684 -1.6965
   32MOL   H34312185   5.987   6.973   0.197 -0.5925 -0.9764  0.3279
   32MOL   C34412186   5.824   6.500   0.023 -0.6175 -0.7411 -0.8497
   32MOL   C34512187   5.844   6.450   0.167  0.4488 -0.4292 -0.4889
   32MOL   C34612188   5.930   6.331   0.151  0.6420  0.0859  0.4238
   32MOL   C34712189   6.010   6.339   0.019  0.2868  0.2970 -0.3243
   32MOL   C34812190   5.999   6.211   7.587  0.3710 -0.1803 -0.2944
   32MOL   C34912191   6.091   6.214   7.464 -0.1364 -0.0446 -0.5330
   32MOL   C35012192   5.951   6.463   7.598 -0.7629  0.3856 -0.3287
   32MOL   H35112193   5.748   6.439   7.622 -0.3236 -1.8455  0.0450
   32MOL   H35212194   5.755   6.435   0.228  0.1518  1.2488 -0.4989
   32MOL   H35312195   5.900   6.536   0.203 -1.4135  1.0442 -1.0557
   32MOL   H35412196   5.994   6.319   0.239  2.9971 -2.7271 -1.5595
   32MOL   H35512197   5.864   6.244   0.157 -1.6215  1.5509 -2.1123
   32MOL   H35612198   6.111   6.347   0.058 -0.4336  0.8867  1.4389
   32MOL   H35712199   6.013   6.132   0.015  1.0860  1.4266  1.3037
   32MOL   H35812200   5.898   6.206   7.545 -0.1958  1.8596  0.7334
   32MOL   H35912201   6.194   6.236   7.495  0.2871  0.6504 -2.3780
   32MOL   H36012202   6.056   6.297   7.402 -0.1034  1.1917  1.0619
   32MOL   H36112203   6.014   6.552   7.596 -2.6742  1.7538 -2.6038
   32MOL   H36212204   5.928   6.433   7.495  1.8879 -0.1600 -0.7863
   32MOL   C36312205   6.092   6.072   7.396 -0.1186  0.0604 -0.0151
   32MOL   C36412206   6.191   6.054   7.274  0.4833 -0.4829 -0.5417
   32MOL   C36512207   6.126   5.977   7.168  0.3359  1.1005 -0.4919
   32MOL   C36612208   5.994   5.929   7.229 -0.0417 -0.5675 -0.1835
   32MOL   C36712209   5.895   5.920   7.119 -0.1887  0.4824  0.4104
   32MOL   C36812210   5.928   5.821   7.005 -0.1146  1.1512 -0.4899
   32MOL   C36912211   5.959   6.033   7.333  0.5100  0.5121  0.7772
   32MOL   H37012212   6.116   5.995   7.469 -0.0016  0.0260 -0.0899
   32MOL   H37112213   6.231   6.154   7.255 -1.9962  0.7749  0.5280
   32MOL   H37212214   6.278   6.002   7.313 -0.5352 -1.9207 -0.1434
   32MOL   H37312215   6.107   6.035   7.078 -0.9556 -0.3400 -1.1628
   32MOL   H37412216   6.176   5.892   7.123  0.1766 -0.4631  2.1734
   32MOL   H37512217   5.998   5.830   7.275  0.3335 -0.8882 -0.8979
   32MOL   H37612218   5.804   5.873   7.156 -0.6916 -1.3372 -2.9805
   32MOL   H37712219   5.887   6.020   7.077  0.2448 -0.0242 -0.8916
   32MOL   H37812220   6.021   5.842   6.952 -0.1670  1.5834 -0.4083
   32MOL   H37912221   5.843   5.825   6.938  0.5569 -0.3408 -1.4548
   32MOL   H38012222   5.917   6.125   7.293 -0.4207  0.5706  1.8442
   32MOL   H38112223   5.889   5.992   7.406 -1.0449 -0.3828 -1.1682
   32MOL   H38212224   5.951   5.722   7.045  0.6533  1.4614 -0.1398
   33MOL     C112225   3.645   7.285   6.149  0.9273 -0.4078  0.1019
   33MOL     C212226   3.773   7.280   6.231  0.5521 -0.8380  0.2302
   33MOL     C312227   3.803   7.134   6.256  0.3175 -0.5533 -0.8272
   33MOL     C412228   3.715   7.052   6.163 -0.2196 -0.4290  0.3333
   33MOL     C512229   3.681   6.914   6.228 -0.1455  0.2433  0.2719
   33MOL     C612230   3.596   6.822   6.134  0.0242  1.2472  0.3622
   33MOL     C712231   3.587   7.143   6.144  0.4299  0.4481  0.5543
   33MOL     H812232   3.581   7.348   6.212  0.3246  0.3022 -1.2044
   33MOL     H912233   3.742   7.327   6.325 -2.2907  0.0559 -1.1120
   33MOL    H1012234   3.851   7.341   6.186  0.0793  0.5258  1.2078
   33MOL    H1112235   3.910   7.114   6.248  0.4448 -0.5359  0.6274
   33MOL    H1212236   3.784   7.100   6.358 -0.9002  0.3003 -0.7629
   33MOL    H1312237   3.766   7.030   6.069 -1.2071  3.1693 -1.1484
   33MOL    H1412238   3.775   6.872   6.265 -0.0175  0.5595  0.3072
   33MOL    H1512239   3.611   6.944   6.306 -1.1327 -0.9846 -0.1279
   33MOL    H1612240   3.525   6.748   6.173  1.1077 -1.1659 -2.0650
   33MOL    H1712241   3.514   6.874   6.085 -0.3627  0.1761 -0.1565
   33MOL    H1812242   3.529   7.127   6.053 -0.9290  1.6213  1.1975
   33MOL    H1912243   3.521   7.127   6.229 -2.3759 -0.2805 -1.6859
   33MOL    H2012244   3.669   7.321   6.049  2.6082 -1.2409  0.1911
   33MOL    C2112245   3.678   6.765   6.020 -0.3957 -0.0908  0.5279
   33MOL    C2212246   3.797   6.675   6.069  0.3888 -0.1717 -0.4418
   33MOL    C2312247   3.831   6.594   5.946  0.3264  0.1673 -0.3248
   33MOL    C2412248   3.710   6.597   5.855 -0.2871 -0.1375 -0.0156
   33MOL    C2512249   3.679   6.462   5.791 -0.4935 -0.5808 -0.7946
   33MOL    C2612250   3.556   6.448   5.697  0.1780  0.1906 -0.1172
   33MOL    C2712251   3.595   6.666   5.937 -0.1930  0.2574 -0.0241
   33MOL    H2812252   3.708   6.848   5.956  3.2498 -0.7055  1.3157
   33MOL    H2912253   3.890   6.725   6.097  1.3896 -2.2421  0.0580
   33MOL    H3012254   3.766   6.612   6.153  2.4767  0.0138  0.4930
   33MOL    H3112255   3.919   6.638   5.899  1.4929  0.1888  1.8393
   33MOL    H3212256   3.857   6.491   5.970 -0.0551  0.4127  1.1679
   33MOL    H3312257   3.733   6.665   5.773  3.3877 -0.5740  0.5910
   33MOL    H3412258   3.652   6.403   5.879  0.3926  1.2415  0.7348
   33MOL    H3512259   3.765   6.415   5.743  0.6353  2.7901 -2.2432
   33MOL    H3612260   3.568   6.497   5.600 -2.0540  1.8769  0.4378
   33MOL    H3712261   3.471   6.499   5.740 -1.0522 -2.5600  0.8399
   33MOL    H3812262   3.518   6.703   5.871  0.0740  0.0231 -0.4670
   33MOL    H3912263   3.546   6.594   6.003 -1.2551  1.8425  0.9349
   33MOL    C4012264   3.522   6.297   5.676 -0.3722 -1.1956  0.2311
   33MOL    C4112265   3.467   6.224   5.794 -0.3672  0.4001 -0.6694
   33MOL    C4212266   3.420   6.089   5.737  0.3463  0.6674  0.3840
   33MOL    C4312267   3.386   6.123   5.597  0.7075  0.1881 -0.8264
   33MOL    C4412268   3.466   6.034   5.501 -0.1429  0.3503  0.1290
   33MOL    C4512269   3.424   5.889   5.499 -0.2860 -0.2791  0.3294
   33MOL    C4612270   3.410   6.274   5.574  0.5878  0.0890 -0.8332
   33MOL    H4712271   3.616   6.264   5.631 -1.2491 -0.7731 -1.9715
   33MOL    H4812272   3.387   6.280   5.842  0.7756 -0.3544  2.2344
   33MOL    H4912273   3.551   6.215   5.863  0.1895 -0.8244 -1.4786
   33MOL    H5012274   3.500   6.015   5.739 -0.3571 -0.0779  2.5431
   33MOL    H5112275   3.337   6.048   5.794 -0.8212  2.4811  0.0188
   33MOL    H5212276   3.278   6.112   5.588  0.6461 -1.2184  1.3068
   33MOL    H5312277   3.455   6.072   5.399  0.6755 -0.0885 -0.1270
   33MOL    H5412278   3.573   6.035   5.523 -0.3134 -1.2974  1.1290
   33MOL    H5512279   3.317   5.876   5.480 -0.1798 -2.1753  0.9100
   33MOL    H5612280   3.433   5.845   5.598 -2.3152 -0.0238  0.6587
   33MOL    H5712281   3.436   6.279   5.468  0.6176 -0.9894 -0.8786
   33MOL    H5812282   3.330   6.344   5.598 -0.0009 -0.6534 -0.6182
   33MOL    C5912283   3.493   5.805   5.390  0.2830  0.3911  0.0024
   33MOL    C6012284   3.467   5.652   5.383 -0.0856  0.8576 -0.6323
   33MOL    C6112285   3.487   5.604   5.237 -0.1880  0.3133  0.8730
   33MOL    C6212286   3.473   5.729   5.151  0.3758  1.0792  0.6566
   33MOL    C6312287   3.576   5.737   5.032 -0.0666 -0.2874 -0.4075
   33MOL    C6412288   3.584   5.616   4.940 -0.5099 -0.1376  0.4153
   33MOL    C6512289   3.471   5.855   5.251 -0.0456  0.7115  0.9939
   33MOL    H6612290   3.599   5.820   5.411  0.2265  2.6366 -1.1084
   33MOL    H6712291   3.544   5.601   5.442 -1.3518  0.4692  0.7330
   33MOL    H6812292   3.368   5.617   5.413  0.0150 -0.4980 -1.8392
   33MOL    H6912293   3.586   5.559   5.238  0.1017  0.9417  0.9167
   33MOL    H7012294   3.410   5.532   5.210 -0.7908  1.4505 -0.5049
   33MOL    H7112295   3.370   5.741   5.118 -0.3407  0.6851  2.7161
   33MOL    H7212296   3.672   5.764   5.076 -1.5025  2.5906  1.1247
   33MOL    H7312297   3.551   5.826   4.973 -0.1086  1.0516  1.5982
   33MOL    H7412298   3.667   5.648   4.877 -0.6578 -1.6266 -0.5605
   33MOL    H7512299   3.616   5.523   4.986  0.6550  0.9377  1.8472
   33MOL    H7612300   3.540   5.929   5.211  1.6514 -1.8972 -1.1453
   33MOL    H7712301   3.376   5.907   5.245 -0.6826 -0.5174 -0.0120
   33MOL    C7812302   3.461   5.597   4.844 -0.3512  0.7854 -0.0386
   33MOL    C7912303   3.499   5.519   4.717 -0.1099 -0.5721 -0.2572
   33MOL    C8012304   3.382   5.423   4.685 -0.7985 -0.2485 -0.8927
   33MOL    C8112305   3.272   5.462   4.782 -0.0039  0.4954 -0.4053
   33MOL    C8212306   3.181   5.341   4.806  0.3867 -0.4707  0.5365
   33MOL    C8312307   3.092   5.350   4.928  0.0704 -0.0788  0.8207
   33MOL    C8412308   3.348   5.518   4.908 -0.2672  0.0744 -0.4748
   33MOL    H8512309   3.429   5.691   4.800  0.1154  0.9755  0.0317
   33MOL    H8612310   3.543   5.566   4.629  0.7832  1.0970  1.0464
   33MOL    H8712311   3.571   5.446   4.755 -1.1387 -1.6732 -0.3991
   33MOL    H8812312   3.365   5.433   4.578 -0.1474 -2.1116 -1.1856
   33MOL    H8912313   3.423   5.325   4.710  1.8115  1.0272 -0.0058
   33MOL    H9012314   3.218   5.543   4.734  0.1295  0.1552 -1.1332
   33MOL    H9112315   3.237   5.250   4.827 -0.7411 -1.3620 -0.2124
   33MOL    H9212316   3.118   5.324   4.719  1.2677  0.4829 -0.2957
   33MOL    H9312317   3.039   5.445   4.921  1.2617  0.3958 -2.3846
   33MOL    H9412318   3.157   5.373   5.013 -0.5912  1.5365  0.8978
   33MOL    H9512319   3.385   5.442   4.978  0.6384  1.2825  0.3629
   33MOL    H9612320   3.275   5.587   4.950 -1.2705 -0.6472 -1.0033
   33MOL    C9712321   3.006   5.226   4.971  0.7648 -0.4326  0.6855
   33MOL    C9812322   2.914   5.171   4.860 -1.1419 -0.2871 -0.2935
   33MOL    C9912323   2.801   5.109   4.942  0.1827  0.3836 -0.6912
   33MOL   C10012324   2.825   5.131   5.086  0.3794  0.4598 -0.3627
   33MOL   C10112325   2.700   5.146   5.177  0.0998 -0.0980  0.5192
   33MOL   C10212326   2.616   5.013   5.160 -0.4205 -0.0593  0.2890
   33MOL   C10312327   2.922   5.250   5.090  0.4309  0.5055 -0.1096
   33MOL   H10412328   3.076   5.147   4.999  3.2390  1.9054  1.2755
   33MOL   H10512329   2.870   5.254   4.804  3.1718  3.0744  1.0025
   33MOL   H10612330   2.964   5.108   4.787 -0.9840 -0.6936  0.1657
   33MOL   H10712331   2.706   5.142   4.899 -1.3231 -0.6753  1.7044
   33MOL   H10812332   2.797   5.001   4.926  1.6029  0.0298  1.1832
   33MOL   H10912333   2.880   5.046   5.126 -0.8490  0.7558  2.0469
   33MOL   H11012334   2.726   5.165   5.281 -0.3700  1.0149  0.4370
   33MOL   H11112335   2.652   5.237   5.143 -0.5065 -1.1948 -1.6447
   33MOL   H11212336   2.617   4.986   5.054 -1.0085  0.2843  0.1962
   33MOL   H11312337   2.666   4.932   5.214 -0.4971  0.2545  0.8233
   33MOL   H11412338   2.866   5.339   5.060 -0.9318 -0.3058 -0.0039
   33MOL   H11512339   2.983   5.264   5.180  1.1078  2.3207 -0.8175
   33MOL   C11612340   2.471   5.018   5.217  0.2356 -0.1248 -0.6494
   33MOL   C11712341   2.380   5.113   5.144 -0.1642  0.2566  1.3281
   33MOL   C11812342   2.234   5.069   5.170 -0.3201 -0.1496  0.2215
   33MOL   C11912343   2.247   4.945   5.263  0.1540 -0.1450  0.0958
   33MOL   C12012344   2.142   4.840   5.233  0.2661 -0.6672  0.2980
   33MOL   C12112345   2.146   4.700   5.302 -1.0485  0.0990  0.5756
   33MOL   C12212346   2.393   4.890   5.229  0.0793 -0.4914  0.3988
   33MOL   H12312347   2.476   5.054   5.320 -2.8299 -1.2839 -0.0548
   33MOL   H12412348   2.401   5.110   5.037  1.4299 -4.5778  1.6626
   33MOL   H12512349   2.405   5.214   5.175  0.6902  0.4584 -0.0055
   33MOL   H12612350   2.200   5.031   5.074  2.0648 -0.7885 -0.4201
   33MOL   H12712351   2.166   5.147   5.204 -0.3268  0.7213 -1.7065
   33MOL   H12812352   2.248   4.967   5.369 -1.7994  1.4490 -0.1830
   33MOL   H12912353   2.133   4.817   5.127  0.7826  1.3141 -0.1937
   33MOL   H13012354   2.045   4.881   5.263 -0.1276 -1.2405 -0.1861
   33MOL   H13112355   2.152   4.710   5.411 -1.4489 -0.3936  0.6471
   33MOL   H13212356   2.245   4.665   5.273 -0.3522  2.3868  0.0646
   33MOL   H13312357   2.424   4.823   5.309 -1.9043 -0.6189  1.0773
   33MOL   H13412358   2.396   4.837   5.134  0.3851 -1.5190  0.9845
   33MOL   C13512359   2.033   4.596   5.264  0.0602 -0.4566 -0.2294
   33MOL   C13612360   2.036   4.553   5.114 -0.1374 -0.8355 -0.3132
   33MOL   C13712361   2.020   4.397   5.119 -0.1757  0.4897 -0.1779
   33MOL   C13812362   2.073   4.349   5.253  0.1883  0.5235 -0.3206
   33MOL   C13912363   2.011   4.218   5.294  0.3275 -0.1461  0.6936
   33MOL   C14012364   2.079   4.100   5.230  0.1887 -0.5666 -0.2255
   33MOL   C14112365   2.030   4.470   5.349  0.1720 -0.3080  0.6050
   33MOL   H14212366   1.931   4.632   5.271  0.8751  2.0897 -0.9154
   33MOL   H14312367   1.961   4.604   5.055  0.3754  0.2674 -0.0128
   33MOL   H14412368   2.137   4.579   5.082  0.4464 -1.6364  0.8107
   33MOL   H14512369   1.918   4.359   5.123  0.6941 -1.7181  3.3433
   33MOL   H14612370   2.067   4.348   5.033  1.4834  1.3260  0.2409
   33MOL   H14712371   2.181   4.335   5.241  0.4574  2.9413 -1.0198
   33MOL   H14812372   1.905   4.221   5.270  0.5656  0.7730 -0.2680
   33MOL   H14912373   2.009   4.197   5.401  0.9764 -2.3227  0.3125
   33MOL   H15012374   2.086   4.112   5.122  1.3284 -1.6085 -0.2847
   33MOL   H15112375   2.179   4.088   5.273  0.3812  1.1148 -0.1703
   33MOL   H15212376   2.099   4.476   5.434  0.8069  0.3730  0.0465
   33MOL   H15312377   1.929   4.446   5.383 -1.1800  3.2273 -0.7437
   33MOL   C15412378   1.992   3.970   5.249  0.0338  0.6624  0.0036
   33MOL   C15512379   1.972   3.912   5.394 -0.0543 -0.0971 -0.1095
   33MOL   C15612380   2.049   3.779   5.403 -0.1649 -0.2003  0.4862
   33MOL   C15712381   2.039   3.721   5.262 -0.4125  0.0862 -0.1638
   33MOL   C15812382   2.155   3.625   5.231  0.6137 -0.9109  0.2949
   33MOL   C15912383   2.152   3.499   5.304  0.4263  0.5409 -0.4554
   33MOL   C16012384   2.032   3.845   5.166 -0.4194 -0.5320  0.2004
   33MOL   H16112385   1.894   4.001   5.214 -0.6839 -1.8695 -0.2989
   33MOL   H16212386   1.995   3.986   5.471 -1.5086 -1.5368  1.7284
   33MOL   H16312387   1.870   3.883   5.418  0.1113  1.3642  2.5418
   33MOL   H16412388   2.155   3.800   5.419 -0.8310  3.6448  0.4804
   33MOL   H16512389   2.006   3.701   5.466  2.1865 -1.6282  0.3796
   33MOL   H16612390   1.942   3.672   5.255 -0.8627  0.9451 -0.0346
   33MOL   H16712391   2.245   3.685   5.247  0.9664 -1.1179 -0.8777
   33MOL   H16812392   2.156   3.597   5.126 -2.5471 -0.2158  0.0529
   33MOL   H16912393   2.153   3.512   5.412 -0.8956  1.7077 -0.5703
   33MOL   H17012394   2.053   3.457   5.284  0.5793  0.3995 -0.9260
   33MOL   H17112395   1.961   3.827   5.085  0.4105 -0.8854 -0.4589
   33MOL   H17212396   2.126   3.867   5.115 -0.4624  0.4471  0.5305
   33MOL   C17312397   2.264   3.398   5.265 -0.0887 -0.1087  0.4224
   33MOL   C17412398   2.406   3.451   5.303  0.3806  0.1598 -0.3072
   33MOL   C17512399   2.479   3.325   5.347  0.1917 -0.3672  0.3309
   33MOL   C17612400   2.382   3.204   5.349 -0.2781 -0.5752 -0.0716
   33MOL   C17712401   2.387   3.118   5.481  0.5569  0.3453  0.9752
   33MOL   C17812402   2.315   2.984   5.467  0.2126  0.0970  0.0611
   33MOL   C17912403   2.236   3.263   5.323 -0.1411 -0.2596  0.0800
   33MOL   H18012404   2.264   3.378   5.158  0.3851 -1.0779  0.6044
   33MOL   H18112405   2.382   3.518   5.385  0.1107  1.3358 -1.3314
   33MOL   H18212406   2.456   3.505   5.223  1.9322 -1.8061 -0.7110
   33MOL   H18312407   2.573   3.308   5.293  0.0683  0.6053 -0.2060
   33MOL   H18412408   2.510   3.340   5.450 -2.5864 -1.4493  1.3573
   33MOL   H18512409   2.413   3.147   5.261  3.5560  2.4537 -0.8395
   33MOL   H18612410   2.343   3.164   5.569 -0.4753 -0.8929  1.1152
   33MOL   H18712411   2.487   3.095   5.517  0.8346 -3.0382 -1.6826
   33MOL   H18812412   2.366   2.947   5.378 -0.8605 -0.3526 -0.3733
   33MOL   H18912413   2.209   3.001   5.446  1.0070  3.9479 -1.2519
   33MOL   H19012414   2.194   3.278   5.422 -1.6741  0.5228 -0.6691
   33MOL   H19112415   2.169   3.219   5.250 -0.1372  0.4835 -0.3796
   33MOL   C19212416   2.335   2.871   5.573 -0.2520 -0.8540  0.1765
   33MOL   C19312417   2.352   2.733   5.506 -1.0019 -0.3528  0.0824
   33MOL   C19412418   2.232   2.647   5.536  0.0596 -0.3217 -0.5023
   33MOL   C19512419   2.136   2.741   5.609  0.4834 -0.9701  0.5950
   33MOL   C19612420   2.041   2.674   5.712 -0.2342  0.1638 -0.3778
   33MOL   C19712421   1.923   2.771   5.748  0.2388 -0.8176 -0.1715
   33MOL   C19812422   2.217   2.857   5.667  0.0448 -1.4699 -0.2544
   33MOL   H19912423   2.433   2.876   5.621 -0.2919 -0.0702  0.1749
   33MOL   H20012424   2.377   2.726   5.401 -1.9066 -0.1069 -0.1550
   33MOL   H20112425   2.440   2.680   5.543 -1.1490 -0.2627  0.5650
   33MOL   H20212426   2.257   2.569   5.608  0.8239  0.4480  0.0808
   33MOL   H20312427   2.191   2.597   5.449 -3.6547  0.8596  0.4864
   33MOL   H20412428   2.076   2.765   5.522  2.8140  0.1688 -0.7386
   33MOL   H20512429   2.102   2.644   5.797 -0.2399 -0.2598 -0.5205
   33MOL   H20612430   2.016   2.576   5.671  2.1691 -0.7409  0.2736
   33MOL   H20712431   1.953   2.874   5.762  1.4916 -1.0052 -1.4455
   33MOL   H20812432   1.874   2.745   5.842 -0.1917 -1.5702 -0.5964
   33MOL   H20912433   2.251   2.838   5.769 -1.4245  0.0096  0.5358
   33MOL   H21012434   2.158   2.948   5.681 -0.1210 -1.6830  0.4375
   33MOL   C21112435   1.815   2.781   5.633  0.0701  0.7529 -0.6114
   33MOL   C21212436   1.733   2.909   5.643  0.5801 -0.9614  0.1393
   33MOL   C21312437   1.593   2.870   5.601 -0.4212  0.1367 -0.0741
   33MOL   C21412438   1.589   2.721   5.575  0.1956 -0.3340 -0.0708
   33MOL   C21512439   1.453   2.647   5.607  0.0134  0.1574 -0.2562
   33MOL   C21612440   1.347   2.658   5.503  0.3613 -0.0987  0.1080
   33MOL   C21712441   1.711   2.672   5.652 -0.1049 -0.2061 -0.4254
   33MOL   H21812442   1.855   2.789   5.532  1.1392 -0.9041 -0.3392
   33MOL   H21912443   1.716   2.944   5.744 -0.1897 -2.1445  0.4203
   33MOL   H22012444   1.777   2.984   5.577 -1.4491 -0.4481 -0.6677
   33MOL   H22112445   1.513   2.900   5.669 -0.0989 -1.8066  1.1893
   33MOL   H22212446   1.574   2.931   5.513  0.6527  0.1384 -0.3132
   33MOL   H22312447   1.608   2.701   5.470  2.0755  2.9728 -0.4411
   33MOL   H22412448   1.425   2.696   5.700  1.3697 -0.5825  0.5650
   33MOL   H22512449   1.466   2.550   5.657  1.0405  1.6317  2.4510
   33MOL   H22612450   1.347   2.755   5.453 -1.8745 -0.5835 -0.8764
   33MOL   H22712451   1.377   2.581   5.432 -1.2096 -1.5715  0.9920
   33MOL   H22812452   1.745   2.573   5.623  1.3711  0.9931 -2.9424
   33MOL   H22912453   1.680   2.663   5.756 -1.3938 -0.0867 -0.7837
   33MOL   C23012454   1.214   2.621   5.558  0.3046 -0.3467 -0.7161
   33MOL   C23112455   1.108   2.612   5.451 -0.4431 -0.7065  0.2320
   33MOL   C23212456   0.978   2.662   5.518 -0.1523 -0.0517  0.3778
   33MOL   C23312457   1.033   2.772   5.609  0.5017 -0.3829 -0.1660
   33MOL   C23412458   0.931   2.815   5.709  0.5078  0.7266 -0.5491
   33MOL   C23512459   0.975   2.941   5.789 -0.1252 -0.0226 -0.3250
   33MOL   C23612460   1.163   2.721   5.662  0.2319 -0.3394  0.1222
   33MOL   H23712461   1.204   2.526   5.610  1.3916 -0.3273 -0.4627
   33MOL   H23812462   1.134   2.685   5.375 -1.1223  0.9886  1.5980
   33MOL   H23912463   1.093   2.512   5.410 -2.1167 -0.2432 -0.3378
   33MOL   H24012464   0.943   2.581   5.582 -0.8616 -1.1701 -1.3886
   33MOL   H24112465   0.899   2.690   5.449 -1.6891 -3.5408  0.6222
   33MOL   H24212466   1.048   2.858   5.544 -0.6813 -0.1231 -0.1046
   33MOL   H24312467   0.901   2.735   5.777 -1.8490  0.9362 -1.3005
   33MOL   H24412468   0.841   2.836   5.651  1.8309  2.8762 -1.8641
   33MOL   H24512469   1.075   2.910   5.819  1.7927  3.5098 -2.7629
   33MOL   H24612470   0.999   3.027   5.727  1.0148  1.8589  2.6755
   33MOL   H24712471   1.148   2.670   5.757  0.6149  0.1189  0.4331
   33MOL   H24812472   1.227   2.807   5.682  0.3046 -0.6432  1.2202
   33MOL   C24912473   0.888   2.969   5.915 -0.2018 -0.3912 -0.2428
   33MOL   C25012474   0.905   2.879   6.038  0.2137  0.5574 -0.6683
   33MOL   C25112475   0.922   2.973   6.160 -0.3059 -0.0678  0.3354
   33MOL   C25212476   0.973   3.106   6.099 -0.7974  0.1948 -0.6713
   33MOL   C25312477   0.941   3.219   6.209  0.1443  0.2784  0.2857
   33MOL   C25412478   0.996   3.357   6.175  0.3569  0.7684 -0.3282
   33MOL   C25512479   0.898   3.117   5.967 -0.0294  0.0362 -0.2922
   33MOL   H25612480   0.786   2.948   5.883 -1.1946  0.7505  2.0458
   33MOL   H25712481   0.824   2.809   6.054  1.0098 -0.4352 -0.9127
   33MOL   H25812482   0.985   2.806   6.025 -0.7334 -0.8281  1.2047
   33MOL   H25912483   0.998   2.947   6.234  0.2513  0.1082 -0.1753
   33MOL   H26012484   0.836   2.988   6.225  1.6090 -1.9593  3.4349
   33MOL   H26112485   1.080   3.092   6.082 -0.4458  1.6147  0.3140
   33MOL   H26212486   0.967   3.176   6.305 -0.9474 -1.6513 -0.2588
   33MOL   H26312487   0.832   3.223   6.203  0.1674  3.1555  0.8485
   33MOL   H26412488   0.938   3.399   6.093 -0.3255  3.5835  1.5147
   33MOL   H26512489   1.100   3.350   6.142  0.7350 -0.9352  1.1602
   33MOL   H26612490   0.935   3.188   5.893 -2.5420 -0.8177 -2.4596
   33MOL   H26712491   0.795   3.148   5.983  0.3582  0.9993  0.3479
   33MOL   C26812492   0.981   3.458   6.297  0.3041 -0.2900  0.3573
   33MOL   C26912493   0.835   3.510   6.333 -0.7008  0.3817 -0.1008
   33MOL   C27012494   0.836   3.661   6.305  0.9959 -0.1463  0.5118
   33MOL   C27112495   0.985   3.703   6.307  0.1178  0.0777  0.2310
   33MOL   C27212496   1.003   3.833   6.223 -0.3031 -0.3245  0.5066
   33MOL   C27312497   1.138   3.895   6.238 -0.6721  0.4101 -0.5412
   33MOL   C27412498   1.066   3.584   6.263 -0.8082 -0.6836 -0.4223
   33MOL   H27512499   1.021   3.409   6.386 -1.0401  0.8706  1.6228
   33MOL   H27612500   0.755   3.463   6.276 -0.8572 -0.6315  0.9189
   33MOL   H27712501   0.822   3.497   6.441 -0.7159  0.0744 -0.1396
   33MOL   H27812502   0.792   3.681   6.207 -1.1917  0.4358  1.5892
   33MOL   H27912503   0.782   3.720   6.379  1.6806  0.5747  0.4475
   33MOL   H28012504   1.002   3.730   6.411  1.1823 -1.2558  0.4231
   33MOL   H28112505   0.925   3.905   6.245 -0.0003  0.9692 -2.3758
   33MOL   H28212506   0.996   3.797   6.120  2.5300 -1.7489  0.7458
   33MOL   H28312507   1.165   3.915   6.341 -0.9336 -0.0877 -0.3773
   33MOL   H28412508   1.215   3.825   6.206  0.8475  0.0922  3.5289
   33MOL   H28512509   1.082   3.598   6.156  2.0385  0.3130  0.1008
   33MOL   H28612510   1.167   3.562   6.298 -0.1670  0.1617 -1.7016
   33MOL   C28712511   1.173   4.022   6.157 -0.2851  0.9727  0.6173
   33MOL   C28812512   1.159   4.013   6.007 -0.5609  0.7080 -0.2235
   33MOL   C28912513   1.108   4.148   5.958 -0.0775 -0.0540 -0.1208
   33MOL   C29012514   1.116   4.236   6.082  0.0404 -1.0220 -0.0795
   33MOL   C29112515   1.021   4.367   6.085 -0.1076  0.6365 -0.2675
   33MOL   C29212516   1.009   4.439   5.951 -0.3870  0.0771  0.1454
   33MOL   C29312517   1.098   4.147   6.201  0.0715  0.1989 -0.5859
   33MOL   H29412518   1.277   4.041   6.186 -0.1374 -0.6104  1.1490
   33MOL   H29512519   1.252   3.980   5.962 -0.1342 -1.3282  2.0409
   33MOL   H29612520   1.080   3.944   5.978 -0.0488  0.1790 -0.3497
   33MOL   H29712521   0.999   4.146   5.946 -0.0123  0.4023 -0.8697
   33MOL   H29812522   1.158   4.173   5.864  1.2857 -0.0769  0.5945
   33MOL   H29912523   1.218   4.274   6.078 -0.0048 -0.8764  0.0889
   33MOL   H30012524   1.068   4.425   6.164 -1.4214  1.4209 -0.0473
   33MOL   H30112525   0.916   4.346   6.107  0.4498 -1.5906  0.3293
   33MOL   H30212526   0.956   4.372   5.884  2.6746 -2.5557  0.2466
   33MOL   H30312527   1.108   4.439   5.905  0.3180  0.3641  1.6231
   33MOL   H30412528   0.998   4.122   6.238  0.9504 -1.2538  0.8858
   33MOL   H30512529   1.144   4.183   6.293 -1.2837  1.3432 -0.3328
   33MOL   C30612530   0.947   4.580   5.953  0.3695  0.5352 -0.4233
   33MOL   C30712531   0.925   4.640   5.812  0.9252  0.2050  0.0387
   33MOL   C30812532   0.783   4.675   5.801 -0.6938 -0.2246 -0.2426
   33MOL   C30912533   0.736   4.694   5.941  0.4650  0.5011 -0.1436
   33MOL   C31012534   0.585   4.724   5.971 -0.4234 -0.2713 -0.2427
   33MOL   C31112535   0.481   4.632   5.902  0.3151 -0.3480  0.2661
   33MOL   C31212536   0.812   4.590   6.016 -0.2765 -0.0479  0.2225
   33MOL   H31312537   1.008   4.652   6.008 -0.2445  0.1167  0.8321
   33MOL   H31412538   0.973   4.737   5.802 -1.0681  0.9772 -2.8576
   33MOL   H31512539   0.965   4.576   5.734  3.2916 -0.2874  1.6108
   33MOL   H31612540   0.761   4.769   5.750  1.7563  0.3502 -0.2754
   33MOL   H31712541   0.737   4.583   5.764  0.7595 -2.1249  2.5504
   33MOL   H31812542   0.789   4.783   5.975 -0.4061  0.3866  1.5280
   33MOL   H31912543   0.575   4.710   6.079 -0.8632  2.7729  0.1381
   33MOL   H32012544   0.564   4.829   5.951 -0.1000 -0.2211 -0.3279
   33MOL   H32112545   0.525   4.542   5.859 -0.8532 -0.3614 -0.9430
   33MOL   H32212546   0.457   4.685   5.810  0.1773  2.6565  1.9716
   33MOL   H32312547   0.759   4.495   6.008 -0.5913  0.2740 -1.9532
   33MOL   H32412548   0.817   4.605   6.124 -4.1620  0.9476  0.3365
   33MOL   C32512549   0.352   4.607   5.979 -0.5364  0.2130 -0.2348
   33MOL   C32612550   0.247   4.533   5.891  0.2663  0.0655  0.5094
   33MOL   C32712551   0.142   4.487   5.993 -0.1239 -0.0290  0.3439
   33MOL   C32812552   0.231   4.429   6.103 -0.0360 -0.4912  0.3106
   33MOL   C32912553   0.169   4.432   6.240 -0.0514  0.2132 -0.5145
   33MOL   C33012554   0.033   4.349   6.261 -0.1429 -0.1439  0.1586
   33MOL   C33112555   0.359   4.518   6.099 -0.0059 -0.4991  0.2718
   33MOL   H33212556   0.310   4.702   6.011 -0.8186  0.8363 -2.4011
   33MOL   H33312557   0.297   4.460   5.828 -2.3749 -0.2966 -1.2571
   33MOL   H33412558   0.198   4.597   5.818  0.6986 -0.0334  0.1267
   33MOL   H33512559   0.094   4.578   6.031 -1.9399 -1.6577  2.0544
   33MOL   H33612560   0.061   4.432   5.946  0.0634 -0.1330  0.1450
   33MOL   H33712561   0.277   4.335   6.074 -1.4804 -1.6119  1.6058
   33MOL   H33812562   0.241   4.388   6.309 -1.9097 -0.4110  1.0741
   33MOL   H33912563   0.155   4.534   6.277 -0.3230  0.2520 -0.7256
   33MOL   H34012564   7.602   4.388   6.196 -2.2019 -2.0500  1.4035
   33MOL   H34112565   0.039   4.244   6.230 -1.3837 -0.0357 -0.4725
   33MOL   H34212566   0.448   4.458   6.085 -0.2566 -0.8881  0.3574
   33MOL   H34312567   0.368   4.564   6.197  1.7464  1.0001 -0.5543
   33MOL   C34412568   7.632   4.368   6.408 -0.1248  0.6830 -0.0348
   33MOL   C34512569   0.074   4.307   6.520 -0.1283 -0.3648  0.0458
   33MOL   C34612570   7.630   4.291   6.637  0.4600 -0.0923 -0.9156
   33MOL   C34712571   7.487   4.261   6.577 -0.6126 -0.4902 -0.0160
   33MOL   C34812572   7.361   4.311   6.644 -0.5156 -0.1886  0.0527
   33MOL   C34912573   7.353   4.255   6.787  0.2525  0.0307  0.1769
   33MOL   C35012574   7.492   4.316   6.433 -0.2320 -0.4338 -0.1146
   33MOL   H35112575   7.633   4.474   6.433  2.1269  0.3287  1.5579
   33MOL   H35212576   0.161   4.366   6.546 -0.4104  1.2991 -2.5786
   33MOL   H35312577   0.106   4.204   6.503  0.4903  0.0948 -1.7403
   33MOL   H35412578   0.023   4.228   6.716  1.6108  1.5487 -0.1497
   33MOL   H35512579   7.614   4.388   6.685 -0.1916 -0.7932  0.3080
   33MOL   H35612580   7.467   4.154   6.572  0.3847 -0.6691 -0.3608
   33MOL   H35712581   7.372   4.419   6.657  2.6555 -0.3032 -1.3277
   33MOL   H35812582   7.263   4.294   6.599 -0.7457  0.3829  0.3232
   33MOL   H35912583   7.449   4.257   6.839  0.8831  0.7982 -1.0047
   33MOL   H36012584   7.334   4.148   6.777  2.4513 -0.2921 -1.0084
   33MOL   H36112585   7.476   4.239   6.357 -1.8701 -0.3077  0.0915
   33MOL   H36212586   7.415   4.389   6.407 -0.4940 -0.6387  0.0858
   33MOL   C36312587   7.243   4.317   6.878 -0.0566 -0.4069  0.1898
   33MOL   C36412588   7.271   4.464   6.916  0.0857  0.0792  0.3403
   33MOL   C36512589   7.204   4.483   7.059  0.4169  0.1093  0.1214
   33MOL   C36612590   7.182   4.340   7.115  0.1404 -0.8760 -0.1490
   33MOL   C36712591   7.237   4.314   7.257  0.1152 -0.3818 -0.0758
   33MOL   C36812592   7.161   4.372   7.376 -0.4234  0.2306 -0.3507
   33MOL   C36912593   7.237   4.244   7.009  0.1138  0.0787  0.5397
   33MOL   H37012594   7.142   4.313   6.836 -1.0969  4.4659  1.8537
   33MOL   H37112595   7.379   4.472   6.924  0.4834 -3.2408 -0.7249
   33MOL   H37212596   7.225   4.541   6.854  2.1874 -0.1486 -1.5554
   33MOL   H37312597   7.266   4.552   7.116 -0.1840  1.4934 -0.8678
   33MOL   H37412598   7.111   4.539   7.047  0.4359 -0.0399 -0.7699
   33MOL   H37512599   7.074   4.329   7.123  0.0133  0.5313  0.2240
   33MOL   H37612600   7.258   4.207   7.264  1.7743  0.0601  2.1763
   33MOL   H37712601   7.334   4.363   7.265 -0.1314 -0.0440  0.9522
   33MOL   H37812602   7.183   4.477   7.393 -1.3309  0.3851 -0.0912
   33MOL   H37912603   7.190   4.324   7.469  0.6313 -0.8309 -1.2041
   33MOL   H38012604   7.338   4.224   7.044 -0.0008  0.4670  1.0887
   33MOL   H38112605   7.176   4.154   7.000 -0.0837  0.1466  1.2054
   33MOL   H38212606   7.054   4.352   7.379 -0.6616  1.2797 -1.7558
   34MOL     C112607   6.845   6.498   6.408  0.0126 -0.9897  0.7430
   34MOL     C212608   6.695   6.464   6.444  0.1158 -0.4318  0.7339
   34MOL     C312609   6.650   6.578   6.534  0.2160 -0.3155  0.7609
   34MOL     C412610   6.708   6.699   6.452 -0.8917 -0.1142 -0.0225
   34MOL     C512611   6.728   6.829   6.529 -0.1000  0.7678  0.1681
   34MOL     C612612   6.599   6.894   6.569  0.9452  0.3623 -0.1609
   34MOL     C712613   6.843   6.646   6.394  0.1756 -0.6547 -0.1051
   34MOL     H812614   6.917   6.480   6.488 -1.0669 -1.6059  1.5838
   34MOL     H912615   6.683   6.370   6.499 -1.5262 -1.5128 -1.3795
   34MOL    H1012616   6.632   6.464   6.355  0.8790  1.3371  0.1700
   34MOL    H1112617   6.542   6.584   6.543  0.1311  0.1957 -0.4454
   34MOL    H1212618   6.700   6.561   6.629  0.7350  0.3821  0.6185
   34MOL    H1312619   6.634   6.712   6.373 -1.8817 -1.1543  0.7142
   34MOL    H1412620   6.783   6.823   6.623 -1.0784  2.6014  0.8818
   34MOL    H1512621   6.786   6.890   6.460  0.2988 -1.2086 -1.2879
   34MOL    H1612622   6.525   6.904   6.490 -1.0342 -1.5729  1.4140
   34MOL    H1712623   6.534   6.833   6.631  0.7417 -0.7829 -1.4907
   34MOL    H1812624   6.836   6.670   6.288  0.6893  0.2154  0.0478
   34MOL    H1912625   6.938   6.686   6.428  0.0535 -1.2958  1.0182
   34MOL    H2012626   6.879   6.446   6.319 -0.4255 -0.1518  0.0719
   34MOL    C2112627   6.616   7.040   6.619  0.6701  1.1515  0.5605
   34MOL    C2212628   6.470   7.090   6.669  0.5859  0.0446 -0.4535
   34MOL    C2312629   6.476   7.111   6.820  0.3116 -0.1119  0.6121
   34MOL    C2412630   6.619   7.158   6.837 -0.0010 -0.1077  0.2665
   34MOL    C2512631   6.662   7.156   6.981 -0.1950  0.2151  0.3059
   34MOL    C2612632   6.578   7.252   7.074 -0.2449  0.7697 -0.3153
   34MOL    C2712633   6.708   7.076   6.739  0.3152  0.5382  1.3398
   34MOL    H2812634   6.645   7.089   6.526  0.4896 -1.5491 -0.9491
   34MOL    H2912635   6.451   7.184   6.617  1.5663  0.5751  0.1334
   34MOL    H3012636   6.377   7.041   6.640  0.8408 -0.9879  0.4632
   34MOL    H3112637   6.398   7.182   6.850  0.1257  0.0297 -0.1728
   34MOL    H3212638   6.463   7.023   6.883  0.1843 -1.0210 -0.6705
   34MOL    H3312639   6.625   7.262   6.806  3.8808 -0.4084 -0.2471
   34MOL    H3412640   6.765   7.190   6.975 -0.3946  0.8141  0.2411
   34MOL    H3512641   6.668   7.052   7.012 -0.2084  0.5174  1.3321
   34MOL    H3612642   6.475   7.217   7.067  0.5372 -1.5301 -0.5714
   34MOL    H3712643   6.568   7.352   7.031 -0.6919 -0.5670 -3.4224
   34MOL    H3812644   6.786   7.141   6.700 -0.2803 -0.0020 -0.7835
   34MOL    H3912645   6.756   6.983   6.770  1.3843  0.2429 -1.0669
   34MOL    C4012646   6.613   7.270   7.222 -0.1877  0.6693  0.0989
   34MOL    C4112647   6.624   7.141   7.298  0.2386 -0.2773 -0.0108
   34MOL    C4212648   6.720   7.179   7.421 -0.0087  0.5044  0.5910
   34MOL    C4312649   6.817   7.281   7.357  0.2809 -0.1461  0.1622
   34MOL    C4412650   6.885   7.372   7.460 -0.1191  0.5791  0.2450
   34MOL    C4512651   6.959   7.302   7.580  0.1422 -0.0539 -0.0573
   34MOL    C4612652   6.746   7.343   7.234 -0.6989  0.1626 -0.8455
   34MOL    H4712653   6.534   7.330   7.267  1.1469  1.2121  1.8123
   34MOL    H4812654   6.679   7.071   7.235  0.4948 -0.5671  0.5298
   34MOL    H4912655   6.529   7.099   7.329  0.0632  0.8303  0.9994
   34MOL    H5012656   6.657   7.233   7.492  0.5518 -0.9397  2.2033
   34MOL    H5112657   6.763   7.092   7.469  1.1615  0.8042  0.1085
   34MOL    H5212658   6.892   7.223   7.303 -1.7431 -3.1613  0.4877
   34MOL    H5312659   6.949   7.435   7.397  0.6176  1.2066  1.5827
   34MOL    H5412660   6.821   7.452   7.498  0.3832  0.6571  0.9418
   34MOL    H5512661   7.047   7.254   7.538  0.1673 -0.0936  0.0413
   34MOL    H5612662   6.887   7.236   7.628 -0.7245 -0.7200 -2.1823
   34MOL    H5712663   6.736   7.451   7.247 -0.4010  0.0124  0.8322
   34MOL    H5812664   6.805   7.335   7.143  0.4958  0.9977 -0.1643
   34MOL    C5912665   7.001   7.403   0.045 -0.0861  0.0485 -0.1387
   34MOL    C6012666   6.893   7.463   0.143  0.3433  0.1600 -0.1940
   34MOL    C6112667   6.953   7.479   0.286  0.1805 -0.1351 -0.2873
   34MOL    C6212668   7.072   7.388   0.280 -0.5102 -0.3895 -0.0626
   34MOL    C6312669   7.193   7.451   0.346  0.2662  0.1965 -0.2446
   34MOL    C6412670   7.251   7.569   0.265  0.8939  0.1120 -0.3074
   34MOL    C6512671   7.099   7.338   0.137 -0.0102  1.2154  0.1678
   34MOL    H6612672   7.051   7.484   7.638  0.7116 -0.7666 -0.6185
   34MOL    H6712673   6.867   7.559   0.100  0.9953  0.7076  0.6165
   34MOL    H6812674   6.811   7.392   0.133  0.6964 -0.2796  0.0368
   34MOL    H6912675   6.963   7.583   0.317 -0.9930  0.2763 -1.2613
   34MOL    H7012676   6.885   7.435   0.358  0.6378  2.4159  1.7900
   34MOL    H7112677   7.044   7.304   0.344  0.1626 -0.7517 -0.2368
   34MOL    H7212678   7.269   7.373   0.352 -2.3984 -2.5261 -0.2059
   34MOL    H7312679   7.176   7.479   0.450  2.5551  2.1417 -0.3505
   34MOL    H7412680   7.241   7.565   0.157  1.5792  0.5605 -0.3901
   34MOL    H7512681   7.201   0.011   0.302  0.0168 -1.1233  1.5359
   34MOL    H7612682   7.202   7.362   0.108  1.5436 -3.1893  1.5827
   34MOL    H7712683   7.090   7.229   0.144  0.6581  1.1699  0.3935
   34MOL    C7812684   7.402   7.587   0.284 -0.2297  0.9837 -0.4694
   34MOL    C7912685   7.491   7.462   0.238 -0.2057 -0.4626  0.4018
   34MOL    C8012686   7.614   7.520   0.173  0.7845 -0.0309  0.8649
   34MOL    C8112687   7.607   0.021   0.202  0.1698 -0.0227  0.0546
   34MOL    C8212688   0.040   0.105   0.099  0.7439 -0.1669  0.1938
   34MOL    C8312689   0.029   0.256   0.127 -0.0225 -0.1146  0.1379
   34MOL    C8412690   7.458   0.061   0.211 -0.3033 -0.0584 -0.1731
   34MOL    H8512691   7.429   7.617   0.385  0.3290  0.3294 -0.4211
   34MOL    H8612692   7.513   7.398   0.323 -0.6353 -1.1247  0.0173
   34MOL    H8712693   7.427   7.408   0.168  0.4495  1.3147 -1.6269
   34MOL    H8812694   0.062   7.499   0.220  1.1364  1.2553  0.7566
   34MOL    H8912695   7.612   7.499   0.066  0.3875  0.0162  0.8599
   34MOL    H9012696   0.006   0.035   0.300 -1.0630  3.1974  0.2241
   34MOL    H9112697   0.008   0.094   7.643 -1.5172  0.4109  0.8050
   34MOL    H9212698   0.142   0.067   0.103  0.3481 -1.2478  0.2522
   34MOL    H9312699   0.051   0.265   0.234 -2.1180  1.8411  0.4447
   34MOL    H9412700   7.575   0.291   0.109 -0.3237  1.6906  4.6364
   34MOL    H9512701   7.415   0.069   0.111 -1.4700 -1.3428  0.1963
   34MOL    H9612702   7.437   0.149   0.272 -0.2187 -0.3465  0.2766
   34MOL    C9712703   0.143   0.337   0.056 -0.3837  0.0802 -0.1498
   34MOL    C9812704   0.136   0.491   0.067 -0.7205 -0.6848 -0.4550
   34MOL    C9912705   0.221   0.549   7.601  0.4006  0.0445  0.1021
   34MOL   C10012706   0.229   0.432   7.492  0.1948 -0.2506 -0.1489
   34MOL   C10112707   0.192   0.465   7.349 -0.2799  0.4467 -0.9553
   34MOL   C10212708   0.290   0.556   7.268 -0.0262 -0.5972 -0.2663
   34MOL   C10312709   0.141   0.321   7.551 -0.0209 -0.5780 -0.0064
   34MOL   H10412710   0.237   0.296   0.093  0.1164  2.9396  1.8976
   34MOL   H10512711   0.035   0.532   0.062 -0.9414 -1.3629 -1.8691
   34MOL   H10612712   0.175   0.524   0.163 -1.9901 -0.5620  0.0297
   34MOL   H10712713   0.182   0.638   7.553 -0.1457  0.4229  1.2252
   34MOL   H10812714   0.319   0.576   7.642 -0.3529  4.1210 -0.5579
   34MOL   H10912715   0.332   0.396   7.489 -0.2399 -1.8548  2.1770
   34MOL   H11012716   0.180   0.367   7.303 -1.5388  0.2027 -0.1191
   34MOL   H11112717   0.096   0.515   7.357  0.1463  1.6467 -2.8438
   34MOL   H11212718   0.314   0.638   7.335  0.4474 -1.1274  0.2168
   34MOL   H11312719   0.384   0.505   7.248 -0.4775 -1.3460 -0.5233
   34MOL   H11412720   0.038   0.334   7.517  0.3786 -0.0144 -1.0358
   34MOL   H11512721   0.185   0.227   7.519  1.7495  0.2923 -0.2421
   34MOL   C11612722   0.234   0.606   7.130  0.0562  0.0851 -0.9358
   34MOL   C11712723   0.131   0.715   7.132 -0.2981  0.6796  0.4402
   34MOL   C11812724   0.138   0.793   6.996  0.1891  0.7924 -0.9123
   34MOL   C11912725   0.254   0.727   6.920 -0.0105 -0.0603 -0.1938
   34MOL   C12012726   0.337   0.834   6.848 -0.2267 -0.2857 -0.3507
   34MOL   C12112727   0.448   0.783   6.760  0.2076  0.0086 -0.7002
   34MOL   C12212728   0.331   0.648   7.025 -0.5689  0.1174 -0.7175
   34MOL   H12312729   0.186   0.515   7.095  0.2901 -0.8173  1.0218
   34MOL   H12412730   0.159   0.779   7.215  3.4744 -0.0339 -0.1872
   34MOL   H12512731   0.032   0.683   7.165  0.1466 -0.2792  0.8805
   34MOL   H12612732   0.156   0.896   7.027  2.0838  0.6138 -1.4106
   34MOL   H12712733   0.040   0.785   6.948  0.3398 -0.4868 -1.0376
   34MOL   H12812734   0.224   0.661   6.839  0.5518 -3.0129  1.9252
   34MOL   H12912735   0.380   0.897   6.927 -0.2704 -0.9931  0.2453
   34MOL   H13012736   0.273   0.900   6.790  1.3951  0.4173 -1.3571
   34MOL   H13112737   0.403   0.716   6.687 -0.2205 -0.3467 -0.1148
   34MOL   H13212738   0.519   0.733   6.826 -0.3222 -0.9199 -0.8189
   34MOL   H13312739   0.398   0.568   6.993  1.0867  0.5136  1.6718
   34MOL   H13412740   0.399   0.715   7.078 -0.0482 -0.5088 -0.5920
   34MOL   C13512741   0.515   0.896   6.685  0.5005  0.8983  0.1140
   34MOL   C13612742   0.635   0.846   6.597 -0.9262 -0.5614  0.2791
   34MOL   C13712743   0.641   0.947   6.485  0.3668  0.1798 -0.9281
   34MOL   C13812744   0.493   0.981   6.461 -0.1148 -0.2474 -0.2904
   34MOL   C13912745   0.474   1.115   6.382 -0.0237 -0.0856  0.0057
   34MOL   C14012746   0.342   1.132   6.316 -0.2742 -0.4675  0.2552
   34MOL   C14112747   0.418   0.975   6.592 -0.5339 -0.4430  0.1937
   34MOL   H14212748   0.554   0.967   6.757 -1.6279  1.8397  0.3796
   34MOL   H14312749   0.731   0.825   6.643  0.4311 -0.8302 -2.5986
   34MOL   H14412750   0.607   0.751   6.551 -1.1258 -0.8093  0.9077
   34MOL   H14512751   0.699   1.029   6.528  1.7831 -0.0553 -2.3473
   34MOL   H14612752   0.693   0.919   6.393  2.9882  0.0326  0.5379
   34MOL   H14712753   0.469   0.891   6.405 -0.6340 -0.0775 -0.3454
   34MOL   H14812754   0.550   1.117   6.304 -1.2305  2.6093 -1.1893
   34MOL   H14912755   0.497   1.192   6.456 -1.0725  0.9753 -0.7520
   34MOL   H15012756   0.360   1.150   6.209  0.9850  0.8858  0.6726
   34MOL   H15112757   0.290   1.037   6.314 -2.1090  0.5008  0.8402
   34MOL   H15212758   0.320   0.927   6.581 -2.4245  2.8900  1.6732
   34MOL   H15312759   0.409   1.071   6.642  0.6241 -0.3066  0.1459
   34MOL   C15412760   0.249   1.244   6.359 -0.1376 -0.0924 -0.2263
   34MOL   C15512761   0.209   1.254   6.506 -0.3670 -0.1497  0.0638
   34MOL   C15612762   0.062   1.300   6.509  0.3017 -0.2376  0.2703
   34MOL   C15712763   0.014   1.322   6.369  0.5001  0.2108 -0.6923
   34MOL   C15812764   7.509   1.313   6.356 -0.5269  0.8853  0.1477
   34MOL   C15912765   7.455   1.369   6.227 -0.0027  0.1548  0.0874
   34MOL   C16012766   0.106   1.238   6.291 -0.8178  0.2962  0.1690
   34MOL   H16112767   0.303   1.337   6.343  0.8258 -0.5076  0.5576
   34MOL   H16212768   0.212   1.153   6.545 -0.1327  0.1004  0.6987
   34MOL   H16312769   0.266   1.332   6.557 -1.5885  0.5933  0.3086
   34MOL   H16412770   0.002   1.219   6.550 -0.9862 -0.3547 -1.8081
   34MOL   H16512771   0.042   1.393   6.563  2.0945  0.4239 -0.1639
   34MOL   H16612772   0.039   1.425   6.343  1.0595 -0.2119 -1.8868
   34MOL   H16712773   7.468   1.385   6.427  0.2114  0.0119  1.4663
   34MOL   H16812774   7.471   1.214   6.380  0.6496  0.5581  0.7032
   34MOL   H16912775   7.498   1.469   6.214 -1.2706  0.5928 -0.9008
   34MOL   H17012776   7.477   1.306   6.141 -0.4972 -1.3631  1.0659
   34MOL   H17112777   0.112   1.273   6.188 -0.6653  0.7142  0.3175
   34MOL   H17212778   0.072   1.135   6.281  2.6023 -0.7320 -1.7569
   34MOL   C17312779   7.301   1.392   6.216  0.2948  0.4453  0.0827
   34MOL   C17412780   7.258   1.475   6.089 -0.1789 -0.3401 -0.0120
   34MOL   C17512781   7.141   1.396   6.026 -0.3388  0.4954 -0.6362
   34MOL   C17612782   7.093   1.295   6.125  0.6719  0.3993 -0.1405
   34MOL   C17712783   7.007   1.173   6.058  0.2588 -0.0587 -0.7161
   34MOL   C17812784   6.878   1.214   5.994  0.8821 -0.1160  0.1216
   34MOL   C17912785   7.219   1.262   6.197 -0.4115  0.4678  0.4073
   34MOL   H18012786   7.260   1.427   6.311  0.8766 -0.4418  0.6690
   34MOL   H18112787   7.344   1.489   6.024 -0.6480 -0.2920 -0.6378
   34MOL   H18212788   7.209   1.567   6.120 -0.2860 -0.0468 -1.0192
   34MOL   H18312789   7.065   1.457   5.976 -0.1618 -0.3544 -1.9591
   34MOL   H18412790   7.189   1.341   5.946 -1.1642 -0.8039 -0.2407
   34MOL   H18512791   7.025   1.348   6.191 -0.2185 -0.5211 -0.3004
   34MOL   H18612792   6.991   1.089   6.126  0.9720 -1.0260 -1.7338
   34MOL   H18712793   7.078   1.131   5.987  2.1228  0.6573  0.6809
   34MOL   H18812794   6.890   1.304   5.933  0.7386 -1.2456 -1.6283
   34MOL   H18912795   6.809   1.246   6.072  1.3498  0.4453  0.3045
   34MOL   H19012796   7.274   1.186   6.142  0.1845  0.7515  0.6024
   34MOL   H19112797   7.198   1.216   6.294  1.0782 -0.9504  0.0618
   34MOL   C19212798   6.819   1.101   5.905  0.1821  0.8725 -0.0385
   34MOL   C19312799   6.882   1.091   5.765 -0.5461  0.8841 -0.3398
   34MOL   C19412800   6.776   1.019   5.679 -0.0277 -0.0693  0.1038
   34MOL   C19512801   6.641   1.053   5.736  0.0206 -0.5777  0.1212
   34MOL   C19612802   6.565   0.915   5.730 -0.2530 -0.3654 -0.2183
   34MOL   C19712803   6.540   0.853   5.587 -0.3081 -0.1499  0.3243
   34MOL   C19812804   6.668   1.114   5.875  0.1363 -0.1210  0.0561
   34MOL   H19912805   6.836   1.005   5.953  1.7948  1.3706  0.3977
   34MOL   H20012806   6.889   1.194   5.731 -2.0781  0.9285 -0.5951
   34MOL   H20112807   6.979   1.043   5.756 -0.9914  0.0090 -0.5810
   34MOL   H20212808   6.800   0.913   5.670 -1.3068 -0.3240 -0.5103
   34MOL   H20312809   6.781   1.067   5.581  0.5195  2.3569  1.2920
   34MOL   H20412810   6.600   1.133   5.676 -0.7187 -1.0081  0.0546
   34MOL   H20512811   6.464   0.919   5.772 -0.5209  1.3447 -0.9798
   34MOL   H20612812   6.612   0.840   5.794  0.6241 -0.5925 -1.1197
   34MOL   H20712813   6.634   0.838   5.534 -0.6467 -2.0806  0.2199
   34MOL   H20812814   6.479   0.920   5.526  0.2693  1.2029  1.2212
   34MOL   H20912815   6.605   1.078   5.956 -2.2200  0.8665 -1.2773
   34MOL   H21012816   6.646   1.221   5.876  0.3721 -0.0733  0.2635
   34MOL   C21112817   6.463   0.722   5.602 -0.9533  0.2046  0.2256
   34MOL   C21212818   6.539   0.604   5.663 -0.6080  0.2723  0.2575
   34MOL   C21312819   6.482   0.476   5.599  0.4558  0.2256 -0.3423
   34MOL   C21412820   6.404   0.520   5.475 -0.3080 -0.1103  0.8925
   34MOL   C21512821   6.416   0.445   5.344 -0.3379 -0.0186 -0.2580
   34MOL   C21612822   6.331   0.506   5.229 -0.2815 -0.1147 -0.4668
   34MOL   C21712823   6.431   0.673   5.462  0.5173  0.4722  0.0053
   34MOL   H21812824   6.373   0.741   5.661 -0.8136  0.0323  0.4952
   34MOL   H21912825   6.644   0.623   5.644 -0.9085 -0.4615 -2.1979
   34MOL   H22012826   6.532   0.610   5.772  1.2131  0.9450  0.3519
   34MOL   H22112827   6.573   0.419   5.578 -0.1629 -0.1201 -2.1500
   34MOL   H22212828   6.419   0.420   5.667  1.6690 -0.6338  0.0823
   34MOL   H22312829   6.298   0.508   5.497 -1.2977 -0.3655 -3.5587
   34MOL   H22412830   6.404   0.339   5.366  0.9361 -0.3668 -1.1827
   34MOL   H22512831   6.521   0.462   5.320 -0.3198 -0.5110 -0.5199
   34MOL   H22612832   6.226   0.477   5.244 -0.0772 -0.3218  0.6088
   34MOL   H22712833   6.328   0.615   5.228 -0.1189 -0.0813  1.6808
   34MOL   H22812834   6.350   0.726   5.411  0.5593  0.6107  0.0812
   34MOL   H22912835   6.521   0.695   5.403  0.9471  2.4120  1.3347
   34MOL   C23012836   6.388   0.453   5.099 -1.1603  0.2641 -0.0533
   34MOL   C23112837   6.480   0.547   5.017  0.3548 -0.3449 -0.1023
   34MOL   C23212838   6.464   0.501   4.873  0.1531  0.0660  0.1813
   34MOL   C23312839   6.323   0.443   4.858  0.0291  0.2884  0.2905
   34MOL   C23412840   6.326   0.321   4.771 -0.1075 -0.2954 -0.2985
   34MOL   C23512841   6.355   0.350   4.621 -0.6345 -0.2211  0.0020
   34MOL   C23612842   6.277   0.418   4.999  0.4507  0.4812  0.2022
   34MOL   H23712843   6.440   0.358   5.111 -0.3100  0.5735 -1.1588
   34MOL   H23812844   6.470   0.655   5.029 -0.4553 -0.5670  1.3334
   34MOL   H23912845   6.576   0.554   5.068  0.3922 -2.2403  0.1012
   34MOL   H24012846   6.543   0.432   4.845 -0.3701 -0.5591  0.2307
   34MOL   H24112847   6.459   0.592   4.813  1.3984  0.0994  0.1161
   34MOL   H24212848   6.250   0.509   4.810 -1.1464 -1.0601  0.1729
   34MOL   H24312849   6.237   0.258   4.776 -0.2660 -0.1681 -1.3757
   34MOL   H24412850   6.388   0.241   4.811 -0.3808  0.4329  1.6074
   34MOL   H24512851   6.447   0.406   4.608  0.0145 -0.8147  1.9155
   34MOL   H24612852   6.367   0.252   4.575 -2.7299  0.6150 -2.5378
   34MOL   H24712853   6.252   0.313   5.011  0.9415  0.3096 -0.2512
   34MOL   H24812854   6.185   0.475   5.012 -0.4447  0.2987 -4.2638
   34MOL   C24912855   6.235   0.426   4.555 -0.0539 -0.0552 -0.5373
   34MOL   C25012856   6.274   0.475   4.414 -0.4861  0.5014 -0.0972
   34MOL   C25112857   6.138   0.497   4.335 -0.1440 -0.2392  0.3247
   34MOL   C25212858   6.048   0.391   4.393 -0.8702  0.4058  0.7880
   34MOL   C25312859   5.894   0.430   4.400  0.2653 -0.8732  0.3048
   34MOL   C25412860   5.800   0.314   4.417 -0.1979 -0.0396  0.1907
   34MOL   C25512861   6.103   0.344   4.533 -1.1726 -0.3762 -0.4466
   34MOL   H25612862   6.202   0.516   4.608 -0.9675 -0.5262 -0.2857
   34MOL   H25712863   6.325   0.571   4.399 -0.6249  0.7516  0.9743
   34MOL   H25812864   6.328   0.398   4.360 -1.5816  0.5282 -1.2526
   34MOL   H25912865   6.149   0.477   4.229  2.0285  1.8774  0.1072
   34MOL   H26012866   6.091   0.594   4.348 -1.4935 -1.1840  2.9453
   34MOL   H26112867   6.054   0.306   4.326  0.4387 -0.6755  2.2455
   34MOL   H26212868   5.886   0.479   4.303 -1.1409 -2.9217 -0.6542
   34MOL   H26312869   5.881   0.509   4.473 -1.3860  0.2154 -1.1319
   34MOL   H26412870   5.844   0.254   4.497  0.5756  3.1007  2.2156
   34MOL   H26512871   5.804   0.255   4.325  4.1111 -1.6395  1.2738
   34MOL   H26612872   6.125   0.237   4.530  0.5814 -0.0126 -2.0145
   34MOL   H26712873   6.035   0.372   4.613  0.9226 -1.2142  1.7252
   34MOL   C26812874   5.653   0.357   4.430 -0.0938  1.0436  0.2505
   34MOL   C26912875   5.610   0.394   4.576  0.5174 -0.8166  0.3523
   34MOL   C27012876   5.526   0.270   4.613  0.0776  0.1083  0.3421
   34MOL   C27112877   5.442   0.247   4.487  0.6389  0.7102  0.0762
   34MOL   C27212878   5.361   0.113   4.480  0.2623 -0.0571  0.0554
   34MOL   C27312879   5.247   0.091   4.580  0.2079 -0.5322  0.2243
   34MOL   C27412880   5.556   0.245   4.385 -0.2596 -0.6819  1.1590
   34MOL   H27512881   5.630   0.446   4.371 -1.5453  0.3368 -0.2532
   34MOL   H27612882   5.695   0.393   4.644  1.2440 -0.7867 -0.5333
   34MOL   H27712883   5.556   0.488   4.580  2.1095  0.0930  0.7035
   34MOL   H27812884   5.593   0.185   4.630  1.3285  0.9327 -0.3576
   34MOL   H27912885   5.464   0.282   4.702  1.1826  1.2082  0.9874
   34MOL   H28012886   5.383   0.335   4.462  0.1202  0.8042  1.5860
   34MOL   H28112887   5.444   0.043   4.480  0.2410 -0.0855 -0.3201
   34MOL   H28212888   5.315   0.096   4.382 -1.2473 -3.5260  1.2506
   34MOL   H28312889   5.274   0.122   4.681 -0.4846 -0.8026  0.5006
   34MOL   H28412890   5.160   0.147   4.544  0.1431 -2.1183 -2.1883
   34MOL   H28512891   5.613   0.152   4.389  1.8857  0.6237  1.4555
   34MOL   H28612892   5.527   0.260   4.281  0.5411  1.3820  1.2083
   34MOL   C28712893   5.226   7.590   4.597  0.0123 -0.6191  0.1533
   34MOL   C28812894   5.107   7.551   4.683 -0.5958 -1.3263  1.0624
   34MOL   C28912895   5.074   7.407   4.644 -0.6498 -0.3335 -0.5649
   34MOL   C29012896   5.164   7.370   4.521 -0.3710 -0.5918  0.3438
   34MOL   C29112897   5.097   7.286   4.414  0.1832 -0.0473  0.3155
   34MOL   C29212898   5.073   7.143   4.473  0.0741 -0.3758  0.8283
   34MOL   C29312899   5.198   7.511   4.470 -0.1901  0.9141 -0.5709
   34MOL   H29412900   5.317   7.549   4.641 -0.2919 -1.6313 -0.1623
   34MOL   H29512901   5.132   7.560   4.789  0.6803  2.2748  0.5224
   34MOL   H29612902   5.016   7.610   4.677 -1.0629 -2.1347  0.1027
   34MOL   H29712903   4.969   7.401   4.617 -0.9357 -0.0054  0.4446
   34MOL   H29812904   5.080   7.335   4.726  1.0744  0.6348  0.1845
   34MOL   H29912905   5.264   7.334   4.546 -1.1232 -2.6042  0.5419
   34MOL   H30012906   5.160   7.281   4.325  2.0463 -1.3916  1.6562
   34MOL   H30112907   4.999   7.332   4.404 -0.1192 -0.3150  1.8985
   34MOL   H30212908   5.016   7.136   4.565 -0.7323  0.6528  0.4137
   34MOL   H30312909   5.164   7.085   4.489  0.8143  0.3805 -0.5742
   34MOL   H30412910   5.103   7.549   4.431 -1.9049 -2.6290 -0.0775
   34MOL   H30512911   5.280   7.503   4.400  1.5069  1.9834  1.2665
   34MOL   C30612912   4.980   7.063   4.378 -0.3798 -0.8579  0.1821
   34MOL   C30712913   4.971   6.920   4.425  0.3440  0.1639 -0.4283
   34MOL   C30812914   4.851   6.931   4.526 -0.5276 -0.5427  0.6035
   34MOL   C30912915   4.751   7.023   4.458 -0.1524  0.2156 -0.1684
   34MOL   C31012916   4.658   7.098   4.557  0.2256  0.0308  0.3390
   34MOL   C31112917   4.726   7.185   4.667  0.0300 -0.1990  0.4125
   34MOL   C31212918   4.831   7.109   4.360 -0.3838 -0.1926 -0.4477
   34MOL   H31312919   5.024   7.050   4.279  0.7402  0.5841  0.4657
   34MOL   H31412920   4.933   6.853   4.347  1.2612 -1.1268  0.2211
   34MOL   H31512921   5.070   6.890   4.459 -0.0018 -1.0339 -0.4454
   34MOL   H31612922   4.802   6.835   4.544  0.6151 -1.0092  1.2605
   34MOL   H31712923   4.900   6.959   4.619  1.5617 -0.6486 -0.4313
   34MOL   H31812924   4.691   6.956   4.396  0.2832 -0.5781  0.2628
   34MOL   H31912925   4.574   7.143   4.505 -0.8579 -1.4998  0.7056
   34MOL   H32012926   4.604   7.017   4.608  1.6021 -0.8481  0.4401
   34MOL   H32112927   4.793   7.251   4.611  0.5518 -1.6342 -0.6785
   34MOL   H32212928   4.783   7.117   4.730  1.1593 -0.3736 -0.7709
   34MOL   H32312929   4.824   7.216   4.377 -1.2859  0.0349 -2.1489
   34MOL   H32412930   4.807   7.087   4.256  2.0024  0.8819 -1.2712
   34MOL   C32512931   4.628   7.263   4.754  0.4539 -0.1827  0.4592
   34MOL   C32612932   4.678   7.361   4.861 -0.3053  0.3060 -0.2235
   34MOL   C32712933   4.550   7.449   4.898  1.0125  0.2231 -0.7119
   34MOL   C32812934   4.452   7.430   4.783 -0.0727  0.5941  0.1498
   34MOL   C32912935   4.313   7.368   4.830  0.2832 -0.0704  0.2307
   34MOL   C33012936   4.228   7.473   4.901  0.0612  0.1967  0.5118
   34MOL   C33112937   4.526   7.354   4.673 -1.0710 -0.1836  0.0876
   34MOL   H33212938   4.568   7.187   4.804 -0.9645 -0.9838 -2.3438
   34MOL   H33312939   4.754   7.415   4.805  2.0929 -1.8102  0.9113
   34MOL   H33412940   4.729   7.315   4.946  1.2380  0.4201 -1.0839
   34MOL   H33512941   4.510   7.410   4.992 -0.2739  2.1593 -0.4447
   34MOL   H33612942   4.571   7.556   4.901  0.8307  0.2578 -0.7005
   34MOL   H33712943   4.427   7.523   4.733  0.3980  0.8977  0.4860
   34MOL   H33812944   4.256   7.325   4.748 -1.6286  0.2576  1.3393
   34MOL   H33912945   4.323   7.290   4.906  1.7114 -2.1568 -2.0327
   34MOL   H34012946   4.284   7.518   4.984  1.4963 -0.2743 -0.1933
   34MOL   H34112947   4.195   7.546   4.828  1.3721  0.7051  0.4049
   34MOL   H34212948   4.576   7.425   4.607  1.4883 -2.8267 -0.9591
   34MOL   H34312949   4.460   7.289   4.615 -0.3179  0.9563 -2.1178
   34MOL   C34412950   4.097   7.418   4.956  0.5298 -0.0416  1.0148
   34MOL   C34512951   3.999   7.360   4.848 -0.5304  0.0335 -0.1651
   34MOL   C34612952   3.862   7.347   4.905  0.2816  0.4464 -0.8989
   34MOL   C34712953   3.858   7.452   5.024 -0.0945  0.3412 -0.0701
   34MOL   C34812954   3.809   7.399   5.163 -0.2455 -0.4908 -0.4810
   34MOL   C34912955   3.663   7.353   5.157  0.3491  0.2821  0.0674
   34MOL   C35012956   4.002   7.515   5.037 -0.0275 -0.5061 -0.2882
   34MOL   H35112957   4.132   7.337   5.021  2.2734  0.8623  1.2195
   34MOL   H35212958   4.040   7.274   4.795  0.0050  1.0024 -1.3439
   34MOL   H35312959   3.987   7.436   4.771  0.6785  0.3231 -0.0691
   34MOL   H35412960   3.790   7.366   4.825 -1.5844 -1.8137  0.1733
   34MOL   H35512961   3.837   7.247   4.940 -1.8487  0.5855 -1.9716
   34MOL   H35612962   3.783   7.526   4.996 -1.5318 -0.8124  0.6183
   34MOL   H35712963   3.881   7.329   5.207  1.8829  1.7625 -0.2393
   34MOL   H35812964   3.816   7.489   5.224  0.5394 -0.2051 -0.9819
   34MOL   H35912965   3.646   7.267   5.091 -2.3848 -0.3046  1.4465
   34MOL   H36012966   3.602   7.418   5.096 -1.7718 -2.2969 -0.6599
   34MOL   H36112967   4.011   7.612   4.988  0.1153 -0.6301 -0.5096
   34MOL   H36212968   4.040   7.509   5.139 -0.8643  0.2462  0.0709
   34MOL   C36312969   3.607   7.303   5.295  0.0461  0.0823  0.3500
   34MOL   C36412970   3.476   7.227   5.278  0.1447 -0.5185 -0.2069
   34MOL   C36512971   3.401   7.258   5.408 -0.1348  0.1936  0.0834
   34MOL   C36612972   3.469   7.369   5.487 -0.7714  0.4186  0.0560
   34MOL   C36712973   3.365   7.470   5.538  0.3121 -0.0314  0.3568
   34MOL   C36812974   3.268   7.427   5.641  0.2475 -0.1733 -0.3513
   34MOL   C36912975   3.569   7.421   5.389  0.3680  0.6501  0.5386
   34MOL   H37012976   3.682   7.243   5.347  0.2321  0.0632  0.0566
   34MOL   H37112977   3.425   7.268   5.191  2.5143  0.8717 -0.9885
   34MOL   H37212978   3.482   7.118   5.277  2.1680 -0.4434  1.0762
   34MOL   H37312979   3.300   7.284   5.378  0.1812  3.6982  1.8126
   34MOL   H37412980   3.401   7.171   5.474 -0.0311 -0.1975 -0.4284
   34MOL   H37512981   3.531   7.327   5.566  0.6655  2.4019  0.0132
   34MOL   H37612982   3.415   7.550   5.592 -1.7102 -0.0158  2.2923
   34MOL   H37712983   3.312   7.515   5.454  1.2191  0.0413 -0.1858
   34MOL   H37812984   3.308   7.352   5.710 -1.5181 -0.6795  0.1426
   34MOL   H37912985   3.176   7.395   5.591  0.1612  0.0796 -0.3513
   34MOL   H38012986   3.540   7.504   5.326  0.8220  1.8001  1.8149
   34MOL   H38112987   3.661   7.456   5.438  0.3349 -0.0049  1.0829
   34MOL   H38212988   3.253   7.521   5.693  0.7360 -0.5462  0.4748
   35MOL     C112989   6.030   4.858   3.600  0.6486 -1.2068  0.8855
   35MOL     C212990   6.123   4.865   3.477 -0.3546  0.1798 -0.5109
   35MOL     C312991   6.043   4.811   3.361  0.5438 -0.5369  0.5353
   35MOL     C412992   5.912   4.750   3.415  0.5061  0.2012 -0.2301
   35MOL     C512993   5.882   4.602   3.372  0.1404  0.6360  0.3558
   35MOL     C612994   5.841   4.593   3.228 -0.0198 -0.3286 -0.0036
   35MOL     C712995   5.919   4.757   3.571 -0.1697 -0.4041 -0.7317
   35MOL     H812996   6.077   4.836   3.696  0.3506 -1.9568  0.8569
   35MOL     H912997   6.223   4.825   3.492 -0.6750 -0.1570  0.7590
   35MOL    H1012998   6.138   4.972   3.457 -3.3066  1.1393  2.0388
   35MOL    H1112999   6.031   4.887   3.283  0.2177 -2.2228 -1.0874
   35MOL    H1213000   6.099   4.735   3.307 -0.0499  0.4400 -1.5161
   35MOL    H1313001   5.823   4.807   3.385 -0.1316 -0.2577  0.7518
   35MOL    H1413002   5.972   4.545   3.393 -0.4066 -0.4564 -0.2654
   35MOL    H1513003   5.795   4.570   3.429 -1.1306 -0.0037 -1.9007
   35MOL    H1613004   5.766   4.666   3.199  1.0043  0.3493 -0.9773
   35MOL    H1713005   5.936   4.627   3.187  2.2608 -2.2819  3.3874
   35MOL    H1813006   5.821   4.791   3.605 -0.4931  0.5367 -2.5570
   35MOL    H1913007   5.945   4.664   3.621 -0.9407 -0.1722  0.1083
   35MOL    H2013008   5.980   4.954   3.614 -0.1607 -1.8083  2.2489
   35MOL    C2113009   5.827   4.462   3.151 -0.2415 -0.4160  0.0405
   35MOL    C2213010   5.817   4.499   3.001 -0.1418  0.2474 -0.0929
   35MOL    C2313011   5.849   4.373   2.931 -0.2964  0.4078  0.3229
   35MOL    C2413012   5.914   4.278   3.033  0.1703  0.0935  1.2110
   35MOL    C2513013   6.040   4.197   2.976 -0.0465 -0.0367 -0.7767
   35MOL    C2613014   6.070   4.067   3.052 -0.3630 -0.0691  0.0697
   35MOL    C2713015   5.936   4.360   3.162 -0.1572 -0.5777 -0.2684
   35MOL    H2813016   5.734   4.417   3.186 -0.8810  0.5808 -0.3714
   35MOL    H2913017   5.713   4.522   2.976 -0.2877 -0.3765 -0.0762
   35MOL    H3013018   5.884   4.578   2.967 -1.9939  1.5689 -0.7751
   35MOL    H3113019   5.757   4.334   2.888 -1.0354  0.2917  1.9750
   35MOL    H3213020   5.924   4.392   2.854 -2.8840 -1.1579 -2.6671
   35MOL    H3313021   5.836   4.203   3.046 -1.0028  0.1553 -4.0495
   35MOL    H3413022   6.120   4.272   2.980  0.2277 -0.3653 -0.0112
   35MOL    H3513023   6.007   4.176   2.874 -0.9052  0.8983 -0.7051
   35MOL    H3613024   5.998   3.986   3.040  1.8622 -2.4334  2.1158
   35MOL    H3713025   6.053   4.091   3.157 -0.5746 -2.2291  0.5631
   35MOL    H3813026   5.936   4.306   3.257  0.2151  0.8595  0.5794
   35MOL    H3913027   6.036   4.402   3.162  0.1060 -1.1165  2.2380
   35MOL    C4013028   6.208   4.019   3.021  0.6635 -0.8114 -0.5912
   35MOL    C4113029   6.244   3.894   3.102 -0.4793  0.6520  0.2819
   35MOL    C4213030   6.344   3.815   3.016  0.0814  0.2488  0.3699
   35MOL    C4313031   6.316   3.841   2.869 -0.3230 -0.0177 -0.0463
   35MOL    C4413032   6.454   3.841   2.787 -0.0719  0.3223 -0.1384
   35MOL    C4513033   6.520   3.702   2.765 -0.3232 -0.3184 -0.3713
   35MOL    C4613034   6.238   3.975   2.877  0.0512  0.2374  0.0658
   35MOL    H4713035   6.278   4.096   3.053 -1.0480  1.1157 -1.3113
   35MOL    H4813036   6.150   3.840   3.111  0.0014 -0.3590 -0.7899
   35MOL    H4913037   6.286   3.910   3.201  0.5688  1.3030 -0.2575
   35MOL    H5013038   6.442   3.844   3.054  0.2245 -1.3383  1.2542
   35MOL    H5113039   6.343   3.711   3.049 -1.1228 -0.0725 -0.6282
   35MOL    H5213040   6.244   3.773   2.825 -0.4491 -0.2382  0.4939
   35MOL    H5313041   6.432   3.884   2.690 -0.7387  0.7715  0.2056
   35MOL    H5413042   6.522   3.911   2.835  0.5689  0.0015 -0.5675
   35MOL    H5513043   6.447   3.637   2.716  1.0741 -2.1649 -0.0399
   35MOL    H5613044   6.537   3.653   2.860 -0.9556  0.4372  0.1341
   35MOL    H5713045   6.304   4.051   2.836 -0.2467 -0.0675 -1.0150
   35MOL    H5813046   6.148   3.979   2.814 -0.8921 -0.8957  1.3084
   35MOL    C5913047   6.657   3.708   2.698  0.2356  0.2393  0.2695
   35MOL    C6013048   6.725   3.576   2.686 -0.2615 -0.0559 -0.3565
   35MOL    C6113049   6.833   3.598   2.574 -0.2104  0.3861  0.6662
   35MOL    C6213050   6.769   3.692   2.472 -0.2960  0.2187 -0.3392
   35MOL    C6313051   6.874   3.792   2.406  0.1448  0.2819 -0.2917
   35MOL    C6413052   6.985   3.724   2.323  0.3526  0.3424 -0.0837
   35MOL    C6513053   6.665   3.767   2.555 -0.1251 -0.3734 -0.1169
   35MOL    H6613054   6.715   3.768   2.768 -1.1877  1.7362  0.2086
   35MOL    H6713055   6.766   3.545   2.782  0.4673 -0.5909 -0.8326
   35MOL    H6813056   6.651   3.502   2.657 -0.8500 -0.0090  1.0179
   35MOL    H6913057   6.920   3.645   2.622  1.2170  0.3941 -1.8636
   35MOL    H7013058   6.878   3.512   2.525 -3.2400 -1.0966  0.3989
   35MOL    H7113059   6.721   3.633   2.394  0.7479 -2.0929  0.7201
   35MOL    H7213060   6.926   3.834   2.492  1.1160 -3.5507  1.1378
   35MOL    H7313061   6.812   3.857   2.344 -1.8105 -0.3162  0.9711
   35MOL    H7413062   7.021   3.629   2.362 -1.6062 -1.5198 -2.6406
   35MOL    H7513063   6.939   3.704   2.226  0.6946 -1.6085  0.1508
   35MOL    H7613064   6.688   3.873   2.555  2.0497 -0.8273  0.0036
   35MOL    H7713065   6.578   3.753   2.491  2.2004  0.8732 -3.6840
   35MOL    C7813066   7.114   3.802   2.296 -0.3970  0.6692  0.2411
   35MOL    C7913067   7.200   3.817   2.423  0.7860 -0.3657  0.5713
   35MOL    C8013068   7.345   3.816   2.360  0.0392 -0.2486 -0.4424
   35MOL    C8113069   7.334   3.798   2.211 -0.4069  0.7180 -0.2221
   35MOL    C8213070   7.457   3.730   2.141  0.7695  0.5570  0.2131
   35MOL    C8313071   7.446   3.729   1.986 -0.2049 -0.3216 -0.1777
   35MOL    C8413072   7.204   3.727   2.199  0.0323  0.2083  0.1112
   35MOL    H8513073   7.101   3.903   2.257 -1.5096  0.3761 -0.1580
   35MOL    H8613074   7.180   3.909   2.478 -0.3736 -0.6423  0.6261
   35MOL    H8713075   7.178   3.731   2.485 -2.7729  0.4369  0.5766
   35MOL    H8813076   7.395   3.903   2.401  0.2229 -0.7872  0.4834
   35MOL    H8913077   7.397   3.732   2.406 -0.5200 -0.9251 -1.0349
   35MOL    H9013078   7.321   3.897   2.167 -1.0771  0.1854 -1.2386
   35MOL    H9113079   7.458   3.625   2.173  0.0548  0.4776 -0.0178
   35MOL    H9213080   7.545   3.777   2.185 -0.0621  1.4635  0.9502
   35MOL    H9313081   7.447   3.831   1.947  0.9318 -0.3451 -0.2335
   35MOL    H9413082   7.350   3.681   1.969 -1.1855  1.4275  0.2300
   35MOL    H9513083   7.222   3.623   2.226  0.2957 -0.2239 -1.6781
   35MOL    H9613084   7.187   3.736   2.092  2.6888  2.3917 -0.1704
   35MOL    C9713085   7.572   3.651   1.929  0.0404 -0.1662  0.1375
   35MOL    C9813086   7.562   3.644   1.781 -0.0755 -0.1037  0.3987
   35MOL    C9913087   7.582   3.500   1.736 -0.1271  0.2007 -0.0328
   35MOL   C10013088   7.635   3.426   1.861  0.7994  0.5201  0.1773
   35MOL   C10113089   7.612   3.270   1.859  0.3562 -0.0003  0.3571
   35MOL   C10213090   7.647   3.205   1.997 -0.0009 -0.1386  0.3653
   35MOL   C10313091   7.579   3.505   1.976 -0.0105 -0.4182 -0.6988
   35MOL   H10413092   0.018   3.701   1.957 -0.2942  1.2551 -1.2293
   35MOL   H10513093   7.467   3.686   1.748  0.3632  2.0192  1.7511
   35MOL   H10613094   7.637   3.709   1.737  0.0848  0.9426  2.1536
   35MOL   H10713095   7.483   3.463   1.711 -0.2923  0.9854 -0.5534
   35MOL   H10813096   0.003   3.503   1.651 -1.4288 -0.4499 -1.1318
   35MOL   H10913097   0.094   3.451   1.856  0.7705  0.6886  0.3956
   35MOL   H11013098   7.506   3.256   1.835  0.0749 -1.1419  2.2018
   35MOL   H11113099   0.019   3.228   1.774  2.4228 -2.1219  2.6498
   35MOL   H11213100   0.100   3.228   2.033  0.2205 -0.4139 -0.0798
   35MOL   H11313101   7.582   3.256   2.068 -0.0304  0.6117 -0.2062
   35MOL   H11413102   7.479   3.461   1.983  0.2463 -0.6389  2.6126
   35MOL   H11513103   7.624   3.492   2.074  0.0334  0.2057 -0.6352
   35MOL   C11613104   7.619   3.052   1.997 -0.1405  0.1850 -0.2798
   35MOL   C11713105   7.587   2.992   2.132  0.3967 -0.2634 -0.0302
   35MOL   C11813106   7.484   2.887   2.113  0.0946  0.1151 -0.4462
   35MOL   C11913107   7.458   2.871   1.961 -0.4922 -0.6047  0.4667
   35MOL   C12013108   7.306   2.839   1.938 -0.0997 -0.5266 -0.7038
   35MOL   C12113109   7.283   2.810   1.793  0.0285  0.5359  0.2446
   35MOL   C12213110   7.497   3.009   1.910  0.1055  0.6453 -0.8549
   35MOL   H12313111   0.059   3.000   1.957  0.6442  0.7743  0.6437
   35MOL   H12413112   7.552   3.065   2.205 -0.7048 -1.5641  0.7841
   35MOL   H12513113   0.031   2.954   2.177 -0.2554 -0.4537  1.1576
   35MOL   H12613114   7.397   2.908   2.175  2.1094 -0.5828  2.7301
   35MOL   H12713115   7.522   2.792   2.149  0.2352  0.8716  1.4467
   35MOL   H12813116   7.531   2.808   1.910 -0.0046  1.3346 -1.3432
   35MOL   H12913117   7.244   2.924   1.968 -1.0664 -1.7359  0.7463
   35MOL   H13013118   7.270   2.758   2.000 -0.9268  0.1608 -0.2720
   35MOL   H13113119   7.330   2.715   1.767 -2.2078 -0.1816 -1.3332
   35MOL   H13213120   7.330   2.889   1.734  4.5677 -2.1714  0.0381
   35MOL   H13313121   7.510   2.999   1.802  0.3443  0.7174 -0.8341
   35MOL   H13413122   7.420   3.083   1.931 -0.0452 -0.2090  1.7518
   35MOL   C13513123   7.128   2.816   1.765 -0.0959  0.1154  0.2520
   35MOL   C13613124   7.091   2.785   1.619  0.4266 -0.1236  0.4990
   35MOL   C13713125   6.938   2.751   1.635 -0.4696  0.2366 -0.2780
   35MOL   C13813126   6.930   2.654   1.756  0.1522 -0.3806 -0.4106
   35MOL   C13913127   6.791   2.633   1.816  0.6281 -0.6174  0.2414
   35MOL   C14013128   6.676   2.586   1.722 -0.1559 -0.8511 -0.0910
   35MOL   C14113129   7.031   2.725   1.851  0.0368 -0.2125  0.7269
   35MOL   H14213130   7.092   2.917   1.786 -0.1347 -0.3477  2.5002
   35MOL   H14313131   7.110   2.867   1.549  1.2280 -2.2062 -1.8061
   35MOL   H14413132   7.130   2.692   1.578 -1.2476 -0.7862  0.4141
   35MOL   H14513133   6.866   2.833   1.633  0.8904  1.4271 -0.8310
   35MOL   H14613134   6.912   2.692   1.546  1.4475 -0.4755 -0.3867
   35MOL   H14713135   6.967   2.553   1.736 -2.2682 -1.4967  0.6230
   35MOL   H14813136   6.766   2.727   1.865 -0.8631 -0.8388 -0.0593
   35MOL   H14913137   6.803   2.554   1.890 -1.6275 -1.0556  0.1669
   35MOL   H15013138   6.651   2.670   1.658 -0.6534 -0.4903  0.5778
   35MOL   H15113139   6.710   2.509   1.652 -3.1975 -2.1983 -0.1587
   35MOL   H15213140   7.090   2.648   1.902 -0.4221 -1.8829 -1.2067
   35MOL   H15313141   6.988   2.785   1.931 -2.7428  0.9986 -1.5971
   35MOL   C15413142   6.551   2.549   1.802 -0.4036 -0.3473  0.1126
   35MOL   C15513143   6.576   2.417   1.885  0.0684 -0.1318 -0.3581
   35MOL   C15613144   6.455   2.331   1.848 -0.0660 -0.2758 -0.2047
   35MOL   C15713145   6.350   2.414   1.795  0.0886 -1.0065 -0.5586
   35MOL   C15813146   6.241   2.329   1.720  0.5360  0.3959  0.5070
   35MOL   C15913147   6.114   2.416   1.682 -0.2080 -0.1840 -0.3004
   35MOL   C16013148   6.433   2.513   1.717 -0.0497 -0.3084 -0.5703
   35MOL   H16113149   6.526   2.637   1.862  0.6253 -0.5623  0.8719
   35MOL   H16213150   6.670   2.372   1.857 -0.9655  0.4997 -5.2932
   35MOL   H16313151   6.573   2.427   1.993  0.7172 -1.4688 -0.2203
   35MOL   H16413152   6.485   2.280   1.756 -0.8622  0.7681 -1.0421
   35MOL   H16513153   6.411   2.271   1.928  2.3793 -1.3088  0.4294
   35MOL   H16613154   6.299   2.471   1.873  0.3814  1.0274 -1.8019
   35MOL   H16713155   6.206   2.250   1.787 -1.0966 -1.3903 -2.3406
   35MOL   H16813156   6.291   2.293   1.630  2.0163  0.2002  1.3946
   35MOL   H16913157   6.084   2.474   1.770  1.1987  1.3197 -0.7857
   35MOL   H17013158   6.150   2.488   1.609 -0.3551  0.2563  0.0599
   35MOL   H17113159   6.382   2.604   1.687 -2.5186 -2.1193 -2.0352
   35MOL   H17213160   6.479   2.460   1.633  0.3123  0.7212 -1.0293
   35MOL   C17313161   5.994   2.338   1.621  0.6333 -0.0787 -0.7734
   35MOL   C17413162   5.874   2.417   1.561  0.2083 -0.3229 -0.0975
   35MOL   C17513163   5.797   2.328   1.467 -0.3853 -0.1242 -0.6143
   35MOL   C17613164   5.907   2.226   1.414  0.1645  0.0512  0.0206
   35MOL   C17713165   5.919   2.226   1.257 -0.2984 -0.5127 -0.6253
   35MOL   C17813166   6.012   2.114   1.209 -0.2613 -0.1199  0.0710
   35MOL   C17913167   6.036   2.269   1.489 -0.4597  0.2280 -0.0971
   35MOL   H18013168   5.949   2.267   1.690  0.2579 -0.0129 -0.9484
   35MOL   H18113169   5.905   2.508   1.510  0.2293  0.1741  0.7800
   35MOL   H18213170   5.803   2.442   1.640  0.2012 -1.2170  0.1801
   35MOL   H18313171   5.720   2.273   1.521  0.4794  0.1427  0.9367
   35MOL   H18413172   5.742   2.390   1.396 -1.7945  1.0580  1.4603
   35MOL   H18513173   5.873   2.126   1.442  1.4844 -0.5506 -0.5079
   35MOL   H18613174   5.932   2.328   1.222 -2.0314 -0.0944 -0.1006
   35MOL   H18713175   5.827   2.197   1.208  0.7065 -2.1843 -1.5761
   35MOL   H18813176   6.015   2.036   1.284  0.7219 -1.4390 -1.2973
   35MOL   H18913177   6.114   2.154   1.210  0.0482 -0.8790 -0.4117
   35MOL   H19013178   6.093   2.340   1.429 -0.4998  1.6784  1.5337
   35MOL   H19113179   6.102   2.189   1.521 -1.0490 -0.0992  0.3149
   35MOL   C19213180   5.991   2.057   1.064  0.4259 -1.1391 -1.0583
   35MOL   C19313181   5.856   1.977   1.053 -0.6601  0.8941 -0.4413
   35MOL   C19413182   5.878   1.882   0.940 -0.2760  0.0712  0.3823
   35MOL   C19513183   6.030   1.837   0.961 -0.0303  0.0088 -0.6127
   35MOL   C19613184   6.097   1.783   0.838 -0.2246 -0.2053 -0.0023
   35MOL   C19713185   6.038   1.641   0.794 -0.1413  0.1188  0.2660
   35MOL   C19813186   6.097   1.947   1.038  0.5535  0.1799  0.1903
   35MOL   H19913187   5.998   2.134   0.988 -0.1575 -0.1710 -0.1470
   35MOL   H20013188   5.835   1.935   1.151 -0.9522 -0.9479 -1.2813
   35MOL   H20113189   5.770   2.035   1.019 -0.6772  0.0746 -1.8496
   35MOL   H20213190   5.875   1.932   0.843 -4.4020 -0.7916 -0.0513
   35MOL   H20313191   5.813   1.794   0.938  0.7257 -0.6711 -1.3333
   35MOL   H20413192   6.032   1.749   1.026 -2.5726  0.0585 -0.3972
   35MOL   H20513193   6.204   1.779   0.855 -0.0300  2.8318 -0.1470
   35MOL   H20613194   6.081   1.850   0.753  1.5088  1.3893  0.8983
   35MOL   H20713195   5.930   1.643   0.810  0.0932  0.7473  1.9267
   35MOL   H20813196   6.056   1.561   0.866  0.2519 -1.0097 -1.0712
   35MOL   H20913197   6.174   1.992   0.975  0.4356  0.3410  0.1630
   35MOL   H21013198   6.151   1.905   1.123  0.9855  0.8280  0.2330
   35MOL   C21113199   6.080   1.589   0.654 -0.2122  0.0139 -0.3437
   35MOL   C21213200   6.043   1.673   0.534  0.3306  0.1268  0.1167
   35MOL   C21313201   6.035   1.570   0.414  0.4240 -0.5177 -0.0785
   35MOL   C21413202   6.033   1.428   0.472  0.3700 -0.0353  0.0176
   35MOL   C21513203   5.924   1.334   0.422 -0.5863 -1.4617 -0.0143
   35MOL   C21613204   5.946   1.302   0.279 -0.0645 -0.3979 -0.7848
   35MOL   C21713205   6.029   1.452   0.624 -0.0333 -0.3944 -0.6633
   35MOL   H21813206   6.188   1.598   0.663 -0.1772  0.3027 -1.0026
   35MOL   H21913207   5.945   1.716   0.558 -0.0347 -0.0068 -1.1210
   35MOL   H22013208   6.097   1.764   0.509 -0.0750  0.2573 -0.2926
   35MOL   H22113209   5.942   1.595   0.363  1.2321  2.0920 -0.3239
   35MOL   H22213210   6.113   1.594   0.342 -1.8104 -0.4200 -2.5691
   35MOL   H22313211   6.131   1.395   0.437  0.2629  1.5929 -1.8565
   35MOL   H22413212   5.831   1.385   0.446 -0.2123 -0.6520 -0.2557
   35MOL   H22513213   5.917   1.242   0.481 -1.7597 -0.5376  1.3231
   35MOL   H22613214   5.998   1.381   0.226  2.5990 -2.7704 -1.8352
   35MOL   H22713215   6.012   1.215   0.275  1.7945  1.0154 -1.3257
   35MOL   H22813216   6.081   1.374   0.680  1.1370 -0.5092 -1.8732
   35MOL   H22913217   5.934   1.439   0.675  0.8143 -2.7338  0.3834
   35MOL   C23013218   5.825   1.263   0.197  0.8000 -0.2409 -0.1638
   35MOL   C23113219   5.859   1.212   0.058 -0.3203 -0.1217 -0.6850
   35MOL   C23213220   5.728   1.231   7.632 -0.7395 -0.1289 -0.5161
   35MOL   C23313221   5.682   1.367   0.038 -0.1557 -0.8432 -0.9522
   35MOL   C23413222   5.535   1.394   7.638  0.0076  0.7112 -0.0229
   35MOL   C23513223   5.488   1.532   0.039  0.3340 -0.7892 -0.1615
   35MOL   C23613224   5.717   1.373   0.187 -0.0522  0.3686 -0.3752
   35MOL   H23713225   5.782   1.186   0.261 -0.5493 -0.3495 -1.1803
   35MOL   H23813226   5.935   1.270   0.005 -0.2335 -0.7944 -1.2954
   35MOL   H23913227   5.892   1.108   0.060  0.1437  0.0214 -0.8161
   35MOL   H24013228   5.658   1.153   0.015 -0.1559 -0.6325 -0.4575
   35MOL   H24113229   5.735   1.238   7.523 -1.5401  2.0491 -0.4525
   35MOL   H24213230   5.749   1.437   7.636  2.7314 -2.6047  0.3338
   35MOL   H24313231   5.465   1.317   0.023  1.2754 -0.8716 -0.9629
   35MOL   H24413232   5.529   1.374   7.531 -1.7056  1.2336 -0.0331
   35MOL   H24513233   5.494   1.525   0.147 -0.6844  0.7483  0.0151
   35MOL   H24613234   5.564   1.608   0.020  1.1770 -0.7954  2.9061
   35MOL   H24713235   5.620   1.351   0.231  0.4036  0.9915  0.9559
   35MOL   H24813236   5.757   1.466   0.226 -1.7575  0.5893  0.8882
   35MOL   C24913237   5.350   1.561   7.622  0.8980  0.3222 -0.2910
   35MOL   C25013238   5.246   1.453   7.642 -0.0289  0.5270 -0.6409
   35MOL   C25113239   5.114   1.531   7.633  0.1702 -0.1135  0.1988
   35MOL   C25213240   5.151   1.664   0.053  0.7125 -0.3538  0.4046
   35MOL   C25313241   5.059   1.783   0.017 -0.3242  0.3860 -1.0315
   35MOL   C25413242   4.939   1.805   0.110  0.2213  0.5530 -0.3902
   35MOL   C25513243   5.297   1.691   0.019  0.0384 -0.1140 -0.3700
   35MOL   H25613244   5.378   1.581   7.518  1.5886  0.7317 -0.0292
   35MOL   H25713245   5.255   1.369   7.573 -0.3413  1.7818 -2.2460
   35MOL   H25813246   5.252   1.421   0.099  0.0011 -2.5454 -1.5432
   35MOL   H25913247   5.021   1.490   0.025  0.6396  1.1863  2.7551
   35MOL   H26013248   5.105   1.551   7.526 -0.8853 -0.2085  0.2575
   35MOL   H26113249   5.152   1.647   0.161 -0.3250  1.3775  0.7068
   35MOL   H26213250   5.007   1.752   7.573 -1.5567  0.7123 -0.4547
   35MOL   H26313251   5.122   1.870   7.647  0.0385  0.4333  0.5080
   35MOL   H26413252   4.882   1.712   0.106  1.0169 -0.0223  1.2055
   35MOL   H26513253   4.870   1.882   0.075  0.1621 -0.5899 -2.8688
   35MOL   H26613254   5.352   1.740   0.099  0.2424 -0.7162 -0.1439
   35MOL   H26713255   5.301   1.758   7.580  1.5820  0.7556  0.3546
   35MOL   C26813256   4.990   1.838   0.249 -0.1855 -0.1976  0.5724
   35MOL   C26913257   4.881   1.850   0.357  0.3750  0.1913  0.0800
   35MOL   C27013258   4.949   1.912   0.477 -0.3958  0.2680  0.3101
   35MOL   C27113259   5.064   2.000   0.419 -0.2579 -0.2747  0.4798
   35MOL   C27213260   5.068   2.154   0.451  0.1822  0.1026 -0.2002
   35MOL   C27313261   5.200   2.226   0.392  0.1031  0.0388  0.4366
   35MOL   C27413262   5.052   1.976   0.268  0.3857 -0.0664  0.2388
   35MOL   H27513263   5.056   1.762   0.290  0.2458  0.1944  0.5996
   35MOL   H27613264   4.804   1.919   0.322  0.9203  0.5429 -0.4363
   35MOL   H27713265   4.832   1.755   0.378  0.7219 -0.5752 -2.3974
   35MOL   H27813266   4.883   1.970   0.542 -2.3020 -0.2439 -1.1385
   35MOL   H27913267   5.002   1.836   0.535  1.0725 -0.6531 -2.2040
   35MOL   H28013268   5.155   1.958   0.461 -0.1521 -1.1917 -0.6316
   35MOL   H28113269   5.056   2.163   0.559 -2.7998  0.6835 -0.5352
   35MOL   H28213270   4.987   2.210   0.404  1.0518  1.1589 -0.4519
   35MOL   H28313271   5.289   2.198   0.449  0.7738 -0.8037 -0.9947
   35MOL   H28413272   5.227   2.185   0.295 -1.0332  1.8757 -0.7031
   35MOL   H28513273   4.992   2.049   0.214 -0.7337 -1.3926 -0.3497
   35MOL   H28613274   5.148   1.988   0.219  0.2283 -3.5954 -1.0905
   35MOL   C28713275   5.196   2.385   0.370  0.3753  0.2656  0.2017
   35MOL   C28813276   5.177   2.470   0.495  0.1140  0.3956 -0.2932
   35MOL   C28913277   5.232   2.609   0.464  0.5478  0.8404 -0.2025
   35MOL   C29013278   5.294   2.596   0.318  0.2858 -0.3971  0.2059
   35MOL   C29113279   5.412   2.690   0.288 -0.3999 -0.2032  0.4255
   35MOL   C29213280   5.387   2.834   0.326 -0.1949 -1.0003  0.1844
   35MOL   C29313281   5.314   2.442   0.302  0.0534 -0.8711 -0.8091
   35MOL   H29413282   5.122   2.410   0.294 -1.0716  0.3150  1.5931
   35MOL   H29513283   5.071   2.479   0.516  0.6204  1.8150  1.8201
   35MOL   H29613284   5.235   2.425   0.576  1.9643  1.2437 -1.0991
   35MOL   H29713285   5.306   2.629   0.541 -0.3253  2.8065  0.1552
   35MOL   H29813286   5.159   2.690   0.472 -1.1380 -0.6784  0.0543
   35MOL   H29913287   5.212   2.623   0.251  0.9135  0.1419 -0.3403
   35MOL   H30013288   5.446   2.680   0.185  0.3982 -0.7244  0.7325
   35MOL   H30113289   5.494   2.661   0.354  0.0223  1.9621  0.9099
   35MOL   H30213290   5.483   2.884   0.313 -1.9751  2.6437  0.3904
   35MOL   H30313291   5.377   2.837   0.434 -0.0134  0.9678  0.1581
   35MOL   H30413292   5.410   2.410   0.343  1.5781  0.0535 -3.5686
   35MOL   H30513293   5.323   2.413   0.197  1.6444  0.5810 -1.0850
   35MOL   C30613294   5.272   2.899   0.243 -0.8564  0.2867 -0.1238
   35MOL   C30713295   5.229   3.036   0.293  0.5081  0.0870  0.1832
   35MOL   C30813296   5.209   3.126   0.171  0.1255  0.7288 -0.7777
   35MOL   C30913297   5.228   3.043   0.045 -0.1940  0.1519 -0.0000
   35MOL   C31013298   5.290   3.124   7.575  0.1538  0.5058 -0.5655
   35MOL   C31113299   5.245   3.079   7.433 -0.4643 -0.1693 -0.1284
   35MOL   C31213300   5.311   2.920   0.096  0.7200  0.7075  0.2569
   35MOL   H31313301   5.183   2.836   0.247  0.3112 -1.3554  0.0343
   35MOL   H31413302   5.139   3.037   0.354 -0.1114  3.4928 -0.6861
   35MOL   H31513303   5.310   3.083   0.348 -0.3278 -1.0111  2.3810
   35MOL   H31613304   5.110   3.172   0.163  1.0083  2.7171 -0.6040
   35MOL   H31713305   5.275   3.213   0.167 -0.4176  1.1113 -1.7599
   35MOL   H31813306   5.124   3.016   0.025  0.2885 -1.7901  0.0382
   35MOL   H31913307   5.255   3.226   7.589  2.4249  1.3904 -1.1105
   35MOL   H32013308   5.399   3.130   7.578  0.4190 -2.6432 -1.7246
   35MOL   H32113309   5.136   3.082   7.431 -0.4312  2.4046 -0.6952
   35MOL   H32213310   5.276   2.976   7.416 -0.3429 -0.1033 -0.3154
   35MOL   H32313311   5.415   2.952   0.093  0.6925  0.7547 -0.1430
   35MOL   H32413312   5.298   2.836   0.028  0.1534  1.0013 -0.0039
   35MOL   C32513313   5.284   3.189   7.332  0.9140  0.0946  0.0102
   35MOL   C32613314   5.267   3.154   7.186 -0.0940  0.2985 -0.5537
   35MOL   C32713315   5.259   3.293   7.121 -0.0119 -0.0394  0.8110
   35MOL   C32813316   5.168   3.374   7.223  0.0581 -0.0657 -0.0520
   35MOL   C32913317   5.185   3.528   7.210 -0.0426  0.1089 -0.1994
   35MOL   C33013318   5.100   3.613   7.313  0.3294 -0.2286  0.4247
   35MOL   C33113319   5.216   3.331   7.357  0.6310  1.0108  0.2719
   35MOL   H33213320   5.390   3.205   7.353  0.9138  0.1686 -0.0440
   35MOL   H33313321   5.177   3.097   7.168  0.4747 -0.8507  0.1879
   35MOL   H33413322   5.347   3.086   7.156  1.3661  0.9940  1.6056
   35MOL   H33513323   5.355   3.343   7.112 -0.3082  0.4624  0.4752
   35MOL   H33613324   5.217   3.304   7.021  1.3951  2.1417  0.4269
   35MOL   H33713325   5.063   3.351   7.204 -0.0918 -1.2139  1.9945
   35MOL   H33813326   5.289   3.555   7.226  0.4212 -1.6086 -0.1797
   35MOL   H33913327   5.155   3.549   7.108  0.7877 -2.8137 -1.0889
   35MOL   H34013328   5.006   3.560   7.323  0.1342 -0.2651 -1.3508
   35MOL   H34113329   5.143   3.600   7.412  1.4285 -1.4091 -0.1854
   35MOL   H34213330   5.136   3.335   7.432 -0.5843 -1.1340 -0.8567
   35MOL   H34313331   5.294   3.401   7.387 -0.5656  1.9318  1.3001
   35MOL   C34413332   5.083   3.767   7.288  0.1539 -0.4407 -0.1969
   35MOL   C34513333   5.027   3.845   7.407  0.5486  0.3095 -0.5768
   35MOL   C34613334   4.968   3.970   7.353  0.1683  0.6112  0.0108
   35MOL   C34713335   4.916   3.932   7.211  0.1251 -0.3408 -0.1749
   35MOL   C34813336   4.914   4.049   7.110 -0.1132 -0.3364 -0.3147
   35MOL   C34913337   4.803   4.151   7.118  0.5056  0.7704 -0.8029
   35MOL   C35013338   4.999   3.809   7.168  0.4985  0.2767 -0.1112
   35MOL   H35113339   5.186   3.802   7.284  0.1804 -0.3098  1.2577
   35MOL   H35213340   5.106   3.873   7.478  0.6920 -0.5760 -0.3836
   35MOL   H35313341   4.954   3.789   7.466  2.9248 -1.9795  0.2954
   35MOL   H35413342   4.897   4.027   7.413  1.0807  1.6074  0.1594
   35MOL   H35513343   5.054   4.034   7.335  0.9539  0.4350  2.9639
   35MOL   H35613344   4.811   3.902   7.216 -0.6398  2.1290 -0.6454
   35MOL   H35713345   5.007   4.102   7.128 -0.4407 -0.6220  2.2992
   35MOL   H35813346   4.926   4.012   7.008  4.1780  0.7348 -0.2665
   35MOL   H35913347   4.774   4.188   7.216 -1.2221 -1.7761 -0.2855
   35MOL   H36013348   4.710   4.098   7.100  0.8906 -0.4164  0.6408
   35MOL   H36113349   4.933   3.731   7.129 -2.9079  2.9766  0.0588
   35MOL   H36213350   5.066   3.844   7.090 -0.7389 -1.4084 -1.9870
   35MOL   C36313351   4.813   4.268   7.027 -0.3191  0.3275 -0.3818
   35MOL   C36413352   4.734   4.389   7.077  0.1879  0.0265  0.3054
   35MOL   C36513353   4.692   4.458   6.945 -0.2073  0.4665  0.0021
   35MOL   C36613354   4.749   4.378   6.830 -0.1832 -0.1847  0.1576
   35MOL   C36713355   4.669   4.375   6.700  0.2359  0.2330  0.7474
   35MOL   C36813356   4.719   4.294   6.581 -0.0067 -0.6999  0.1344
   35MOL   C36913357   4.777   4.237   6.885 -0.0841 -0.1892  0.4052
   35MOL   H37013358   4.917   4.300   7.027  0.1979 -1.3091 -1.6601
   35MOL   H37113359   4.652   4.362   7.144  0.5794 -1.0929  0.3378
   35MOL   H37213360   4.793   4.462   7.133  0.7717 -2.5721  3.2193
   35MOL   H37313361   4.584   4.473   6.940 -0.3199 -0.5807 -0.9180
   35MOL   H37413362   4.739   4.556   6.940 -0.2556  0.4488 -0.9089
   35MOL   H37513363   4.847   4.424   6.813 -0.7206  0.8304 -0.2712
   35MOL   H37613364   4.572   4.336   6.732  0.1961 -1.1523 -0.9421
   35MOL   H37713365   4.657   4.478   6.667  1.1097  0.4149  0.9959
   35MOL   H37813366   4.718   4.186   6.594 -0.7630 -0.3491  3.5097
   35MOL   H37913367   4.827   4.312   6.576 -0.1790 -0.0842 -2.0285
   35MOL   H38013368   4.695   4.166   6.879  0.8217 -1.0915 -1.5356
   35MOL   H38113369   4.855   4.182   6.833 -2.7917 -0.6430 -3.4007
   35MOL   H38213370   4.678   4.321   6.484  0.0849  3.0500  1.0552
   36MOL     C113371   5.495   1.485   2.627  0.3893  0.6538 -0.3531
   36MOL     C213372   5.375   1.517   2.706 -0.6460 -0.4124 -0.2879
   36MOL     C313373   5.436   1.562   2.840 -0.2981  0.0433  0.3225
   36MOL     C413374   5.551   1.655   2.804 -0.1932  0.1117 -0.0445
   36MOL     C513375   5.637   1.680   2.928 -0.3382 -0.2956  0.2164
   36MOL     C613376   5.575   1.787   3.020 -0.2238  0.3967 -0.0521
   36MOL     C713377   5.614   1.566   2.696  0.5547  0.4884 -0.0536
   36MOL     H813378   5.531   1.382   2.626 -1.5081 -0.0248 -0.7606
   36MOL     H913379   5.318   1.425   2.720  0.7786 -1.0419  1.5109
   36MOL    H1013380   5.307   1.589   2.661 -1.2186 -1.6292 -1.4141
   36MOL    H1113381   5.367   1.610   2.911  0.3646  1.5201 -0.0083
   36MOL    H1213382   5.478   1.473   2.886  0.7931  0.4367  0.0904
   36MOL    H1313383   5.514   1.746   2.756 -0.3561  0.3754  0.5886
   36MOL    H1413384   5.661   1.585   2.974 -0.3725 -0.8053 -0.8053
   36MOL    H1513385   5.724   1.727   2.882 -0.1828 -0.4109  0.3943
   36MOL    H1613386   5.512   1.857   2.965 -0.1015  1.2622  0.8751
   36MOL    H1713387   5.528   1.746   3.110 -2.1146  0.5868 -0.9374
   36MOL    H1813388   5.675   1.622   2.625 -0.4170  0.2411 -1.0824
   36MOL    H1913389   5.674   1.492   2.750 -0.9093 -0.2233  0.6361
   36MOL    H2013390   5.477   1.521   2.525  2.8842 -0.1455 -1.1323
   36MOL    C2113391   5.686   1.875   3.082  0.7002  0.0739  0.0482
   36MOL    C2213392   5.737   1.978   2.993  0.2196 -0.2810 -0.0417
   36MOL    C2313393   5.751   2.108   3.081 -0.0205 -0.1760 -0.2367
   36MOL    C2413394   5.732   2.064   3.227 -0.2806  0.8363 -0.0209
   36MOL    C2513395   5.677   2.179   3.317  0.1889  0.0779  0.1470
   36MOL    C2613396   5.787   2.291   3.330 -0.1436 -0.5821 -0.5731
   36MOL    C2713397   5.640   1.944   3.207  0.2920 -0.2776 -0.1986
   36MOL    H2813398   5.778   1.825   3.111 -0.0056 -0.5148  1.3743
   36MOL    H2913399   5.836   1.948   2.960 -0.5464 -2.2070 -0.6216
   36MOL    H3013400   5.673   2.000   2.908 -0.5795  0.2114  0.6705
   36MOL    H3113401   5.851   2.153   3.082  0.0410 -0.3210  0.1334
   36MOL    H3213402   5.668   2.166   3.040  0.8788  0.0212 -1.8416
   36MOL    H3313403   5.833   2.047   3.266  0.3152  2.8338 -0.6177
   36MOL    H3413404   5.666   2.135   3.416 -0.9759  0.3767  0.1567
   36MOL    H3513405   5.581   2.208   3.274  0.1162 -0.4022 -0.0257
   36MOL    H3613406   5.766   2.359   3.248 -0.0063  1.0506  0.7167
   36MOL    H3713407   5.887   2.254   3.309  0.8330  3.1394 -2.8933
   36MOL    H3813408   5.632   1.881   3.296  2.6150 -1.1167 -0.5442
   36MOL    H3913409   5.535   1.969   3.193 -0.2236 -2.1827  0.0549
   36MOL    C4013410   5.775   2.364   3.466 -0.2371 -0.5722 -0.6199
   36MOL    C4113411   5.889   2.460   3.486 -0.4960  0.0557  0.1173
   36MOL    C4213412   5.840   2.544   3.605 -0.3816 -0.2844  0.3166
   36MOL    C4313413   5.688   2.560   3.591 -0.2369  0.0996  0.2066
   36MOL    C4413414   5.609   2.578   3.722  0.3473 -0.5285 -0.3071
   36MOL    C4513415   5.624   2.712   3.770 -0.1988 -0.7226  0.0877
   36MOL    C4613416   5.646   2.435   3.500 -0.0835 -0.3285 -0.2681
   36MOL    H4713417   5.781   2.275   3.528  0.2856  0.6942  1.1781
   36MOL    H4813418   5.900   2.522   3.396 -0.9940 -0.8261 -0.5557
   36MOL    H4913419   5.982   2.409   3.512 -1.1036 -0.8542  0.4870
   36MOL    H5013420   5.855   2.483   3.694  0.4098 -1.6439 -0.7246
   36MOL    H5113421   5.909   2.627   3.619  1.0089 -1.4223  0.4760
   36MOL    H5213422   5.679   2.650   3.529 -2.2234  0.0947  0.4445
   36MOL    H5313423   5.504   2.552   3.710  0.7071 -1.9152 -0.5249
   36MOL    H5413424   5.648   2.507   3.795 -1.1477 -1.2883 -0.2155
   36MOL    H5513425   5.555   2.779   3.719  2.1632  1.1099 -0.7739
   36MOL    H5613426   5.720   2.755   3.742 -0.7118 -1.2754 -2.6482
   36MOL    H5713427   5.564   2.375   3.540  0.5335 -0.8483  0.2262
   36MOL    H5813428   5.612   2.473   3.404 -0.6940 -1.2440 -0.4265
   36MOL    C5913429   5.592   2.728   3.924  0.1139  0.1699 -0.1583
   36MOL    C6013430   5.705   2.663   4.013 -0.6751  0.8150 -0.4871
   36MOL    C6113431   5.723   2.749   4.137  0.0103  0.2120  0.1127
   36MOL    C6213432   5.690   2.887   4.087  0.0116  0.6490  0.5158
   36MOL    C6313433   5.654   2.992   4.190 -0.4025 -0.2728  0.4700
   36MOL    C6413434   5.639   3.135   4.137  0.3324 -1.1436 -0.1076
   36MOL    C6513435   5.580   2.868   3.983 -0.5492 -0.0940  0.6156
   36MOL    H6613436   5.498   2.675   3.931 -0.8251  1.3662 -2.9082
   36MOL    H6713437   5.692   2.558   4.040 -0.1284  1.3586  1.9723
   36MOL    H6813438   5.798   2.660   3.956 -0.6978 -3.1135 -0.4596
   36MOL    H6913439   5.642   2.730   4.207  0.1244  0.5363  0.3317
   36MOL    H7013440   5.821   2.747   4.185 -0.3539 -2.9399  0.8430
   36MOL    H7113441   5.780   2.926   4.038  0.7675 -1.3363  0.2863
   36MOL    H7213442   5.739   2.996   4.258  0.1773  4.5879 -0.3322
   36MOL    H7313443   5.569   2.954   4.246  0.4189 -2.1978  0.4463
   36MOL    H7413444   5.727   3.156   4.075 -1.5325 -0.9169 -2.7303
   36MOL    H7513445   5.556   3.132   4.067  1.2756 -0.4165 -1.2939
   36MOL    H7613446   5.479   2.869   4.022 -1.2572 -0.2300 -1.1741
   36MOL    H7713447   5.583   2.945   3.906 -2.1620 -0.6414 -0.0018
   36MOL    C7813448   5.606   3.242   4.242  0.8533  0.0004  1.1046
   36MOL    C7913449   5.716   3.281   4.342 -0.8178  0.2991  0.0087
   36MOL    C8013450   5.747   3.430   4.323  0.9883 -0.4016 -0.1935
   36MOL    C8113451   5.618   3.492   4.268  0.2581  0.2349 -0.2969
   36MOL    C8213452   5.629   3.631   4.203  0.2056  0.6724 -0.5988
   36MOL    C8313453   5.498   3.707   4.179  0.6082  0.2753  0.1231
   36MOL    C8413454   5.572   3.378   4.172  0.0085  0.1142  0.0933
   36MOL    H8513455   5.520   3.220   4.306 -1.0161 -0.3757 -1.4756
   36MOL    H8613456   5.683   3.248   4.440 -0.2318  1.4148  0.5884
   36MOL    H8713457   5.804   3.222   4.313 -2.5467 -2.1514 -0.4627
   36MOL    H8813458   5.782   3.475   4.415 -1.0881  0.5493  0.1465
   36MOL    H8913459   5.815   3.450   4.240 -1.7836 -3.6664 -3.4518
   36MOL    H9013460   5.543   3.509   4.346 -0.1643 -1.0531 -0.3986
   36MOL    H9113461   5.683   3.627   4.108  2.6668 -0.9114  0.7980
   36MOL    H9213462   5.694   3.691   4.266  0.1111  0.5048 -0.3426
   36MOL    H9313463   5.441   3.725   4.269 -0.6998  1.9486 -1.0204
   36MOL    H9413464   5.439   3.638   4.119  0.1087 -0.2666  1.2341
   36MOL    H9513465   5.627   3.393   4.079  0.0024  0.1206  0.0899
   36MOL    H9613466   5.465   3.394   4.155 -0.4998 -1.4643  1.7159
   36MOL    C9713467   5.523   3.844   4.113  0.7240 -0.0213 -0.6464
   36MOL    C9813468   5.394   3.927   4.087 -0.2832 -0.6918  0.4822
   36MOL    C9913469   5.371   3.953   3.929 -0.3145  0.0432  0.2513
   36MOL   C10013470   5.519   3.949   3.895  0.6799  0.0957 -0.2777
   36MOL   C10113471   5.547   3.934   3.748  0.4611  0.1040 -0.5448
   36MOL   C10213472   5.696   3.977   3.719 -0.2735 -0.8962  0.0369
   36MOL   C10313473   5.581   3.826   3.972 -0.4393  0.0924  0.8237
   36MOL   H10413474   5.586   3.904   4.179  0.8935  1.8277 -2.4294
   36MOL   H10513475   5.309   3.884   4.140 -0.0734  0.6088  1.8893
   36MOL   H10613476   5.406   4.019   4.144  1.8819 -0.5319 -0.1594
   36MOL   H10713477   5.320   3.870   3.880 -0.9623  0.2233  0.6169
   36MOL   H10813478   5.320   4.046   3.905 -0.0245  0.4782  1.3023
   36MOL   H10913479   5.558   4.044   3.932  1.9658 -0.8882  0.9548
   36MOL   H11013480   5.524   3.837   3.705 -2.0268  0.6258 -0.4602
   36MOL   H11113481   5.486   4.004   3.691 -0.9543  0.3866  1.2614
   36MOL   H11213482   5.712   4.075   3.764  0.9055 -1.3231  0.5616
   36MOL   H11313483   5.771   3.910   3.762  1.1291  1.5693  1.6043
   36MOL   H11413484   5.564   3.728   3.929 -1.0990  0.4710  0.2191
   36MOL   H11513485   5.689   3.839   3.972 -0.2886 -0.5771 -3.3462
   36MOL   C11613486   5.731   3.981   3.575  0.0712  0.3156  0.2465
   36MOL   C11713487   5.875   4.027   3.559  0.1132  0.1364  0.3928
   36MOL   C11813488   5.952   3.903   3.510  0.1850 -0.6531 -0.6326
   36MOL   C11913489   5.852   3.821   3.436  0.7403 -0.7724 -0.3051
   36MOL   C12013490   5.891   3.678   3.408 -1.0646  0.2604  0.4483
   36MOL   C12113491   6.020   3.661   3.322  0.1714  0.6343  0.4801
   36MOL   C12213492   5.719   3.842   3.515  0.3228  0.0013  0.4444
   36MOL   H12313493   5.662   4.038   3.512  0.2756 -0.0907 -0.3520
   36MOL   H12413494   5.910   4.079   3.648  5.2032 -0.0378 -1.3802
   36MOL   H12513495   5.880   4.099   3.477 -2.7543  0.9437  0.8682
   36MOL   H12613496   5.992   3.845   3.592  1.1960 -0.3128 -0.8866
   36MOL   H12713497   6.035   3.937   3.449  1.1661 -1.6655  0.1159
   36MOL   H12813498   5.834   3.866   3.339  0.0905  1.1826  0.7009
   36MOL   H12913499   5.812   3.634   3.346  0.1984  0.2407 -1.1878
   36MOL   H13013500   5.891   3.611   3.494  0.3125 -0.7122 -0.2748
   36MOL   H13113501   6.099   3.722   3.365 -0.1358  0.3204  1.4965
   36MOL   H13213502   6.006   3.677   3.215  2.1471 -2.3859 -0.2791
   36MOL   H13313503   5.633   3.836   3.448  0.3179 -0.6739  0.5141
   36MOL   H13413504   5.715   3.768   3.594 -0.6642  2.3684  2.6551
   36MOL   C13513505   6.076   3.517   3.351  0.6038 -1.3579  0.5748
   36MOL   C13613506   6.203   3.493   3.258 -0.5030 -0.6488  0.1978
   36MOL   C13713507   6.284   3.403   3.340 -0.3307 -0.2042  0.3596
   36MOL   C13813508   6.271   3.449   3.484  0.4673  0.5943 -0.1049
   36MOL   C13913509   6.293   3.327   3.579 -0.0100  0.3882 -0.0930
   36MOL   C14013510   6.265   3.349   3.728 -0.2027 -0.8526 -0.2115
   36MOL   C14113511   6.127   3.501   3.501 -0.5640 -0.5001  0.1284
   36MOL   H14213512   5.995   3.447   3.332 -0.2369  0.1174 -1.3471
   36MOL   H14313513   6.177   3.451   3.161  0.9988 -1.8252  0.3027
   36MOL   H14413514   6.255   3.586   3.234  0.3968 -0.4644  2.7556
   36MOL   H14513515   6.245   3.302   3.330 -0.0252 -0.3196  0.3236
   36MOL   H14613516   6.389   3.412   3.312 -0.2526 -0.7594  0.4585
   36MOL   H14713517   6.345   3.527   3.501  1.0622 -0.2134  1.0972
   36MOL   H14813518   6.398   3.301   3.565  0.0210  1.4563 -2.0684
   36MOL   H14913519   6.238   3.240   3.545  0.8693  0.0227 -0.5988
   36MOL   H15013520   6.250   3.456   3.745  1.0169 -0.4198 -1.7537
   36MOL   H15113521   6.171   3.304   3.759 -1.1518  0.0930 -1.6605
   36MOL   H15213522   6.113   3.595   3.554 -2.0619  0.5906 -2.1196
   36MOL   H15313523   6.061   3.425   3.543  0.1824 -0.6609  1.0173
   36MOL   C15413524   6.379   3.309   3.823 -1.1494 -0.2636  0.3319
   36MOL   C15513525   6.424   3.161   3.795  0.2229 -0.0341  0.7261
   36MOL   C15613526   6.481   3.102   3.925 -0.3148 -0.0215 -0.2224
   36MOL   C15713527   6.458   3.215   4.030  0.6195  0.1019 -0.5423
   36MOL   C15813528   6.435   3.158   4.170  0.8464 -0.1510 -0.0575
   36MOL   C15913529   6.548   3.131   4.261  0.5211  0.4246  0.1300
   36MOL   C16013530   6.338   3.295   3.972 -0.0894 -0.2903 -0.6183
   36MOL   H16113531   6.459   3.380   3.803 -0.5132 -1.0706 -0.0309
   36MOL   H16213532   6.336   3.101   3.770  0.4968 -1.0446  2.1613
   36MOL   H16313533   6.486   3.148   3.706  0.6806  0.4666  0.9746
   36MOL   H16413534   6.427   3.009   3.946  1.2102 -1.3675 -2.0641
   36MOL   H16513535   6.585   3.071   3.911 -0.3384 -0.5533  0.6968
   36MOL   H16613536   6.543   3.284   4.028  1.0872 -0.4846 -1.3695
   36MOL   H16713537   6.372   3.069   4.180 -0.7327  1.0962  1.5172
   36MOL   H16813538   6.373   3.236   4.216  2.0157  1.6554 -1.5048
   36MOL   H16913539   6.626   3.071   4.216 -1.8387 -0.5009 -2.8719
   36MOL   H17013540   6.588   3.232   4.273  0.1205  1.0017 -2.9941
   36MOL   H17113541   6.323   3.392   4.019 -0.1229  1.2265 -3.6391
   36MOL   H17213542   6.249   3.232   3.968  0.3093 -0.7512 -2.5880
   36MOL   C17313543   6.516   3.077   4.402 -0.0042 -0.0769 -0.3429
   36MOL   C17413544   6.499   2.918   4.406 -0.0410 -0.1722  0.5628
   36MOL   C17513545   6.593   2.869   4.516  0.0207 -0.2902  0.3702
   36MOL   C17613546   6.625   2.994   4.606  0.2825  0.5322  0.4730
   36MOL   C17713547   6.755   2.979   4.684  0.3668  0.4137  0.4302
   36MOL   C17813548   6.733   2.893   4.803 -0.2570  0.6484  0.3854
   36MOL   C17913549   6.632   3.099   4.499 -0.0075  0.0372  0.7394
   36MOL   H18013550   6.433   3.136   4.440 -0.2419  1.2143 -2.8277
   36MOL   H18113551   6.533   2.883   4.309  0.3442 -0.1494  0.6884
   36MOL   H18213552   6.399   2.888   4.436  0.6232 -1.4325  1.5469
   36MOL   H18313553   6.539   2.793   4.571 -1.1974  0.8618  0.7868
   36MOL   H18413554   6.682   2.821   4.474  1.9051  1.0020  2.7618
   36MOL   H18513555   6.539   3.021   4.667  0.6469 -0.5207  1.4665
   36MOL   H18613556   6.792   3.075   4.721  0.3342  0.8769 -0.7038
   36MOL   H18713557   6.834   2.930   4.626  0.0864 -1.2941  1.4545
   36MOL   H18813558   6.730   2.790   4.766  0.0884  1.3803 -1.7418
   36MOL   H18913559   6.632   2.901   4.843 -1.2184 -1.2649 -1.5407
   36MOL   H19013560   6.727   3.086   4.446 -0.8150 -0.7544 -0.5521
   36MOL   H19113561   6.630   3.199   4.541 -0.8294  0.5752 -0.5594
   36MOL   C19213562   6.849   2.898   4.893  0.1678 -0.1966 -0.0124
   36MOL   C19313563   6.849   2.791   5.004  1.0940 -0.2125  0.0712
   36MOL   C19413564   6.892   2.857   5.135  0.3645  0.6124  1.0500
   36MOL   C19513565   6.821   2.993   5.118  0.6674  0.0958  0.9264
   36MOL   C19613566   6.858   3.093   5.225 -0.2138 -0.0678  0.4888
   36MOL   C19713567   6.784   3.229   5.216 -0.1389 -0.0939  0.0600
   36MOL   C19813568   6.853   3.027   4.973  0.3221 -0.1821  0.5640
   36MOL   H19913569   6.940   2.894   4.834 -0.1024  2.0691 -0.6555
   36MOL   H20013570   6.748   2.758   5.028  0.0903  2.2053 -0.6665
   36MOL   H20113571   6.919   2.709   4.984 -0.5002 -1.2072 -1.6251
   36MOL   H20213572   7.001   2.864   5.134  0.3768  0.4551  1.5304
   36MOL   H20313573   6.868   2.796   5.222 -2.2434 -0.4767 -0.3713
   36MOL   H20413574   6.713   2.980   5.122  0.3553  1.8292 -1.2326
   36MOL   H20513575   6.965   3.112   5.217  0.5772 -3.3642  2.2610
   36MOL   H20613576   6.829   3.052   5.322 -0.2388 -2.5865 -0.5773
   36MOL   H20713577   6.681   3.208   5.187  1.1393 -1.7537 -3.4860
   36MOL   H20813578   6.829   3.278   5.130  0.6746 -1.1179 -0.1021
   36MOL   H20913579   6.950   3.076   4.966  1.0589 -1.6215  0.5669
   36MOL   H21013580   6.767   3.090   4.949 -0.7037 -1.2157  1.4531
   36MOL   C21113581   6.782   3.321   5.337 -0.6096 -0.3387 -0.2427
   36MOL   C21213582   6.749   3.465   5.317  0.4211 -0.0688  0.1765
   36MOL   C21313583   6.804   3.531   5.437 -0.1267 -0.3142  0.1517
   36MOL   C21413584   6.928   3.456   5.485 -0.0283  0.0268 -0.1575
   36MOL   C21513585   7.065   3.534   5.497 -0.3130 -0.4374  0.1028
   36MOL   C21613586   7.184   3.469   5.569 -0.6460 -0.2970  1.0484
   36MOL   C21713587   6.925   3.333   5.396  0.2181  0.1796  0.3175
   36MOL   H21813588   6.708   3.288   5.410 -1.7345 -1.1827 -1.7218
   36MOL   H21913589   6.790   3.511   5.227  0.8718  1.0545  0.9516
   36MOL   H22013590   6.641   3.482   5.310  0.3316  0.0075  1.6146
   36MOL   H22113591   6.816   3.637   5.416 -2.1735 -0.4972 -2.1992
   36MOL   H22213592   6.723   3.529   5.509  0.0151  0.7954  0.3514
   36MOL   H22313593   6.905   3.416   5.584  0.5930  2.0708  0.8401
   36MOL   H22413594   7.052   3.630   5.547 -0.2266  0.1074 -0.8950
   36MOL   H22513595   7.094   3.572   5.399 -0.1240  1.3987  0.8481
   36MOL   H22613596   7.161   3.430   5.669 -1.7352  0.2533  1.0194
   36MOL   H22713597   7.230   3.386   5.515  1.3136  0.8295  0.9520
   36MOL   H22813598   6.944   3.240   5.448 -1.3538 -0.0702  0.4709
   36MOL   H22913599   6.990   3.346   5.310  0.1768 -1.3878  0.0394
   36MOL   C23013600   7.307   3.562   5.573 -0.4543 -1.1075 -0.7477
   36MOL   C23113601   7.348   3.625   5.442 -0.3527  0.4881  0.6445
   36MOL   C23213602   7.494   3.647   5.457  0.2016 -0.6817  0.3419
   36MOL   C23313603   7.544   3.527   5.536 -0.2836  0.4781  0.7460
   36MOL   C23413604   0.029   3.557   5.610 -0.6884  0.8220  0.0059
   36MOL   C23513605   0.157   3.537   5.520 -0.1616 -0.0445 -0.2336
   36MOL   C23613606   7.435   3.503   5.629  0.3832 -0.0875  0.3785
   36MOL   H23713607   7.280   3.650   5.633  2.1842  1.2395 -2.8727
   36MOL   H23813608   7.342   3.549   5.364  0.9089  0.6092  0.4040
   36MOL   H23913609   7.295   3.714   5.410 -0.5844 -0.1403 -0.7658
   36MOL   H24013610   7.516   3.737   5.513  1.1356 -2.4325  2.9016
   36MOL   H24113611   7.545   3.639   5.361 -1.1550  1.0723 -0.5421
   36MOL   H24213612   7.556   3.442   5.470 -0.5981 -0.2714  1.6483
   36MOL   H24313613   0.031   3.485   5.692 -2.3990  0.3980 -0.3041
   36MOL   H24413614   0.027   3.660   5.647 -1.6977  0.9184 -0.3221
   36MOL   H24513615   0.181   3.433   5.500  0.5902 -0.0925  0.8581
   36MOL   H24613616   0.132   3.578   5.423  0.8895  0.3259 -0.3507
   36MOL   H24713617   7.454   3.549   5.727 -0.0972 -0.1085  0.4830
   36MOL   H24813618   7.417   3.396   5.636  0.7037 -0.2225 -0.7872
   36MOL   C24913619   0.278   3.609   5.585 -0.7982  0.0426  0.3799
   36MOL   C25013620   0.425   3.566   5.541  0.7877  1.2686  0.1289
   36MOL   C25113621   0.494   3.696   5.543 -0.1242  0.1125  0.1860
   36MOL   C25213622   0.397   3.804   5.495 -0.3479 -0.4275  0.2359
   36MOL   C25313623   0.437   3.950   5.507 -0.1569  0.3362 -0.0217
   36MOL   C25413624   0.484   4.010   5.641  0.8850  0.1406  0.1160
   36MOL   C25513625   0.264   3.760   5.568 -0.4973 -0.6862 -0.2441
   36MOL   H25613626   0.273   3.586   5.691 -0.8051 -0.6591  0.2302
   36MOL   H25713627   0.473   3.492   5.606 -0.1335  0.7677  0.2390
   36MOL   H25813628   0.427   3.523   5.441  2.1629  0.4110  0.5077
   36MOL   H25913629   0.571   3.704   5.467 -2.4398  1.6992 -2.0685
   36MOL   H26013630   0.537   3.720   5.640 -0.0327 -0.2394  0.2351
   36MOL   H26113631   0.390   3.787   5.388  1.7712 -1.3972  0.2343
   36MOL   H26213632   0.363   4.019   5.467  0.8517  1.5523  0.1700
   36MOL   H26313633   0.527   3.952   5.445  2.9096 -2.7853  4.0689
   36MOL   H26413634   0.554   3.938   5.682  0.7638 -0.1780 -0.2279
   36MOL   H26513635   0.402   4.014   5.713  0.5838  2.6567 -0.3443
   36MOL   H26613636   0.177   3.787   5.507 -0.1782 -0.8764 -0.7936
   36MOL   H26713637   0.244   3.809   5.663 -0.4310  3.2200 -2.1593
   36MOL   C26813638   0.536   4.155   5.631 -0.5806  0.7429  0.3290
   36MOL   C26913639   0.683   4.161   5.590 -0.0715  0.1213  0.1897
   36MOL   C27013640   0.752   4.135   5.726 -0.3954  0.5340 -0.1251
   36MOL   C27113641   0.676   4.211   5.832  0.2181 -0.1442  0.2328
   36MOL   C27213642   0.667   4.136   5.969 -0.0608 -0.0709 -0.5005
   36MOL   C27313643   0.617   4.224   6.082  0.2957 -0.3468  0.8040
   36MOL   C27413644   0.533   4.227   5.770  0.3066 -0.0514  0.1353
   36MOL   H27513645   0.486   4.211   5.552 -0.9391  1.6250  1.1703
   36MOL   H27613646   0.706   4.100   5.502 -1.2223  0.5398 -0.4190
   36MOL   H27713647   0.705   4.262   5.557  0.2914  0.4917  1.5505
   36MOL   H27813648   0.750   4.029   5.750 -1.7241  0.1007 -2.0234
   36MOL   H27913649   0.852   4.180   5.728  1.1036 -2.7324  2.1276
   36MOL   H28013650   0.730   4.304   5.846  0.3909 -0.3942  1.2826
   36MOL   H28113651   0.771   4.108   5.986  0.5714  2.3248 -0.2582
   36MOL   H28213652   0.607   4.045   5.967 -0.4857  0.2186 -1.1491
   36MOL   H28313653   0.665   4.322   6.086 -0.6818  0.1668  0.3263
   36MOL   H28413654   0.513   4.257   6.073  0.7085  1.0974  1.0875
   36MOL   H28513655   0.453   4.186   5.831 -0.6042  1.0759 -0.2829
   36MOL   H28613656   0.516   4.333   5.746 -0.0147  0.3474  2.0711
   36MOL   C28713657   0.624   4.167   6.226 -0.4776 -0.5360 -0.4020
   36MOL   C28813658   0.573   4.253   6.343 -0.2869 -0.0056  0.5699
   36MOL   C28913659   0.518   4.151   6.445  0.2916  0.2543 -0.8525
   36MOL   C29013660   0.534   4.017   6.382 -0.7054 -0.1431  0.6024
   36MOL   C29113661   0.423   3.918   6.426 -0.0685  0.0231 -0.1290
   36MOL   C29213662   0.274   3.954   6.392  1.0867  0.0200  0.1903
   36MOL   C29313663   0.546   4.038   6.233  0.2025 -0.7920  0.1920
   36MOL   H29413664   0.730   4.155   6.249 -0.1575  1.9018 -0.4706
   36MOL   H29513665   0.645   4.326   6.380 -0.9164  0.8092  0.2148
   36MOL   H29613666   0.492   4.323   6.322  1.0300  1.8197  1.4457
   36MOL   H29713667   0.415   4.173   6.472 -0.0713  0.0405 -2.0250
   36MOL   H29813668   0.566   4.148   6.543 -2.6581  0.0955  0.6185
   36MOL   H29913669   0.634   3.992   6.417 -0.2950 -2.0210 -1.7863
   36MOL   H30013670   0.422   3.914   6.535 -0.2877  0.1140 -0.1270
   36MOL   H30113671   0.451   3.820   6.387  0.6769  0.2042 -0.0599
   36MOL   H30213672   0.272   3.942   6.283 -0.7214 -2.2563  0.4359
   36MOL   H30313673   0.254   4.058   6.418  0.1219  0.3791 -1.8422
   36MOL   H30413674   0.446   4.045   6.191 -0.6912  0.0180  2.3616
   36MOL   H30513675   0.586   3.954   6.176 -2.7252 -0.4697 -2.4454
   36MOL   C30613676   0.160   3.868   6.435  0.5544  0.0376 -0.0776
   36MOL   C30713677   0.018   3.922   6.410 -0.4415  0.6422 -0.1091
   36MOL   C30813678   7.566   3.812   6.411  0.1676  0.5315  0.2248
   36MOL   C30913679   0.010   3.686   6.404 -0.4585  0.7029  0.0954
   36MOL   C31013680   7.605   3.575   6.313 -0.3255  0.7402  0.4008
   36MOL   C31113681   0.027   3.432   6.338 -0.2977 -0.4605  0.5931
   36MOL   C31213682   0.153   3.734   6.380 -0.0639  0.8089  0.7976
   36MOL   H31313683   0.164   3.848   6.542  1.9617  2.7271  0.4255
   36MOL   H31413684   7.641   4.002   6.480  1.6284  1.1028  0.1097
   36MOL   H31513685   0.013   3.975   6.314  0.6484 -1.3017 -1.2689
   36MOL   H31613686   7.497   3.824   6.494  1.0509  1.4109  0.8293
   36MOL   H31713687   7.503   3.812   6.321  1.4959  1.5506 -0.7244
   36MOL   H31813688   0.007   3.653   6.508 -1.2415 -0.6381 -0.3408
   36MOL   H31913689   7.502   3.567   6.348 -1.1347  0.8694 -1.8839
   36MOL   H32013690   7.606   3.587   6.205  0.4351 -0.5466  0.2526
   36MOL   H32113691   0.132   3.443   6.313 -0.8552  0.9238 -1.2588
   36MOL   H32213692   7.625   3.361   6.271 -1.8283  0.2630  0.9045
   36MOL   H32313693   0.160   3.743   6.271 -3.0373  1.1078  0.5741
   36MOL   H32413694   0.233   3.666   6.406 -2.0642 -1.1941  1.8419
   36MOL   C32513695   0.032   3.396   6.492 -0.1519  0.9772 -0.1677
   36MOL   C32613696   7.545   3.382   6.566 -0.2497 -0.3420  0.2031
   36MOL   C32713697   7.512   3.231   6.569 -0.5825  0.1130  0.2688
   36MOL   C32813698   7.644   3.157   6.575  0.2727 -0.4417  0.3206
   36MOL   C32913699   0.027   3.125   6.718  0.0019  0.2845 -0.7694
   36MOL   C33013700   0.158   3.058   6.761  0.4341 -0.6506  0.0191
   36MOL   C33113701   0.096   3.256   6.508  0.2942 -0.2235 -0.0350
   36MOL   H33213702   0.095   3.462   6.552  1.4195 -2.6076  2.2999
   36MOL   H33313703   7.477   3.444   6.508 -1.4455 -1.2908  0.5817
   36MOL   H33413704   7.545   3.428   6.665 -1.2722  2.5078 -1.0604
   36MOL   H33513705   7.444   3.211   6.651 -0.5805 -1.1855 -0.0299
   36MOL   H33613706   7.462   3.215   6.473  1.1447  0.9679 -0.8161
   36MOL   H33713707   7.640   3.061   6.524  0.2804 -0.3940  0.2309
   36MOL   H33813708   0.023   3.223   6.766  1.5471 -0.2240  0.4614
   36MOL   H33913709   7.592   3.067   6.760  0.3599  0.5982  0.3966
   36MOL   H34013710   0.240   3.126   6.739 -0.1913  0.7002  1.7668
   36MOL   H34113711   0.154   3.064   6.869  0.3159 -0.1707 -0.0122
   36MOL   H34213712   0.131   3.216   6.413  0.3768 -0.5718  0.1396
   36MOL   H34313713   0.185   3.253   6.570  0.3469  0.4257 -0.0813
   36MOL   C34413714   0.167   2.908   6.737  0.1617 -0.1297  0.5058
   36MOL   C34513715   0.264   2.841   6.830  0.0721  1.1377 -0.1164
   36MOL   C34613716   0.300   2.716   6.757  0.6428 -0.2718 -0.2766
   36MOL   C34713717   0.297   2.748   6.610  0.5639  0.5962  0.1552
   36MOL   C34813718   0.268   2.633   6.503  0.6138  0.4875  0.2889
   36MOL   C34913719   0.131   2.557   6.523  0.3596 -0.4258 -0.0108
   36MOL   C35013720   0.214   2.874   6.591  0.0035 -0.5851  0.1327
   36MOL   H35113721   0.082   2.841   6.747  0.7798 -0.6461  2.3652
   36MOL   H35213722   0.228   2.833   6.933 -3.3885  1.4726 -1.2177
   36MOL   H35313723   0.347   2.910   6.845  0.1399  0.8778  0.7502
   36MOL   H35413724   0.400   2.684   6.788  0.2277 -1.2082  0.1237
   36MOL   H35513725   0.228   2.638   6.780  0.8696 -0.0854  1.1196
   36MOL   H35613726   0.399   2.772   6.579  1.0109 -0.5601  0.7023
   36MOL   H35713727   0.294   2.675   6.406 -1.3189  0.5303 -0.2349
   36MOL   H35813728   0.338   2.550   6.515 -0.6009 -0.6220 -0.2382
   36MOL   H35913729   0.048   2.628   6.525  0.2465 -0.5249 -1.2626
   36MOL   H36013730   0.132   2.503   6.618 -2.2558 -0.7946 -0.1310
   36MOL   H36113731   0.284   2.950   6.556  0.0189 -0.6032  0.1246
   36MOL   H36213732   0.135   2.854   6.519  0.6117 -1.7748 -0.2294
   36MOL   C36313733   0.099   2.459   6.413  0.1040 -0.5625  0.2007
   36MOL   C36413734   0.019   2.522   6.301  0.1462  0.9019  0.4185
   36MOL   C36513735   7.568   2.426   6.249  0.5723  0.4408 -0.1408
   36MOL   C36613736   7.589   2.289   6.328 -0.5557  0.0502  0.4323
   36MOL   C36713737   7.449   2.213   6.357 -0.7782  0.0974 -0.1182
   36MOL   C36813738   7.394   2.147   6.236 -0.5198 -0.4731 -0.2621
   36MOL   C36913739   0.013   2.334   6.454  0.2923  0.1791  0.2471
   36MOL   H37013740   0.186   2.410   6.370 -2.3458 -1.9724 -3.3880
   36MOL   H37113741   7.602   2.601   6.339  0.0583  0.2560  1.6237
   36MOL   H37213742   0.091   2.554   6.226 -0.1479 -1.6319 -1.0040
   36MOL   H37313743   7.470   2.455   6.287  0.0943  0.7783 -1.5737
   36MOL   H37413744   7.580   2.423   6.141 -1.6815 -0.9277 -0.3851
   36MOL   H37513745   0.016   2.224   6.283 -0.1542  0.7764  0.0436
   36MOL   H37613746   7.461   2.133   6.431 -2.6960  0.9293  1.1440
   36MOL   H37713747   7.376   2.285   6.397  0.0830  0.1478  1.4179
   36MOL   H37813748   7.477   2.082   6.207 -1.1379 -2.5556  2.3762
   36MOL   H37913749   7.375   2.217   6.155  2.6227  0.7371 -0.0293
   36MOL   H38013750   7.586   2.353   6.532  0.1067 -2.0470  0.6311
   36MOL   H38113751   0.072   2.251   6.490  0.6269 -0.2573 -1.2772
   36MOL   H38213752   7.303   2.090   6.254 -0.5482 -0.8008 -1.4322
   37MOL     C113753   5.253   6.511   2.940 -0.3007 -0.0798  0.2622
   37MOL     C213754   5.190   6.515   3.075  0.2944 -0.4425  0.2778
   37MOL     C313755   5.073   6.617   3.065  0.3852  0.4113  0.3442
   37MOL     C413756   5.081   6.681   2.930 -0.2886 -1.0346 -0.2794
   37MOL     C513757   5.063   6.838   2.929 -0.5243 -0.2170  0.3024
   37MOL     C613758   5.061   6.900   2.792 -0.7655 -0.4998  0.3518
   37MOL     C713759   5.220   6.643   2.878 -0.3053 -0.7731  0.3484
   37MOL     H813760   5.360   6.502   2.958 -0.3731  0.0360  0.7409
   37MOL     H913761   5.266   6.562   3.137 -0.2688  2.3499 -1.0758
   37MOL    H1013762   5.151   6.420   3.112 -0.9792  0.5870  1.6234
   37MOL    H1113763   4.977   6.566   3.068  0.9320 -0.5291  2.4743
   37MOL    H1213764   5.094   6.684   3.148  0.6554 -0.9584  1.4111
   37MOL    H1313765   5.016   6.631   2.859 -1.7908  3.7792 -2.5197
   37MOL    H1413766   4.969   6.852   2.983 -0.2061 -0.5885  0.9692
   37MOL    H1513767   5.123   6.896   2.999 -0.9663 -1.6004  1.8918
   37MOL    H1613768   5.143   6.873   2.726  0.0560  0.1373  1.1026
   37MOL    H1713769   4.963   6.882   2.746 -0.5761 -0.1133 -0.2143
   37MOL    H1813770   5.221   6.634   2.770  0.0103 -2.6101  0.4876
   37MOL    H1913771   5.297   6.713   2.912 -0.0644 -1.6725  1.7032
   37MOL    H2013772   5.218   6.430   2.876  2.5634 -2.6474  1.8399
   37MOL    C2113773   5.070   7.056   2.800  0.5763 -0.2130 -0.0059
   37MOL    C2213774   5.209   7.109   2.846 -0.3901 -0.0163  0.5549
   37MOL    C2313775   5.232   7.246   2.785  0.4175  0.1283 -0.5164
   37MOL    C2413776   5.122   7.260   2.679 -0.3446 -0.5380  0.5717
   37MOL    C2513777   5.167   7.344   2.558  0.5119 -0.2230 -0.1574
   37MOL    C2613778   5.211   7.488   2.584  0.7328 -0.0774  0.1169
   37MOL    C2713779   5.056   7.123   2.662 -0.5426 -0.6662 -0.1969
   37MOL    H2813780   4.995   7.095   2.869  1.6262  2.8406 -0.5087
   37MOL    H2913781   5.220   7.095   2.954 -0.0026 -2.3010  0.2301
   37MOL    H3013782   5.293   7.047   2.816 -0.3653 -0.3755  1.3424
   37MOL    H3113783   5.232   7.325   2.860  0.0352  0.6354 -1.0476
   37MOL    H3213784   5.328   7.237   2.735  0.1750  0.9102 -1.1395
   37MOL    H3313785   5.043   7.326   2.715  1.2061  0.7313  1.6881
   37MOL    H3413786   5.076   7.360   2.500 -0.9905 -0.6653  2.0132
   37MOL    H3513787   5.231   7.286   2.492  0.1907 -2.1089  1.1332
   37MOL    H3613788   5.152   7.524   2.668 -1.5452 -0.3349 -1.3116
   37MOL    H3713789   5.186   7.543   2.493  1.3805  0.2377  0.1251
   37MOL    H3813790   4.953   7.131   2.626 -0.4124  0.8269 -0.2581
   37MOL    H3913791   5.107   7.078   2.577  0.7733  0.9205 -0.2677
   37MOL    C4013792   5.355   7.511   2.621  0.5191  0.4967  0.2275
   37MOL    C4113793   5.453   7.456   2.509 -0.7382 -0.5915 -0.9010
   37MOL    C4213794   5.581   7.529   2.556  0.6589  0.3664  0.7731
   37MOL    C4313795   5.538   0.021   2.604  0.7642 -0.0920 -0.4843
   37MOL    C4413796   5.634   0.072   2.716  0.7199 -0.1178 -0.4136
   37MOL    C4513797   5.765   0.115   2.658  0.5221  0.0633  0.3081
   37MOL    C4613798   5.393   0.008   2.640  0.0940  0.1833 -0.3180
   37MOL    H4713799   5.390   7.458   2.710  1.7247  0.0833 -0.4812
   37MOL    H4813800   5.428   7.488   2.408 -0.0170 -1.6867 -1.4357
   37MOL    H4913801   5.455   7.347   2.500  0.4623 -0.6520 -0.0917
   37MOL    H5013802   5.620   7.473   2.641  0.8572 -0.1487  0.3504
   37MOL    H5113803   5.671   7.525   2.494 -0.2808  0.1538 -0.5813
   37MOL    H5213804   5.538   0.091   2.520 -0.0306 -0.4803 -0.8078
   37MOL    H5313805   5.598   0.161   2.768 -1.1249 -0.4895 -1.0103
   37MOL    H5413806   5.637   7.640   2.791  2.4207  1.3764  1.1365
   37MOL    H5513807   5.734   0.183   2.578 -1.4341 -1.9632 -0.7076
   37MOL    H5613808   5.818   0.033   2.609 -0.6830 -0.8705  0.5328
   37MOL    H5713809   5.370   0.047   2.739  2.0752 -1.6436  0.9009
   37MOL    H5813810   5.343   0.067   2.563  1.5913  1.7529 -0.1245
   37MOL    C5913811   5.865   0.159   2.770 -0.0191 -0.3751 -0.2019
   37MOL    C6013812   6.009   0.207   2.725  0.8090  0.4010  0.6502
   37MOL    C6113813   6.057   0.287   2.836 -0.8292 -0.4115  0.0935
   37MOL    C6213814   5.930   0.367   2.874 -0.0455  0.0635  0.3615
   37MOL    C6313815   5.944   0.432   3.010  0.2122 -0.1018  0.2516
   37MOL    C6413816   5.843   0.546   3.028  0.5701  0.3716  0.5697
   37MOL    C6513817   5.808   0.280   2.853  0.1023  0.3572  0.0541
   37MOL    H6613818   5.872   0.078   2.842 -1.2754 -0.3813 -0.0729
   37MOL    H6713819   6.084   0.133   2.697  1.5635  0.7526  1.6903
   37MOL    H6813820   6.006   0.269   2.635  0.9648  0.5456  0.7433
   37MOL    H6913821   6.084   0.222   2.920 -0.5088 -0.9549 -0.4287
   37MOL    H7013822   6.136   0.356   2.808 -0.0765 -1.2169  0.2150
   37MOL    H7113823   5.918   0.449   2.803 -1.5031  0.7914  1.4230
   37MOL    H7213824   6.049   0.462   3.012 -0.0046  0.7407 -0.6517
   37MOL    H7313825   5.948   0.356   3.088 -0.1212  0.9706  1.3089
   37MOL    H7413826   5.874   0.628   2.963  2.8041 -0.4239  0.5934
   37MOL    H7513827   5.748   0.523   2.979 -0.4885  2.0093  1.7656
   37MOL    H7613828   5.768   0.242   2.946 -0.2068  0.4718 -0.0321
   37MOL    H7713829   5.730   0.330   2.795  0.0875  1.4204  0.9662
   37MOL    C7813830   5.809   0.589   3.170 -0.6494  0.5290  0.2735
   37MOL    C7913831   5.710   0.701   3.171  0.7201 -0.7038 -1.0306
   37MOL    C8013832   5.654   0.707   3.312  0.2572  0.6123  0.0424
   37MOL    C8113833   5.685   0.561   3.377 -0.5868 -0.1689  0.3553
   37MOL    C8213834   5.570   0.491   3.439 -0.0992  0.0991 -0.6038
   37MOL    C8313835   5.602   0.366   3.522 -0.0262 -0.5820  0.2567
   37MOL    C8413836   5.758   0.479   3.261  0.5713 -0.4546  0.2202
   37MOL    H8513837   5.901   0.626   3.215  1.3312 -3.0532 -0.6876
   37MOL    H8613838   5.759   0.797   3.155 -1.0288  0.0662 -1.9626
   37MOL    H8713839   5.627   0.686   3.102  0.8324  0.6739 -1.4966
   37MOL    H8813840   5.697   0.781   3.380 -0.3921  1.8762 -0.9181
   37MOL    H8913841   5.547   0.728   3.316  0.5232  2.2530 -1.0423
   37MOL    H9013842   5.764   0.576   3.451  0.7083 -1.5656 -0.7153
   37MOL    H9113843   5.501   0.464   3.359  0.3022 -0.0726 -0.8969
   37MOL    H9213844   5.522   0.558   3.511  0.7546  0.5665 -0.4613
   37MOL    H9313845   5.660   0.300   3.459  0.9378 -0.0479  0.5793
   37MOL    H9413846   5.510   0.310   3.542 -0.2744 -0.1370  0.3703
   37MOL    H9513847   5.680   0.428   3.204 -1.8363  2.6459  0.6434
   37MOL    H9613848   5.833   0.406   3.293  0.7340 -0.0832  0.6899
   37MOL    C9713849   5.668   0.395   3.658  0.3892 -1.1777 -0.7742
   37MOL    C9813850   5.695   0.273   3.745 -0.1527  0.2555 -0.5856
   37MOL    C9913851   5.649   0.305   3.890 -0.3557  0.1830  0.4086
   37MOL   C10013852   5.628   0.459   3.897  0.0375 -0.2713  0.3851
   37MOL   C10113853   5.529   0.493   4.010  0.2263  0.1693  0.3262
   37MOL   C10213854   5.526   0.639   4.042 -1.1781  0.7009  0.1494
   37MOL   C10313855   5.592   0.490   3.748  0.0892  0.7698 -0.5221
   37MOL   H10413856   5.764   0.442   3.637  0.3883 -0.9354 -0.2341
   37MOL   H10513857   5.642   0.184   3.712  1.8757 -1.7345  1.2983
   37MOL   H10613858   5.801   0.250   3.738  0.0360  1.3677 -1.7269
   37MOL   H10713859   5.555   0.251   3.898 -1.0740  1.1682 -1.2935
   37MOL   H10813860   5.726   0.260   3.954  0.2003  1.6322  0.7727
   37MOL   H10913861   5.720   0.513   3.921 -0.0755 -0.6231  1.6798
   37MOL   H11013862   5.428   0.468   3.977 -0.2908  0.2850  1.7872
   37MOL   H11113863   5.549   0.426   4.094  3.2410  0.5507 -0.0061
   37MOL   H11213864   5.627   0.679   4.052 -1.1549  0.5930  0.3451
   37MOL   H11313865   5.473   0.686   3.959  2.7090  3.2328 -1.0557
   37MOL   H11413866   5.487   0.464   3.743  0.1414  0.4468 -0.0431
   37MOL   H11513867   5.602   0.595   3.721 -0.1803  0.7780 -0.5909
   37MOL   C11613868   5.457   0.670   4.172 -0.6063 -0.1411  0.6031
   37MOL   C11713869   5.494   0.813   4.225  0.1353  0.3628 -0.6322
   37MOL   C11813870   5.389   0.840   4.337  0.4493 -0.4213 -0.1175
   37MOL   C11913871   5.258   0.781   4.272 -0.3466  0.1827 -0.0463
   37MOL   C12013872   5.163   0.885   4.206 -0.0931 -0.2469  0.4943
   37MOL   C12113873   5.022   0.834   4.160 -0.0869 -0.0411 -0.2588
   37MOL   C12213874   5.301   0.663   4.181  0.1943 -0.1752 -0.9918
   37MOL   H12313875   5.491   0.600   4.248  0.7120  2.5606  2.5911
   37MOL   H12413876   5.485   0.883   4.142  0.0466 -0.0487 -0.9703
   37MOL   H12513877   5.593   0.841   4.263  0.8797  0.0318 -2.3136
   37MOL   H12613878   5.377   0.943   4.372 -1.3128 -1.0344  1.1394
   37MOL   H12713879   5.413   0.794   4.432 -0.1925  1.7444  1.1372
   37MOL   H12813880   5.213   0.734   4.359 -0.6783  1.7834  0.6565
   37MOL   H12913881   5.217   0.923   4.119  0.8579  4.1216  2.8496
   37MOL   H13013882   5.158   0.974   4.268 -0.4705  1.6217 -2.1697
   37MOL   H13113883   5.001   0.742   4.214 -0.1820  1.6346  2.6379
   37MOL   H13213884   5.022   0.804   4.055  1.0166 -1.5458  0.1688
   37MOL   H13313885   5.273   0.568   4.227 -0.4811  1.9837  3.3539
   37MOL   H13413886   5.257   0.672   4.082 -0.0100  0.2228 -0.8624
   37MOL   C13513887   4.902   0.935   4.182 -0.1803 -0.4814  0.2779
   37MOL   C13613888   4.927   1.072   4.131 -0.4021  0.3237  0.6589
   37MOL   C13713889   4.790   1.132   4.114  0.6753 -0.6768 -0.0753
   37MOL   C13813890   4.707   1.019   4.056 -0.3625  0.4455  0.6262
   37MOL   C13913891   4.559   1.032   4.091  0.7592  0.0405 -0.3440
   37MOL   C14013892   4.483   1.135   4.005  0.0995  0.0236  0.4954
   37MOL   C14113893   4.762   0.892   4.130 -0.0257  0.7302  0.0798
   37MOL   H14213894   4.883   0.945   4.288 -1.0486 -0.2774  0.1049
   37MOL   H14313895   4.989   1.139   4.191 -0.6519  0.1122  1.1605
   37MOL   H14413896   4.980   1.059   4.037  0.4877  1.8516  0.9390
   37MOL   H14513897   4.753   1.163   4.211  1.4754 -0.3322  0.1288
   37MOL   H14613898   4.792   1.220   4.051 -0.6624 -0.5929 -0.0008
   37MOL   H14713899   4.729   1.008   3.950  2.2059  0.0461  1.1846
   37MOL   H14813900   4.550   1.071   4.192  1.2671 -0.8792  0.0641
   37MOL   H14913901   4.505   0.938   4.091 -1.9130  1.5044  2.1464
   37MOL   H15013902   4.528   1.234   3.998  1.7214 -0.6728  0.8592
   37MOL   H15113903   4.480   1.105   3.901  0.9455  0.2376  0.4058
   37MOL   H15213904   4.757   0.805   4.065  0.9433 -0.7694  1.9573
   37MOL   H15313905   4.700   0.867   4.216  0.4878  1.9723  0.8373
   37MOL   C15413906   4.338   1.153   4.060 -0.7674 -0.9522  0.4988
   37MOL   C15513907   4.243   1.039   4.024  0.4967 -0.2374 -0.9110
   37MOL   C15613908   4.137   1.106   3.933  0.2152  0.2373 -1.2109
   37MOL   C15713909   4.127   1.249   3.985  0.0816 -0.2003  0.4450
   37MOL   C15813910   4.053   1.339   3.882  0.2997  1.0053  0.8572
   37MOL   C15913911   3.900   1.369   3.911  0.6259 -0.1764 -0.0950
   37MOL   C16013912   4.274   1.281   4.005  0.1616  0.1811  0.0466
   37MOL   H16113913   4.336   1.166   4.168 -0.0931  1.4472  0.2692
   37MOL   H16213914   4.296   0.957   3.976  1.2706 -0.2106 -0.1275
   37MOL   H16313915   4.203   0.999   4.118 -1.8107  2.8616 -0.4896
   37MOL   H16413916   4.169   1.089   3.831  2.6279 -1.0090 -0.2821
   37MOL   H16513917   4.041   1.054   3.924 -0.8906  1.9771  0.2947
   37MOL   H16613918   4.065   1.240   4.074 -1.1402 -1.7738 -0.5329
   37MOL   H16713919   4.049   1.292   3.784  0.8535  1.5200  0.5868
   37MOL   H16813920   4.104   1.434   3.869  0.2119  0.9295 -0.0990
   37MOL   H16913921   3.858   1.283   3.963 -4.6529  2.2488 -0.0464
   37MOL   H17013922   3.909   1.450   3.983  2.0826 -0.0188 -0.4469
   37MOL   H17113923   4.288   1.364   4.075 -0.3575 -0.6222  1.1220
   37MOL   H17213924   4.329   1.306   3.914  0.5842  0.5049  0.3894
   37MOL   C17313925   3.820   1.412   3.794  0.1540  0.6571  0.0176
   37MOL   C17413926   3.676   1.429   3.827 -0.0286  0.0160 -0.6509
   37MOL   C17513927   3.628   1.547   3.745  0.4081 -0.2010  0.0612
   37MOL   C17613928   3.738   1.583   3.646 -0.4007  0.1609 -0.2763
   37MOL   C17713929   3.726   1.732   3.605  0.5047  0.0020  0.0858
   37MOL   C17813930   3.830   1.780   3.505 -0.7524  0.8728 -0.5496
   37MOL   C17913931   3.855   1.554   3.742  0.6331  0.3971 -0.2069
   37MOL   H18013932   3.830   1.338   3.714  0.1917 -0.5455  1.1156
   37MOL   H18113933   3.662   1.452   3.933  0.7866 -0.1187 -0.5048
   37MOL   H18213934   3.618   1.341   3.799  0.6871 -0.9799  0.8695
   37MOL   H18313935   3.545   1.526   3.678  0.7064  1.2444 -0.7723
   37MOL   H18413936   3.614   1.637   3.805  2.0637  3.0440 -4.1496
   37MOL   H18513937   3.732   1.514   3.562 -2.4306 -0.7868  0.6241
   37MOL   H18613938   3.724   1.792   3.696  2.8112  1.3853 -0.7608
   37MOL   H18713939   3.628   1.740   3.558  0.2118  1.6682  0.9469
   37MOL   H18813940   3.819   1.723   3.413  1.0565  0.6815 -0.6655
   37MOL   H18913941   3.929   1.751   3.541 -0.8099  1.1230 -0.1887
   37MOL   H19013942   3.845   1.621   3.828 -0.1241  1.3606 -1.0375
   37MOL   H19113943   3.947   1.581   3.690  1.5370  0.9199  1.5876
   37MOL   C19213944   3.838   1.928   3.469  0.7076  0.0118 -0.5366
   37MOL   C19313945   3.751   1.977   3.352  0.6324 -0.0760  0.6176
   37MOL   C19413946   3.823   2.088   3.282 -0.0255 -0.0923 -0.2902
   37MOL   C19513947   3.963   2.040   3.285 -0.5129  0.2015 -0.6276
   37MOL   C19613948   4.072   2.141   3.256 -0.4327  0.2334  0.1045
   37MOL   C19713949   4.215   2.077   3.253  0.4446 -0.0008  0.2669
   37MOL   C19813950   3.980   1.965   3.424  0.3877  0.7717 -0.1183
   37MOL   H19913951   3.819   1.996   3.552 -0.0040  2.9184 -2.9764
   37MOL   H20013952   3.736   1.898   3.278 -0.0324 -1.3104  2.0378
   37MOL   H20113953   3.652   2.008   3.386  0.6713  1.1832 -0.3890
   37MOL   H20213954   3.824   2.185   3.330  0.9497  1.2707 -2.9734
   37MOL   H20313955   3.786   2.096   3.180  1.1507  1.0865 -0.6373
   37MOL   H20413956   3.976   1.955   3.217  2.1680  0.7996 -0.9090
   37MOL   H20513957   4.076   2.217   3.334 -0.4219  0.7645 -0.4143
   37MOL   H20613958   4.047   2.185   3.159  2.1269  0.2605 -0.5700
   37MOL   H20713959   4.240   2.008   3.172  1.4891  1.1345 -0.3980
   37MOL   H20813960   4.230   2.011   3.339  0.9926  0.8380  0.8171
   37MOL   H20913961   4.021   2.035   3.496  0.2758  0.6473  0.0655
   37MOL   H21013962   4.047   1.880   3.409 -1.5931 -0.7859 -0.5195
   37MOL   C21113963   4.330   2.176   3.252 -0.0410  0.2138  0.0606
   37MOL   C21213964   4.362   2.237   3.113 -0.9601  0.0592 -0.5248
   37MOL   C21313965   4.495   2.307   3.145 -0.7880  0.2004 -0.1068
   37MOL   C21413966   4.559   2.246   3.261 -0.1564  0.1201 -0.2527
   37MOL   C21513967   4.712   2.216   3.231 -0.2452  0.2137 -0.3504
   37MOL   C21613968   4.788   2.346   3.199  0.2339 -0.4943 -0.5978
   37MOL   C21713969   4.471   2.126   3.300  0.1617 -0.3596 -0.2443
   37MOL   H21813970   4.316   2.262   3.316 -0.1246  0.0666  0.2406
   37MOL   H21913971   4.374   2.156   3.042 -1.2138 -1.1340  0.7837
   37MOL   H22013972   4.292   2.307   3.065  0.6629  2.5507  0.6214
   37MOL   H22113973   4.555   2.309   3.054 -1.6372  0.3101 -0.6711
   37MOL   H22213974   4.486   2.411   3.173 -2.2715 -0.3112  1.3620
   37MOL   H22313975   4.542   2.324   3.334 -0.2414  0.6598 -0.8473
   37MOL   H22413976   4.720   2.158   3.139 -0.3165 -2.1042  1.0747
   37MOL   H22513977   4.755   2.163   3.316 -1.4977 -1.2758 -0.6122
   37MOL   H22613978   4.763   2.393   3.104  0.3375  0.7791 -0.0008
   37MOL   H22713979   4.768   2.409   3.285  0.5415  1.1894 -1.7318
   37MOL   H22813980   4.480   2.091   3.403  0.8178 -1.2402 -0.6043
   37MOL   H22913981   4.494   2.042   3.235  3.8851  0.1095  0.3833
   37MOL   C23013982   4.943   2.333   3.201 -0.4901 -0.0532 -0.0074
   37MOL   C23113983   5.001   2.311   3.343 -0.3631 -0.4466 -0.1792
   37MOL   C23213984   5.137   2.387   3.352  0.2145 -0.6084 -0.0072
   37MOL   C23313985   5.127   2.493   3.248 -0.6931  0.0844 -0.2597
   37MOL   C23413986   5.262   2.530   3.191  0.0299 -0.6130 -0.4154
   37MOL   C23513987   5.266   2.671   3.137 -0.2597 -0.1555 -0.3522
   37MOL   C23613988   5.016   2.459   3.149  0.0014 -0.0197 -0.0570
   37MOL   H23713989   4.972   2.253   3.133 -2.5076 -0.1213 -0.8362
   37MOL   H23813990   4.934   2.358   3.416  0.9131  3.4914 -1.3989
   37MOL   H23913991   5.001   2.208   3.376  1.8878 -0.3089  0.2988
   37MOL   H24013992   5.212   2.313   3.322 -0.9790 -2.5978  1.8244
   37MOL   H24113993   5.165   2.412   3.454  0.9686 -1.3295 -0.0300
   37MOL   H24213994   5.093   2.587   3.292  2.4355  1.5901 -0.9801
   37MOL   H24313995   5.287   2.459   3.113 -1.8416 -1.6499 -0.1181
   37MOL   H24413996   5.343   2.516   3.262 -0.5324 -1.7997 -0.0039
   37MOL   H24513997   5.175   2.694   3.081  0.5324 -0.7702 -1.9450
   37MOL   H24613998   5.271   2.744   3.217  1.1429 -0.4287 -0.1852
   37MOL   H24713999   5.071   2.440   3.056  2.8652  3.2498  0.8534
   37MOL   H24814000   4.943   2.538   3.129  1.6560  2.0943  1.9639
   37MOL   C24914001   5.390   2.703   3.053  0.3656  0.3932 -0.4377
   37MOL   C25014002   5.405   2.844   3.003 -0.8562  0.0740  0.4654
   37MOL   C25114003   5.541   2.841   2.940 -0.1831  0.6232  0.0416
   37MOL   C25214004   5.621   2.760   3.056 -0.4968  0.3290  0.3090
   37MOL   C25314005   5.740   2.690   2.984 -0.3451 -0.3643  0.3927
   37MOL   C25414006   5.840   2.631   3.084  0.2339 -0.3025 -0.4699
   37MOL   C25514007   5.522   2.665   3.117  1.0814  0.5053 -0.0755
   37MOL   H25614008   5.388   2.637   2.966  1.2354  1.0816 -0.9999
   37MOL   H25714009   5.325   2.860   2.932 -2.7715  1.0688  2.7795
   37MOL   H25814010   5.398   2.920   3.081  1.1878  1.4680 -0.6592
   37MOL   H25914011   5.593   2.933   2.914 -1.4105  1.0376 -0.9623
   37MOL   H26014012   5.548   2.789   2.844  3.3713  0.0504  0.5250
   37MOL   H26114013   5.650   2.841   3.124  0.8040 -0.8254  1.1566
   37MOL   H26214014   5.794   2.770   2.933 -1.0911 -0.1116 -0.0203
   37MOL   H26314015   5.713   2.616   2.909 -1.6978  0.1084  0.3984
   37MOL   H26414016   5.792   2.555   3.145 -0.5904 -0.5779 -1.4477
   37MOL   H26514017   5.871   2.711   3.152  1.3382 -0.6406 -0.5540
   37MOL   H26614018   5.522   2.690   3.223  1.7748 -0.3507  0.1350
   37MOL   H26714019   5.546   2.560   3.099  3.3415  0.9855 -0.0955
   37MOL   C26814020   5.970   2.574   3.031 -0.0369 -0.3195  1.1348
   37MOL   C26914021   5.946   2.476   2.917 -0.7269  0.8099 -0.1543
   37MOL   C27014022   6.064   2.378   2.935  0.1186  0.5963  0.2667
   37MOL   C27114023   6.138   2.427   3.056 -0.4807 -0.2120 -0.2771
   37MOL   C27214024   6.199   2.318   3.141 -0.0224 -0.1703  0.1813
   37MOL   C27314025   6.245   2.365   3.281 -0.2671  0.3049 -0.2199
   37MOL   C27414026   6.049   2.513   3.135  0.2902  0.0300  0.1573
   37MOL   H27514027   6.026   2.658   2.990 -3.2668  1.1511 -0.4358
   37MOL   H27614028   5.864   2.407   2.933 -0.8992  0.5224 -2.1135
   37MOL   H27714029   5.937   2.529   2.822  0.0104 -0.9818 -1.2400
   37MOL   H27814030   6.035   2.273   2.934 -0.4244  0.7427  0.4152
   37MOL   H27914031   6.126   2.382   2.846  1.0317  3.3973  0.9723
   37MOL   H28014032   6.217   2.492   3.017 -3.2001  2.6798 -1.1428
   37MOL   H28114033   6.294   2.287   3.099  0.2694  0.5078  0.3452
   37MOL   H28214034   6.134   2.231   3.153  0.8832 -0.6318  1.8510
   37MOL   H28314035   6.312   2.448   3.260 -2.3270  2.3187  0.9524
   37MOL   H28414036   6.163   2.408   3.340 -0.8170 -1.2723  0.1932
   37MOL   H28514037   5.981   2.460   3.202  1.4045  1.1444  2.2321
   37MOL   H28614038   6.109   2.585   3.192  0.6369  0.5340 -0.8447
   37MOL   C28714039   6.313   2.250   3.361 -0.6368  0.0634 -0.1442
   37MOL   C28814040   6.353   2.303   3.505  0.4824  0.7127 -0.9968
   37MOL   C28914041   6.356   2.183   3.602  0.7183 -0.9232 -0.3984
   37MOL   C29014042   6.256   2.085   3.541  0.2796  0.5245 -0.4521
   37MOL   C29114043   6.140   2.048   3.634  0.9922 -0.0314  0.4029
   37MOL   C29214044   6.025   1.967   3.572 -0.3007 -0.4057  0.5693
   37MOL   C29314045   6.207   2.146   3.408 -0.2112  0.1639 -0.0745
   37MOL   H29414046   6.393   2.197   3.310 -0.5925  0.8798 -0.9159
   37MOL   H29514047   6.452   2.347   3.499  1.3564 -0.7642  1.7907
   37MOL   H29614048   6.297   2.387   3.544  0.1730 -0.0961  0.3135
   37MOL   H29714049   6.335   2.192   3.709  0.2462  1.0350 -0.6202
   37MOL   H29814050   6.455   2.138   3.603  0.2612 -1.9330  1.2968
   37MOL   H29914051   6.318   1.998   3.521  1.2248  1.1318 -0.1792
   37MOL   H30014052   6.105   2.147   3.663  1.8794 -0.1873  2.0764
   37MOL   H30114053   6.171   1.998   3.726  0.7797  0.4132  0.7228
   37MOL   H30214054   5.977   2.032   3.498  0.4121 -0.1208  0.3498
   37MOL   H30314055   5.942   1.957   3.642  0.4309  2.8164  1.9896
   37MOL   H30414056   6.107   2.188   3.421  0.0266 -0.3086  3.9359
   37MOL   H30514057   6.199   2.069   3.331 -0.6536  2.1346 -2.0468
   37MOL   C30614058   6.079   1.831   3.510 -0.5193 -0.6975 -0.2317
   37MOL   C30714059   6.164   1.741   3.595 -0.5922  0.4124  0.0486
   37MOL   C30814060   6.150   1.601   3.536  0.6341 -0.3459 -0.1053
   37MOL   C30914061   6.041   1.612   3.427  0.8373  0.1513  0.4236
   37MOL   C31014062   5.952   1.488   3.413 -0.1777 -0.1836  0.1010
   37MOL   C31114063   5.836   1.484   3.310  0.6482 -0.6569  0.1167
   37MOL   C31214064   5.965   1.740   3.448 -0.1979 -0.3776 -0.4095
   37MOL   H31314065   6.131   1.864   3.419 -0.9943  1.3039  0.1904
   37MOL   H31414066   6.270   1.766   3.601 -0.3480 -0.3269 -1.1210
   37MOL   H31514067   6.138   1.739   3.701  0.9470  0.5516  0.4455
   37MOL   H31614068   6.247   1.591   3.488  0.9063  0.5219  0.2540
   37MOL   H31714069   6.145   1.531   3.619 -0.3595  1.4447  1.3951
   37MOL   H31814070   6.102   1.629   3.339  1.0268  1.8791  0.8607
   37MOL   H31914071   6.021   1.404   3.404 -0.3952 -0.3104 -0.4183
   37MOL   H32014072   5.910   1.476   3.512  1.1303  0.0251  0.6880
   37MOL   H32114073   5.864   1.515   3.209  1.1562 -4.3897 -0.9777
   37MOL   H32214074   5.762   1.556   3.345 -0.8521 -2.6445  1.1455
   37MOL   H32314075   5.886   1.739   3.523 -1.2896 -2.3695 -1.5402
   37MOL   H32414076   5.918   1.780   3.359 -0.9297  1.3829  0.7478
   37MOL   C32514077   5.790   1.341   3.281  0.2610 -0.1737 -0.2392
   37MOL   C32614078   5.760   1.261   3.407 -0.1762  0.1673 -0.3893
   37MOL   C32714079   5.662   1.153   3.373 -0.6005 -0.0015  0.6060
   37MOL   C32814080   5.582   1.211   3.255  0.0211 -0.2028 -0.5570
   37MOL   C32914081   5.550   1.104   3.145  0.2077  0.2623  0.3646
   37MOL   C33014082   5.468   1.154   3.023 -0.2092 -0.1874  0.0979
   37MOL   C33114083   5.662   1.331   3.203 -0.7698 -0.4974  0.3986
   37MOL   H33214084   5.867   1.281   3.232  0.5582 -0.5668  0.7013
   37MOL   H33314085   5.708   1.336   3.467  1.3268  1.0918 -0.2346
   37MOL   H33414086   5.843   1.233   3.472  0.9872 -1.4962 -2.5579
   37MOL   H33514087   5.708   1.066   3.325  1.5533  1.3712  0.0953
   37MOL   H33614088   5.602   1.121   3.458 -2.4858  0.6450 -0.4738
   37MOL   H33714089   5.490   1.250   3.299  0.9910 -1.3360  2.6143
   37MOL   H33814090   5.640   1.057   3.106  0.4067  0.9692 -0.0489
   37MOL   H33914091   5.488   1.021   3.180 -3.3382  1.8243 -1.8335
   37MOL   H34014092   5.390   1.213   3.070  0.7086 -0.0781  1.5199
   37MOL   H34114093   5.530   1.224   2.968  0.3143 -2.7394 -2.6923
   37MOL   H34214094   5.609   1.423   3.225  0.8107  0.9697 -1.6922
   37MOL   H34314095   5.681   1.335   3.095 -0.2871  1.5488  0.5516
   37MOL   C34414096   5.399   1.048   2.936 -0.3801 -0.5590  0.1355
   37MOL   C34514097   5.488   0.950   2.867  0.1100 -0.2818  0.3988
   37MOL   C34614098   5.412   0.895   2.741  0.8479  0.6732 -0.2046
   37MOL   C34714099   5.326   1.014   2.691 -0.4235  0.8780  0.6314
   37MOL   C34814100   5.188   0.993   2.639 -0.5187  0.5611  0.0584
   37MOL   C34914101   5.180   0.923   2.505  0.0362  0.6036  0.6219
   37MOL   C35014102   5.323   1.109   2.823  0.3382 -0.1840  0.9593
   37MOL   H35114103   5.328   0.991   2.997  0.8652 -3.8977 -1.4338
   37MOL   H35214104   5.530   0.881   2.940 -0.3568 -1.6529 -0.6030
   37MOL   H35314105   5.575   1.009   2.836 -0.0109 -0.9786 -1.3716
   37MOL   H35414106   5.464   0.846   2.659 -0.1158 -1.0641  0.1765
   37MOL   H35514107   5.352   0.808   2.770  1.0450  1.0606  1.3945
   37MOL   H35614108   5.384   1.063   2.613  0.4610 -0.3282  0.5114
   37MOL   H35714109   5.130   0.930   2.706 -0.5901  1.6522  1.0468
   37MOL   H35814110   5.134   1.086   2.622 -0.8265  0.0503 -1.8447
   37MOL   H35914111   5.238   0.831   2.513  1.3793  1.5455  1.9052
   37MOL   H36014112   5.226   0.986   2.429 -0.2861 -0.1359 -0.1999
   37MOL   H36114113   5.369   1.200   2.784  0.2543 -0.9797 -1.0377
   37MOL   H36214114   5.222   1.136   2.854  1.0829  3.1722  0.6135
   37MOL   C36314115   5.036   0.895   2.447 -0.2154 -0.3546 -0.2961
   37MOL   C36414116   4.944   0.811   2.531  0.0345  0.3493  0.2008
   37MOL   C36514117   4.844   0.743   2.427  0.4021 -0.2570  0.2199
   37MOL   C36614118   4.885   0.799   2.287  1.1346 -0.2153  0.2619
   37MOL   C36714119   4.845   0.707   2.169 -0.6728  0.1953  0.6871
   37MOL   C36814120   4.699   0.741   2.127 -1.0260 -0.3833  0.1179
   37MOL   C36914121   5.033   0.822   2.314  0.0906  0.1068  1.0156
   37MOL   H37014122   4.999   0.993   2.417  1.5698  0.0753 -1.1900
   37MOL   H37114123   5.004   0.735   2.582  3.4233  2.2323 -0.7666
   37MOL   H37214124   4.893   0.880   2.598  0.8303  0.7111  0.4487
   37MOL   H37314125   4.855   0.634   2.431 -0.8044 -0.3805  0.3737
   37MOL   H37414126   4.741   0.765   2.456  0.9294 -0.2508  2.1495
   37MOL   H37514127   4.829   0.887   2.258  0.8833 -0.3341  0.3836
   37MOL   H37614128   4.905   0.730   2.081 -1.9290 -1.0317 -0.4818
   37MOL   H37714129   4.857   0.602   2.196  2.3603  0.5563  1.0043
   37MOL   H37814130   4.662   0.670   2.053  0.1090  0.1410 -0.9705
   37MOL   H37914131   4.679   0.835   2.076  0.4023  0.3310  0.8641
   37MOL   H38014132   5.100   0.737   2.305  1.8301  1.4457  0.9335
   37MOL   H38114133   5.060   0.890   2.233 -0.4234 -0.9016 -0.0186
   37MOL   H38214134   4.630   0.729   2.210 -0.8624 -1.1954  0.1448
   38MOL     C114135   4.728   2.172   2.670 -0.3133  0.1559 -0.4579
   38MOL     C214136   4.704   2.207   2.817 -0.3068 -0.8274  0.7642
   38MOL     C314137   4.809   2.132   2.895  0.1547  0.0448 -0.2287
   38MOL     C414138   4.913   2.093   2.795  0.2862 -0.2346 -0.5204
   38MOL     C514139   4.990   1.969   2.852  0.0312 -0.5193  0.3682
   38MOL     C614140   5.105   2.012   2.947 -0.4305  0.2112 -0.1267
   38MOL     C714141   4.838   2.064   2.666 -0.0723 -0.0162 -0.3048
   38MOL     H814142   4.630   2.147   2.630 -0.3734  0.7184 -0.6726
   38MOL     H914143   4.604   2.185   2.853 -1.6900 -0.9391 -3.0037
   38MOL    H1014144   4.716   2.314   2.832  0.2879 -0.9118  0.9361
   38MOL    H1114145   4.851   2.199   2.971 -0.1010  1.0478 -0.9567
   38MOL    H1214146   4.756   2.050   2.942  0.1820  0.3660  0.3690
   38MOL    H1314147   4.979   2.175   2.767 -0.1935  0.8693  1.5252
   38MOL    H1414148   4.925   1.915   2.921 -2.5839  2.2096  0.0966
   38MOL    H1514149   5.027   1.908   2.770 -0.3108 -1.0674  0.6182
   38MOL    H1614150   5.198   1.979   2.901 -0.9339 -1.9723  0.3971
   38MOL    H1714151   5.133   2.117   2.938  3.3530 -0.9168 -2.2003
   38MOL    H1814152   4.891   2.069   2.571 -3.8961  0.9537 -2.4936
   38MOL    H1914153   4.794   1.965   2.669 -1.2685  0.4581 -1.5973
   38MOL    H2014154   4.759   2.268   2.628 -2.0689  0.8745 -0.1466
   38MOL    C2114155   5.094   1.973   3.098  0.1331 -0.2569 -0.5600
   38MOL    C2214156   5.078   1.823   3.127  0.8404 -0.3873 -0.5476
   38MOL    C2314157   5.132   1.801   3.270 -0.8563 -0.2183 -0.2807
   38MOL    C2414158   5.180   1.938   3.322  0.9268 -0.1730  0.2392
   38MOL    C2514159   5.298   1.927   3.430 -0.2392  0.7536  0.1180
   38MOL    C2614160   5.253   1.878   3.567 -0.2597  0.0119 -0.0584
   38MOL    C2714161   5.205   2.015   3.190  0.4426 -0.0376 -0.0772
   38MOL    H2814162   5.005   2.021   3.140  1.3799  2.5325 -1.0003
   38MOL    H2914163   4.971   1.804   3.128  0.4073  1.8647  1.9733
   38MOL    H3014164   5.127   1.757   3.055 -1.2420 -1.1238 -1.3101
   38MOL    H3114165   5.054   1.760   3.333 -1.0692  2.6317  1.3590
   38MOL    H3214166   5.218   1.733   3.263 -0.8756 -0.2162 -0.5390
   38MOL    H3314167   5.096   1.984   3.375  0.2438  0.1487 -1.0857
   38MOL    H3414168   5.336   2.026   3.455 -0.0363  1.1281 -1.6418
   38MOL    H3514169   5.391   1.876   3.403 -1.2092 -2.0056  1.7732
   38MOL    H3614170   5.174   1.804   3.561  1.4517 -1.8783  0.2723
   38MOL    H3714171   5.198   1.964   3.604  0.8974  0.2976  1.0620
   38MOL    H3814172   5.207   2.123   3.204  3.2214 -0.2457  1.4598
   38MOL    H3914173   5.299   1.996   3.137  0.7810 -1.5146  1.0111
   38MOL    C4014174   5.365   1.835   3.667 -0.0202 -0.8555  0.3874
   38MOL    C4114175   5.314   1.812   3.803 -0.4988  0.3526 -0.0809
   38MOL    C4214176   5.435   1.735   3.867  1.3610  0.1554  0.3838
   38MOL    C4314177   5.488   1.643   3.756  0.4817 -0.3816  0.0195
   38MOL    C4414178   5.635   1.596   3.767 -0.2886  0.0898  0.2414
   38MOL    C4514179   5.687   1.571   3.904  0.4293 -0.3309  0.2899
   38MOL    C4614180   5.446   1.708   3.622 -0.2409  0.3028 -0.1195
   38MOL    H4714181   5.431   1.920   3.683 -0.1822 -0.9522  1.6101
   38MOL    H4814182   5.229   1.743   3.805 -1.4687  1.5084 -0.7146
   38MOL    H4914183   5.284   1.905   3.851 -1.7123 -0.0493 -0.0183
   38MOL    H5014184   5.510   1.805   3.905  0.9923 -0.1145  1.6378
   38MOL    H5114185   5.388   1.696   3.957  1.3956 -1.7021 -0.3933
   38MOL    H5214186   5.421   1.558   3.747 -1.9283  1.5411 -0.9419
   38MOL    H5314187   5.661   1.505   3.713  0.4919 -0.8104  2.0944
   38MOL    H5414188   5.699   1.670   3.719 -1.3882  0.2642 -0.9932
   38MOL    H5514189   5.608   1.517   3.957 -0.4872  3.0036  2.4543
   38MOL    H5614190   5.697   1.667   3.953  1.9628 -1.5859  2.4995
   38MOL    H5714191   5.534   1.727   3.561  0.7652  2.4261  1.8732
   38MOL    H5814192   5.380   1.641   3.567 -3.9350  0.7187  3.5045
   38MOL    C5914193   5.831   1.502   3.918  0.3929  0.6824  0.3018
   38MOL    C6014194   5.945   1.594   3.885  0.1897 -0.0114 -0.5678
   38MOL    C6114195   6.067   1.541   3.958 -1.2300 -0.1422 -0.7409
   38MOL    C6214196   5.999   1.494   4.087  0.9715 -0.3175  0.2290
   38MOL    C6314197   6.076   1.385   4.162 -0.3746 -0.2341 -0.7785
   38MOL    C6414198   6.032   1.371   4.310 -0.1477  0.5274 -0.2953
   38MOL    C6514199   5.856   1.458   4.059 -0.2048 -0.2381 -0.4506
   38MOL    H6614200   5.845   1.418   3.851  2.6505  1.4159 -0.1899
   38MOL    H6714201   5.962   1.598   3.777 -1.4921  0.0095 -0.8496
   38MOL    H6814202   5.918   1.695   3.917 -1.5725 -1.0463  1.3100
   38MOL    H6914203   6.124   1.463   3.908 -0.2024  0.7653 -1.0111
   38MOL    H7014204   6.122   1.631   3.984 -1.0563 -0.7371  0.9946
   38MOL    H7114205   5.995   1.585   4.147  1.3453  2.2174 -3.4801
   38MOL    H7214206   6.181   1.410   4.144  0.5620 -2.2265  1.6625
   38MOL    H7314207   6.052   1.293   4.109 -0.0963  0.5099 -2.2124
   38MOL    H7414208   6.036   1.462   4.371 -1.4413  0.8007 -0.6048
   38MOL    H7514209   5.926   1.351   4.325 -0.4906  2.1792 -0.4199
   38MOL    H7614210   5.830   1.352   4.070 -1.1394 -0.0146 -0.4857
   38MOL    H7714211   5.800   1.514   4.134 -0.4925 -0.9323 -0.1363
   38MOL    C7814212   6.125   1.272   4.382  0.4182  0.4269  0.0110
   38MOL    C7914213   6.270   1.320   4.399 -0.4402 -0.0833  0.0421
   38MOL    C8014214   6.299   1.312   4.549  0.9947 -0.2150  0.4667
   38MOL    C8114215   6.204   1.214   4.609  0.6537  0.5077 -0.4428
   38MOL    C8214216   6.185   1.231   4.762  0.3799 -0.4650 -0.6731
   38MOL    C8314217   6.098   1.120   4.823  0.5767 -0.2940 -0.2913
   38MOL    C8414218   6.076   1.244   4.530 -0.7024  0.1784  0.0412
   38MOL    H8514219   6.127   1.178   4.326  1.2106  0.6152 -0.2895
   38MOL    H8614220   6.355   1.276   4.347  0.1940  1.5387 -0.3277
   38MOL    H8714221   6.287   1.421   4.362  1.2992  0.4363  2.1367
   38MOL    H8814222   6.401   1.280   4.571  0.1283 -3.2977  0.3274
   38MOL    H8914223   6.278   1.407   4.597  2.2539 -0.1837  0.9878
   38MOL    H9014224   6.237   1.114   4.580  0.9294 -0.3184  2.5633
   38MOL    H9114225   6.134   1.323   4.787  0.4448 -0.4245 -0.6902
   38MOL    H9214226   6.281   1.237   4.813 -0.1390 -0.2577  0.2841
   38MOL    H9314227   6.130   1.021   4.792  1.0449 -0.4976  0.8052
   38MOL    H9414228   5.995   1.125   4.787  0.3144  0.2028  0.5161
   38MOL    H9514229   6.028   1.335   4.566  3.2060  1.5249  2.1650
   38MOL    H9614230   6.005   1.161   4.538 -1.6519  0.9838 -0.0180
   38MOL    C9714231   6.108   1.128   4.977 -0.2659 -1.2225  0.1563
   38MOL    C9814232   6.251   1.088   5.022  0.5167 -0.2348  0.6058
   38MOL    C9914233   6.241   1.015   5.154  0.4230 -0.2360  0.1035
   38MOL   C10014234   6.100   1.028   5.197 -0.0944  0.5706 -0.3895
   38MOL   C10114235   6.054   0.914   5.286  0.4519 -0.0423 -0.6641
   38MOL   C10214236   6.099   0.905   5.430  0.1089 -0.2676 -0.3476
   38MOL   C10314237   6.027   1.036   5.061 -0.1726  0.2386  0.6215
   38MOL   H10414238   6.087   1.233   4.997  0.0034 -1.2474  0.5741
   38MOL   H10514239   6.285   1.016   4.947 -1.0789  1.2000 -1.5413
   38MOL   H10614240   6.328   1.165   5.024  0.1202  0.1679  0.3639
   38MOL   H10714241   6.273   0.911   5.144  1.2655 -0.0225  0.5225
   38MOL   H10814242   6.315   1.052   5.225  1.2020  1.7582 -1.6895
   38MOL   H10914243   6.080   1.120   5.252 -2.3533 -0.5911  0.8129
   38MOL   H11014244   5.945   0.918   5.282  0.3278  0.2593  2.2605
   38MOL   H11114245   6.084   0.817   5.245  1.7838  1.4916 -3.4427
   38MOL   H11214246   6.112   0.807   5.475  0.7591  0.5766  1.3316
   38MOL   H11314247   6.202   0.941   5.434 -0.1887  0.7473 -1.4831
   38MOL   H11414248   6.023   0.938   5.014 -0.4221  0.0921  0.9466
   38MOL   H11514249   5.928   1.079   5.074  0.2353  1.7946 -1.1597
   38MOL   C11614250   6.001   0.979   5.528  0.0434  0.0215  0.2258
   38MOL   C11714251   6.014   0.936   5.677 -0.0938 -0.7973 -0.2600
   38MOL   C11814252   6.005   1.057   5.765  0.6685 -0.3039 -0.4714
   38MOL   C11914253   5.957   1.172   5.673 -0.7505 -0.2049  0.5366
   38MOL   C12014254   5.982   1.324   5.710  0.1727  0.3863  0.6156
   38MOL   C12114255   5.920   1.368   5.845  0.8909 -0.1564 -0.6811
   38MOL   C12214256   6.019   1.133   5.534  0.4919 -0.2138 -0.4212
   38MOL   H12314257   5.903   0.964   5.482  0.5368  3.8209 -2.3059
   38MOL   H12414258   6.107   0.882   5.694  0.6204  0.6598  0.5879
   38MOL   H12514259   5.942   0.857   5.699 -1.5347  0.8601  1.0787
   38MOL   H12614260   6.101   1.081   5.809 -0.3223  0.5507  1.2832
   38MOL   H12714261   5.939   1.022   5.844 -0.7283 -0.2069 -1.5693
   38MOL   H12814262   5.849   1.171   5.655 -0.8688  0.4605  1.1879
   38MOL   H12914263   5.937   1.386   5.633  1.0029 -0.9810 -0.9956
   38MOL   H13014264   6.084   1.360   5.702  0.5231 -0.7415 -0.0148
   38MOL   H13114265   5.954   1.301   5.924  0.2749  0.7023  0.3199
   38MOL   H13214266   5.813   1.345   5.844  0.9309 -0.6937  2.1283
   38MOL   H13314267   5.969   1.172   5.445  2.2816  1.5738 -0.6819
   38MOL   H13414268   6.124   1.157   5.520  1.0090 -2.1663  0.0434
   38MOL   C13514269   5.934   1.515   5.878 -0.7123 -0.6823  0.4566
   38MOL   C13614270   5.838   1.601   5.791  0.7128  0.7659 -0.3281
   38MOL   C13714271   5.746   1.668   5.898  0.3810  0.0821  0.1636
   38MOL   C13814272   5.770   1.591   6.030 -0.3391 -0.4650  0.6116
   38MOL   C13914273   5.729   1.656   6.160  0.2011  0.4128 -0.0454
   38MOL   C14014274   5.795   1.788   6.197  0.3458  0.8030  0.0951
   38MOL   C14114275   5.918   1.553   6.023  0.3367 -0.3637  0.2891
   38MOL   H14214276   6.036   1.546   5.855  0.2090 -2.5379  1.9307
   38MOL   H14314277   5.910   1.668   5.744  3.2243 -1.1218  0.7378
   38MOL   H14414278   5.777   1.541   5.724  0.3927 -0.6004  1.1811
   38MOL   H14514279   5.787   1.769   5.907  1.0274 -0.2074  0.5150
   38MOL   H14614280   5.643   1.673   5.863  0.4514  0.1331 -0.0346
   38MOL   H14714281   5.727   1.490   6.029  1.1084 -1.0982  0.8027
   38MOL   H14814282   5.741   1.583   6.241 -1.0459  0.8913  0.5808
   38MOL   H14914283   5.621   1.669   6.162 -0.1617 -2.0251 -1.6079
   38MOL   H15014284   5.869   1.768   6.274  2.0960 -1.7328 -2.1473
   38MOL   H15114285   5.847   1.824   6.108  1.5841 -1.4219 -0.1192
   38MOL   H15214286   5.944   1.470   6.090  0.6631 -3.0607 -3.0611
   38MOL   H15314287   5.987   1.635   6.039  0.7073 -0.1297 -2.4253
   38MOL   C15414288   5.703   1.903   6.229  0.4449  0.0887  0.7298
   38MOL   C15514289   5.619   1.957   6.115  0.3429 -0.4929  0.2731
   38MOL   C15614290   5.571   2.102   6.156  0.0560 -0.2357  0.1891
   38MOL   C15714291   5.669   2.142   6.269  0.0334 -0.5688  0.3457
   38MOL   C15814292   5.725   2.286   6.256  0.0197 -0.5509  0.3759
   38MOL   C15914293   5.615   2.394   6.256  0.3190 -0.1313  0.5556
   38MOL   C16014294   5.780   2.032   6.272 -0.1092  0.1937  0.2294
   38MOL   H16114295   5.642   1.882   6.317  1.4327 -0.6859  1.2338
   38MOL   H16214296   5.679   1.944   6.024  0.4858  2.1376 -0.0647
   38MOL   H16314297   5.534   1.892   6.096 -0.8109  0.8803  0.6693
   38MOL   H16414298   5.570   2.176   6.076  0.6943  0.2214  0.5960
   38MOL   H16514299   5.468   2.097   6.193 -0.2560  0.6149 -0.5189
   38MOL   H16614300   5.614   2.135   6.364 -0.0964  1.4628  0.4543
   38MOL   H16714301   5.775   2.289   6.159  1.0115  0.1718  0.8948
   38MOL   H16814302   5.808   2.304   6.325  0.6287 -2.5682  0.2012
   38MOL   H16914303   5.561   2.376   6.163  0.9883 -1.0143  0.3218
   38MOL   H17014304   5.548   2.384   6.341  1.3476 -1.0285  1.2844
   38MOL   H17114305   5.818   2.016   6.373 -1.2107  1.0289  0.7834
   38MOL   H17214306   5.853   2.054   6.194 -1.7856  1.9437 -0.9011
   38MOL   C17314307   5.669   2.539   6.270 -0.3490  0.3371 -0.2940
   38MOL   C17414308   5.557   2.647   6.255 -1.0597  0.1932  0.0472
   38MOL   C17514309   5.580   2.748   6.367 -0.8024 -0.2880 -0.5684
   38MOL   C17614310   5.716   2.729   6.423 -0.1170 -0.0041 -0.8421
   38MOL   C17714311   5.725   2.782   6.570 -0.1528  0.2562 -0.1179
   38MOL   C17814312   5.865   2.787   6.622  0.0962 -0.0644 -0.2125
   38MOL   C17914313   5.742   2.575   6.407 -0.5618  0.0528 -0.0147
   38MOL   H18014314   5.747   2.562   6.197  1.3173  0.4446  1.4783
   38MOL   H18114315   5.458   2.599   6.257 -0.9575  0.0341  2.0175
   38MOL   H18214316   5.554   2.703   6.162 -1.1710 -1.1293 -0.7693
   38MOL   H18314317   5.549   2.844   6.326 -0.3831 -0.0656 -0.3770
   38MOL   H18414318   5.514   2.735   6.452 -2.3113  1.7515 -1.4056
   38MOL   H18514319   5.784   2.777   6.352 -1.8141  1.8261 -1.2913
   38MOL   H18614320   5.655   2.735   6.639 -0.7050  2.0569  0.5957
   38MOL   H18714321   5.679   2.880   6.557  0.7935  0.6392 -0.5901
   38MOL   H18814322   5.920   2.694   6.614  1.7021  0.8424  0.1535
   38MOL   H18914323   5.869   2.817   6.727  2.1626  0.4924 -0.4271
   38MOL   H19014324   5.688   2.538   6.494 -1.6032  0.4923 -0.4641
   38MOL   H19114325   5.845   2.538   6.409 -0.4213  0.1965 -2.5055
   38MOL   C19214326   5.943   2.900   6.550  0.6963 -0.2455  0.4249
   38MOL   C19314327   6.087   2.915   6.598  0.0845 -0.4795 -0.3688
   38MOL   C19414328   6.125   3.057   6.542 -0.1420 -0.2905  0.8383
   38MOL   C19514329   6.008   3.136   6.583 -0.0728  0.2767  0.6312
   38MOL   C19614330   6.004   3.274   6.505 -0.1084  0.4587 -0.2672
   38MOL   C19714331   6.127   3.368   6.499 -0.2282  0.0729  0.2566
   38MOL   C19814332   5.883   3.045   6.558  0.0363 -0.4785 -0.0870
   38MOL   H19914333   5.954   2.867   6.447 -1.3972  0.6832 -0.1275
   38MOL   H20014334   6.092   2.912   6.707  0.7130  0.7111 -0.3589
   38MOL   H20114335   6.147   2.829   6.569  1.1271 -0.9443  2.8954
   38MOL   H20214336   6.133   3.051   6.433 -2.2176 -0.8159  0.6983
   38MOL   H20314337   6.219   3.101   6.575 -1.4500  0.7830  3.1966
   38MOL   H20414338   6.033   3.149   6.688 -0.5066  1.8839  0.5454
   38MOL   H20514339   5.927   3.328   6.560 -1.2493 -1.1497 -0.2445
   38MOL   H20614340   5.981   3.250   6.402 -3.4683 -0.7922  0.7004
   38MOL   H20714341   6.219   3.309   6.492 -0.9434 -0.8298 -2.0079
   38MOL   H20814342   6.136   3.413   6.597 -1.3524 -0.8487  0.7915
   38MOL   H20914343   5.851   3.062   6.455 -0.0181  0.7964  0.1329
   38MOL   H21014344   5.791   3.054   6.614  0.6952 -0.5060  1.0055
   38MOL   C21114345   6.112   3.473   6.382 -0.3304  0.2766 -0.3944
   38MOL   C21214346   6.230   3.571   6.377 -0.1704  0.5151  0.4320
   38MOL   C21314347   6.185   3.688   6.289 -0.1476  0.8108  0.4358
   38MOL   C21414348   6.031   3.697   6.324  0.3031 -0.0772 -0.5165
   38MOL   C21514349   5.981   3.833   6.380 -0.3261  0.3085 -0.1033
   38MOL   C21614350   5.827   3.848   6.403  0.0847 -0.1671  0.9422
   38MOL   C21714351   5.995   3.571   6.397  0.3868  0.6867 -0.2312
   38MOL   H21814352   6.111   3.411   6.292  0.1442  1.9132 -1.5696
   38MOL   H21914353   6.241   3.611   6.478 -1.6377 -1.7520  1.5364
   38MOL   H22014354   6.323   3.525   6.344 -0.2981 -1.2694  2.4832
   38MOL   H22114355   6.250   3.773   6.306  0.3507  0.1775  1.7466
   38MOL   H22214356   6.207   3.654   6.188 -0.7285  3.1913 -0.5213
   38MOL   H22314357   5.979   3.691   6.229 -0.6433  0.9906 -0.0781
   38MOL   H22414358   6.012   3.908   6.306 -1.6550  1.5452  0.5667
   38MOL   H22514359   6.048   3.856   6.463 -1.2472  0.8455  0.4967
   38MOL   H22614360   5.789   3.840   6.301  0.5653 -0.9599  0.8153
   38MOL   H22714361   5.789   3.752   6.437 -0.2141 -1.0939 -1.8751
   38MOL   H22814362   5.905   3.535   6.347  1.3583  0.6845 -2.0363
   38MOL   H22914363   5.977   3.594   6.502  1.8223 -1.6087  0.5544
   38MOL   C23014364   5.777   3.972   6.480  0.0034 -0.4271 -0.1796
   38MOL   C23114365   5.819   3.982   6.626  0.8044 -0.1600  0.0505
   38MOL   C23214366   5.707   4.050   6.700  0.9816  1.0628 -0.0236
   38MOL   C23314367   5.577   4.001   6.636  0.0915  0.4927  0.4892
   38MOL   C23414368   5.468   4.110   6.637  0.5675  0.0571 -0.3158
   38MOL   C23514369   5.399   4.127   6.767 -0.6478  0.6743  0.3054
   38MOL   C23614370   5.620   3.963   6.492  0.6749 -0.7107 -0.1619
   38MOL   H23714371   5.811   4.065   6.434  0.0167  1.0787  2.7971
   38MOL   H23814372   5.835   3.882   6.668 -0.3666 -0.7150 -0.7992
   38MOL   H23914373   5.917   4.030   6.631  1.6546 -1.8405  0.1667
   38MOL   H24014374   5.717   4.157   6.682  0.9432  1.1759  0.6220
   38MOL   H24114375   5.722   4.034   6.807  2.7323 -0.9288 -0.5186
   38MOL   H24214376   5.535   3.917   6.691 -1.6390  0.6782 -0.5280
   38MOL   H24314377   5.385   4.078   6.575 -2.2557  0.3387  3.1623
   38MOL   H24414378   5.504   4.208   6.604  0.0854  0.6751  0.9693
   38MOL   H24514379   5.368   4.037   6.821  2.7709  0.4268  1.9846
   38MOL   H24614380   5.479   4.168   6.829  1.8061 -1.4200 -1.3732
   38MOL   H24714381   5.566   4.022   6.418 -0.3282 -0.2256  0.9496
   38MOL   H24814382   5.580   3.862   6.480 -0.2172 -0.2615 -1.0563
   38MOL   C24914383   5.285   4.239   6.765  0.4990 -0.0323  0.1908
   38MOL   C25014384   5.199   4.252   6.892 -0.3198 -0.7144 -0.8411
   38MOL   C25114385   5.158   4.398   6.888  1.4899  0.0946 -0.0598
   38MOL   C25214386   5.216   4.469   6.766  0.3207  0.1316 -0.2292
   38MOL   C25314387   5.104   4.478   6.663  0.1779 -0.0483 -0.1252
   38MOL   C25414388   5.046   4.623   6.649  0.7099 -0.9324 -0.7717
   38MOL   C25514389   5.329   4.372   6.726 -0.0717  0.2710  0.0310
   38MOL   H25614390   5.209   4.213   6.691  0.4701  1.2603 -0.2521
   38MOL   H25714391   5.112   4.186   6.891 -0.8506 -0.2491  4.2789
   38MOL   H25814392   5.248   4.230   6.987 -0.4992  0.0980 -0.5611
   38MOL   H25914393   5.186   4.446   6.982  0.0380 -1.9081  1.4345
   38MOL   H26014394   5.050   4.409   6.899  1.3057 -0.9056 -0.8877
   38MOL   H26114395   5.251   4.571   6.782  0.2654  0.1697 -0.3431
   38MOL   H26214396   5.024   4.404   6.670 -1.3584  1.6004  0.0927
   38MOL   H26314397   5.137   4.449   6.563  1.4894  1.5814 -0.1831
   38MOL   H26414398   5.125   4.687   6.609  1.4744 -1.0163  0.5792
   38MOL   H26514399   5.008   4.650   6.747 -1.9882 -1.0296 -1.7423
   38MOL   H26614400   5.421   4.400   6.777  0.0625  0.0403 -0.0791
   38MOL   H26714401   5.357   4.375   6.621  1.8908 -2.1805  0.4401
   38MOL   C26814402   4.923   4.633   6.548 -0.4970 -0.2836  0.4422
   38MOL   C26914403   4.962   4.588   6.406  0.1072  0.2256 -0.1951
   38MOL   C27014404   4.851   4.664   6.317  0.3349  0.5808 -0.2139
   38MOL   C27114405   4.773   4.747   6.417 -0.0501  0.0798  0.3008
   38MOL   C27214406   4.715   4.868   6.348  0.1831 -0.1654 -0.9136
   38MOL   C27314407   4.590   4.923   6.429 -0.1137 -1.3449 -0.2060
   38MOL   C27414408   4.869   4.778   6.526 -0.2535 -0.2121  0.2123
   38MOL   H27514409   4.843   4.571   6.590  0.3649 -0.6543  1.5518
   38MOL   H27614410   5.063   4.618   6.378  0.1332  2.2715  1.8454
   38MOL   H27714411   4.940   4.482   6.404  1.7500 -0.0861 -2.2008
   38MOL   H27814412   4.886   4.723   6.232  0.2105 -1.1708 -1.5062
   38MOL   H27914413   4.795   4.592   6.257 -0.1954  0.4137  0.4751
   38MOL   H28014414   4.695   4.681   6.455  0.1008  0.2365  0.8934
   38MOL   H28114415   4.680   4.843   6.248  1.7672  0.3757 -1.6286
   38MOL   H28214416   4.794   4.943   6.346  1.4284 -1.2762  2.2117
   38MOL   H28314417   4.496   4.869   6.416 -1.7654  1.3260  0.1113
   38MOL   H28414418   4.613   4.919   6.535  0.8175 -1.0576 -0.3957
   38MOL   H28514419   4.937   4.858   6.500  1.8489 -1.7447  0.8408
   38MOL   H28614420   4.813   4.811   6.614 -0.6644 -0.6694  0.1250
   38MOL   C28714421   4.561   5.077   6.397 -0.5157  0.2055 -0.0304
   38MOL   C28814422   4.439   5.132   6.479  0.0110 -0.1351 -0.6813
   38MOL   C28914423   4.448   5.282   6.466  0.1595  0.1194  0.0674
   38MOL   C29014424   4.600   5.307   6.483  0.3920 -0.0088 -0.7848
   38MOL   C29114425   4.643   5.348   6.625 -0.1995 -0.4925  0.0075
   38MOL   C29214426   4.776   5.428   6.620  0.0415  0.1307 -0.9620
   38MOL   C29314427   4.674   5.176   6.429  0.6862 -0.1733 -0.7930
   38MOL   H29414428   4.536   5.089   6.292 -1.4681  2.4861  0.4367
   38MOL   H29514429   4.339   5.106   6.445  1.0476 -0.7394 -3.4154
   38MOL   H29614430   4.433   5.113   6.586  1.3784  2.6496 -0.0582
   38MOL   H29714431   4.378   5.336   6.530 -1.4658 -0.1694 -1.4232
   38MOL   H29814432   4.412   5.295   6.364  0.3115  0.9277  0.1178
   38MOL   H29914433   4.633   5.385   6.414  0.6918 -0.7565 -1.5110
   38MOL   H30014434   4.664   5.256   6.680 -1.0346 -2.0935 -2.2571
   38MOL   H30114435   4.571   5.400   6.687  1.9262  1.8557  0.6174
   38MOL   H30214436   4.757   5.523   6.570 -0.3567 -0.1222 -1.3008
   38MOL   H30314437   4.840   5.382   6.544 -0.2449  1.1797 -1.8571
   38MOL   H30414438   4.738   5.136   6.507  0.8793  1.2681 -0.1908
   38MOL   H30514439   4.747   5.201   6.352  1.7865  0.8970  0.5632
   38MOL   C30614440   4.842   5.437   6.757  0.4690  0.0798 -0.0244
   38MOL   C30714441   4.888   5.304   6.810  0.0207  0.6678 -0.0567
   38MOL   C30814442   5.028   5.332   6.869  0.3691 -0.3215 -0.1793
   38MOL   C30914443   5.042   5.483   6.876  0.7106 -0.0711  0.5348
   38MOL   C31014444   5.191   5.528   6.874  0.0292  0.6597 -0.4021
   38MOL   C31114445   5.252   5.503   7.016 -0.7505 -0.7430  0.3020
   38MOL   C31214446   4.960   5.526   6.754  0.0863 -0.0296  0.1030
   38MOL   H31314447   4.773   5.484   6.827 -0.9917 -0.3335 -1.1736
   38MOL   H31414448   4.823   5.253   6.881  1.7889 -0.8494  0.5271
   38MOL   H31514449   4.916   5.230   6.734  1.3012  2.9035 -1.8328
   38MOL   H31614450   5.036   5.294   6.971 -2.2133 -1.1644 -0.2665
   38MOL   H31714451   5.106   5.278   6.815 -0.1047 -0.0036 -1.1871
   38MOL   H31814452   4.988   5.517   6.964 -2.0017  2.4224 -1.9403
   38MOL   H31914453   5.256   5.472   6.806  0.5617 -0.6978  1.1950
   38MOL   H32014454   5.205   5.631   6.842  4.5196  0.4249  0.4021
   38MOL   H32114455   5.246   5.395   7.029 -0.9223 -0.8740 -0.7801
   38MOL   H32214456   5.192   5.537   7.100  0.3932  4.0633 -0.6933
   38MOL   H32314457   5.028   5.502   6.672 -0.5845 -1.1073 -0.1547
   38MOL   H32414458   4.939   5.630   6.780  1.2250  0.3084 -0.3110
   38MOL   C32514459   5.402   5.547   7.025 -0.6103 -0.0935  0.2517
   38MOL   C32614460   5.418   5.695   7.017  0.1828 -0.0200 -0.3983
   38MOL   C32714461   5.547   5.733   7.098 -0.6612 -0.0732 -0.5934
   38MOL   C32814462   5.559   5.624   7.203  0.0662 -0.2183  0.2767
   38MOL   C32914463   5.706   5.577   7.196  0.1320  0.0549  0.2528
   38MOL   C33014464   5.749   5.482   7.310  0.4039  0.4983 -0.0663
   38MOL   C33114465   5.467   5.509   7.154  0.0566  0.2270  0.2092
   38MOL   H33214466   5.461   5.508   6.943  0.3040 -0.0235  0.8667
   38MOL   H33314467   5.340   5.750   7.070  1.1465 -0.3587  1.4311
   38MOL   H33414468   5.416   5.732   6.915 -1.6423  2.0722  0.3448
   38MOL   H33514469   5.631   5.730   7.029 -1.0012 -0.4368 -0.9914
   38MOL   H33614470   5.547   5.830   7.147  2.0051 -0.4170  0.1802
   38MOL   H33714471   5.557   5.645   7.310  1.9150 -0.8630  0.4537
   38MOL   H33814472   5.725   5.534   7.098  0.7176 -3.4846  1.8457
   38MOL   H33914473   5.771   5.665   7.196 -1.9371  1.6527 -2.4666
   38MOL   H34014474   5.740   5.532   7.406  1.0382  2.1578 -0.8463
   38MOL   H34114475   5.674   5.403   7.313  0.0433  0.8162 -0.5234
   38MOL   H34214476   5.393   5.496   7.233  0.3994 -2.1969  0.1626
   38MOL   H34314477   5.528   5.419   7.148 -0.5230 -0.1260 -0.4668
   38MOL   C34414478   5.886   5.417   7.285 -0.1082 -0.6101 -0.0131
   38MOL   C34514479   5.931   5.306   7.372 -0.1694 -0.7201  0.3292
   38MOL   C34614480   6.079   5.287   7.327  0.4242  0.5903 -0.0877
   38MOL   C34714481   6.140   5.426   7.313 -0.7068 -0.4300  0.2720
   38MOL   C34814482   6.246   5.445   7.200  0.0512  0.3495  0.1282
   38MOL   C34914483   6.316   5.582   7.213  0.3092  0.0646  0.0134
   38MOL   C35014484   6.010   5.514   7.298  0.4546  0.8698  0.1548
   38MOL   H35114485   5.882   5.378   7.183  1.6311  0.7931 -0.6484
   38MOL   H35214486   5.874   5.214   7.356 -2.0054  0.4620 -0.0935
   38MOL   H35314487   5.924   5.338   7.476 -1.4399  0.6852 -0.1678
   38MOL   H35414488   6.137   5.219   7.388  1.0490  0.3564 -0.9323
   38MOL   H35514489   6.082   5.245   7.226  0.2791 -1.2718  0.6695
   38MOL   H35614490   6.192   5.438   7.408 -0.6334  0.2362  0.1455
   38MOL   H35714491   6.315   5.360   7.195 -0.0569  0.2566  0.2019
   38MOL   H35814492   6.191   5.444   7.105  1.7443  1.0721 -0.8922
   38MOL   H35914493   6.389   5.571   7.294  0.3626 -0.3177 -0.0888
   38MOL   H36014494   6.249   5.663   7.242  2.3057  1.6947  0.2091
   38MOL   H36114495   6.008   5.569   7.392  3.0233 -0.1433  0.8571
   38MOL   H36214496   6.014   5.597   7.227 -2.2800  1.1833  0.3192
   38MOL   C36314497   6.392   5.622   7.090  0.3582 -0.1838  0.4368
   38MOL   C36414498   6.470   5.754   7.105 -0.2391  0.6036 -0.6504
   38MOL   C36514499   6.493   5.800   6.955  0.7076 -0.1006 -0.0427
   38MOL   C36614500   6.396   5.720   6.867 -0.7436 -0.4613 -0.8490
   38MOL   C36714501   6.316   5.800   6.760 -0.3399  0.9562  0.2461
   38MOL   C36814502   6.407   5.842   6.645  0.1144 -1.1863  0.5541
   38MOL   C36914503   6.309   5.646   6.962 -0.0492 -0.0633  0.4249
   38MOL   H37014504   6.464   5.545   7.064  0.1363  0.3512 -1.9013
   38MOL   H37114505   6.405   5.822   7.160  1.0054  0.4968  0.9939
   38MOL   H37214506   6.551   5.743   7.177 -1.2131 -0.4162  0.3158
   38MOL   H37314507   6.463   5.905   6.954  1.5341  0.1319 -0.9879
   38MOL   H37414508   6.595   5.789   6.919  0.3197  1.8005 -1.8106
   38MOL   H37514509   6.458   5.642   6.822  0.2148  0.1442 -0.5915
   38MOL   H37614510   6.222   5.751   6.734  1.4280 -0.8773 -2.9549
   38MOL   H37714511   6.297   5.895   6.810  1.4796  0.7566  1.3575
   38MOL   H37814512   6.494   5.900   6.675 -0.5365 -0.7103  1.5269
   38MOL   H37914513   6.342   5.898   6.578 -2.5546  0.3033  4.2601
   38MOL   H38014514   6.220   5.703   6.987  0.6169  1.6222 -0.9807
   38MOL   H38114515   6.270   5.549   6.932 -2.3224  0.5800  1.2592
   38MOL   H38214516   6.447   5.753   6.596  2.8165  0.6631 -0.6814
   39MOL     C114517   3.540   1.412   4.227  0.4497  0.7778 -0.2804
   39MOL     C214518   3.401   1.416   4.302  0.3429 -0.2260  0.2601
   39MOL     C314519   3.362   1.563   4.286 -0.7283 -0.3116  0.6871
   39MOL     C414520   3.483   1.649   4.260 -0.2227 -0.6816 -0.4120
   39MOL     C514521   3.564   1.674   4.389  0.3199 -0.3742  0.0727
   39MOL     C614522   3.520   1.780   4.485 -0.3068  0.4340  0.1332
   39MOL     C714523   3.565   1.552   4.170  0.1798  0.4619  0.1007
   39MOL     H814524   3.617   1.391   4.301 -0.2925  0.1073  0.3114
   39MOL     H914525   3.406   1.396   4.409  0.6482 -0.8800  0.1216
   39MOL    H1014526   3.329   1.349   4.254  0.2727 -0.6335  0.9225
   39MOL    H1114527   3.289   1.581   4.207  0.0626 -0.4499 -0.0702
   39MOL    H1214528   3.309   1.603   4.373  2.0633  2.9991  1.0113
   39MOL    H1314529   3.461   1.749   4.223 -0.8406 -0.0145  1.6764
   39MOL    H1414530   3.586   1.579   4.438  1.6644 -0.5312 -0.7809
   39MOL    H1514531   3.661   1.716   4.360 -0.4111  1.1054 -0.2561
   39MOL    H1614532   3.496   1.873   4.432  1.5246  0.3884 -0.8066
   39MOL    H1714533   3.434   1.759   4.549 -0.6108  3.5814  0.8558
   39MOL    H1814534   3.518   1.570   4.073 -1.1651 -0.6066  0.5488
   39MOL    H1914535   3.672   1.571   4.166 -0.0317  1.4291 -1.5817
   39MOL    H2014536   3.532   1.332   4.153  0.1133 -0.5423  1.1605
   39MOL    C2114537   3.636   1.801   4.579  0.9322 -0.5725  0.8532
   39MOL    C2214538   3.770   1.861   4.529 -1.2585 -0.1309  0.0344
   39MOL    C2314539   3.841   1.888   4.662  0.1028  0.0588  0.1583
   39MOL    C2414540   3.734   1.931   4.763  0.1129 -0.2035  0.2254
   39MOL    C2514541   3.738   2.086   4.796 -0.4396  1.0804 -0.0818
   39MOL    C2614542   3.635   2.136   4.898  0.6695 -0.1197 -0.3393
   39MOL    C2714543   3.603   1.893   4.696  0.3837  0.3493  0.3770
   39MOL    H2814544   3.652   1.701   4.621 -2.6425 -1.5575  0.0508
   39MOL    H2914545   3.833   1.801   4.462 -2.0786  0.5971 -1.4286
   39MOL    H3014546   3.749   1.954   4.477  1.5855  1.8608  2.2601
   39MOL    H3114547   3.892   1.794   4.685  2.4046  0.3867 -3.1342
   39MOL    H3214548   3.928   1.953   4.660  0.7173 -0.7552 -0.4029
   39MOL    H3314549   3.745   1.876   4.856  0.6960 -0.1680  0.1776
   39MOL    H3414550   3.723   2.134   4.700  0.8840  2.2462  0.2736
   39MOL    H3514551   3.842   2.102   4.826 -0.7044  0.9843  0.9001
   39MOL    H3614552   3.665   2.104   4.997 -2.0603 -1.3689  0.1281
   39MOL    H3714553   3.543   2.081   4.878 -0.6731  1.2374  1.8729
   39MOL    H3814554   3.534   1.850   4.770 -1.1160  0.2607 -1.0455
   39MOL    H3914555   3.563   1.981   4.645  1.5691  0.0627 -1.0528
   39MOL    C4014556   3.614   2.288   4.894 -0.3438  0.4434 -0.9012
   39MOL    C4114557   3.514   2.342   5.000 -0.0044 -0.0618 -0.2503
   39MOL    C4214558   3.571   2.475   5.034  0.6688  0.0105 -0.5251
   39MOL    C4314559   3.723   2.447   5.036  0.0829  0.5713 -0.2045
   39MOL    C4414560   3.818   2.571   5.035  0.0907  0.3389  0.0433
   39MOL    C4514561   3.810   2.651   5.162  0.2851  0.0777 -0.6485
   39MOL    C4614562   3.743   2.361   4.914  0.8347 -0.5566 -0.0017
   39MOL    H4714563   3.571   2.317   4.798 -1.2483  1.0826 -0.3180
   39MOL    H4814564   3.498   2.278   5.086 -1.0245 -0.1058 -0.4655
   39MOL    H4914565   3.411   2.354   4.968  0.5248 -0.7305 -2.2875
   39MOL    H5014566   3.551   2.555   4.963 -1.0103  0.1012  0.0270
   39MOL    H5114567   3.544   2.510   5.134  0.1660 -0.5725 -0.4564
   39MOL    H5214568   3.741   2.391   5.128  2.3524  0.9582 -0.3735
   39MOL    H5314569   3.920   2.532   5.026  0.8102  2.3484 -0.8909
   39MOL    H5414570   3.804   2.646   4.957  1.0300  0.7205  0.2383
   39MOL    H5514571   3.835   2.581   5.242  0.2988  1.7188  0.8084
   39MOL    H5614572   3.711   2.685   5.193  1.3490  0.9093  2.0236
   39MOL    H5714573   3.779   2.419   4.829  0.7020 -2.1315 -1.1492
   39MOL    H5814574   3.829   2.297   4.927  1.0789  0.0832  1.5652
   39MOL    C5914575   3.907   2.777   5.179  0.1039  0.3707 -0.2070
   39MOL    C6014576   3.864   2.906   5.100  0.3840 -0.2880  0.8200
   39MOL    C6114577   3.943   3.013   5.173 -0.5247  0.2626  0.2498
   39MOL    C6214578   3.924   2.978   5.320  0.2970  0.3469  1.1658
   39MOL    C6314579   4.027   3.048   5.404  0.1566  0.2800 -0.8260
   39MOL    C6414580   4.001   3.035   5.553 -0.0245  0.0309 -0.1250
   39MOL    C6514581   3.917   2.821   5.326 -0.0653  0.1243  0.1007
   39MOL    H6614582   4.006   2.744   5.146  1.1720  2.3429  0.9627
   39MOL    H6714583   3.883   2.904   4.992 -1.1606 -0.3027  0.5390
   39MOL    H6814584   3.762   2.942   5.116  1.2346  0.8622  3.8998
   39MOL    H6914585   4.047   3.004   5.143 -0.6043  0.2803 -0.0350
   39MOL    H7014586   3.914   3.116   5.151 -1.7010 -0.5179 -2.0395
   39MOL    H7114587   3.830   3.019   5.358  0.7128  0.9699  1.5287
   39MOL    H7214588   4.048   3.152   5.377  0.3082  0.3499 -0.4398
   39MOL    H7314589   4.122   2.999   5.383 -0.7395 -0.8858 -2.2791
   39MOL    H7414590   3.909   3.081   5.588  1.1135  2.5837 -0.4112
   39MOL    H7514591   3.994   2.930   5.582 -0.6517  0.6931  2.1877
   39MOL    H7614592   4.008   2.787   5.375 -0.0943  0.2996  0.2728
   39MOL    H7714593   3.832   2.775   5.377 -0.2529 -0.5065 -0.7564
   39MOL    C7814594   4.122   3.087   5.640  0.2314 -0.2050 -0.4447
   39MOL    C7914595   4.133   3.247   5.639  0.4052  0.1051 -0.0860
   39MOL    C8014596   4.104   3.287   5.784 -0.2794 -0.0197  0.0332
   39MOL    C8114597   4.152   3.172   5.871  0.1286  0.5690 -0.7057
   39MOL    C8214598   4.106   3.170   6.017 -0.2879  0.1724  0.2711
   39MOL    C8314599   4.139   3.293   6.100  0.9805  0.5379  0.2042
   39MOL    C8414600   4.118   3.040   5.791  0.9287  0.2384 -0.2250
   39MOL    H8514601   4.222   3.058   5.606  0.0895 -0.9286 -0.2436
   39MOL    H8614602   4.238   3.278   5.634  1.2629 -2.2070  2.2622
   39MOL    H8714603   4.058   3.292   5.574 -0.1212 -0.4801  0.1196
   39MOL    H8814604   4.156   3.381   5.803 -0.0010 -0.4657  1.5470
   39MOL    H8914605   3.997   3.304   5.797 -0.3306 -1.0773  1.0702
   39MOL    H9014606   4.261   3.171   5.871  0.1405 -0.8315 -2.2590
   39MOL    H9114607   4.140   3.084   6.074 -1.4628 -1.4225 -1.3576
   39MOL    H9214608   3.997   3.161   6.016 -0.3887  1.3511 -0.5647
   39MOL    H9314609   4.071   3.371   6.067  0.6174 -0.4275 -1.3736
   39MOL    H9414610   4.231   3.342   6.069 -0.5110  3.6055  0.4619
   39MOL    H9514611   4.014   3.021   5.819  0.7227 -0.4652 -1.4531
   39MOL    H9614612   4.173   2.949   5.815  0.0895 -0.8547 -2.3191
   39MOL    C9714613   4.135   3.282   6.254 -0.0230 -1.0856 -0.9729
   39MOL    C9814614   4.247   3.196   6.318  0.3494  0.3382  0.1215
   39MOL    C9914615   4.204   3.182   6.459  0.1732 -0.4060  0.3163
   39MOL   C10014616   4.051   3.157   6.456  0.5406  0.5093  0.6486
   39MOL   C10114617   4.013   3.016   6.487 -0.6248  0.1485  0.3583
   39MOL   C10214618   4.040   2.970   6.631  0.0162 -0.1154  0.1773
   39MOL   C10314619   4.007   3.207   6.314 -0.0215 -0.1138  0.4038
   39MOL   H10414620   4.146   3.384   6.289 -1.6704 -1.4435  0.6570
   39MOL   H10514621   4.280   3.104   6.270  0.4108 -0.6902  2.0906
   39MOL   H10614622   4.344   3.244   6.328  0.9701 -0.0618 -3.4136
   39MOL   H10714623   4.259   3.103   6.509  1.2244 -0.4616 -0.9194
   39MOL   H10814624   4.228   3.275   6.509 -1.4912  1.0110 -1.4184
   39MOL   H10914625   4.002   3.215   6.534  0.7926 -0.5455  1.6006
   39MOL   H11014626   3.906   3.018   6.464 -0.2858  1.1970 -1.2321
   39MOL   H11114627   4.068   2.944   6.427  0.8361  0.6313  1.1118
   39MOL   H11214628   4.143   2.975   6.666  0.3059 -2.8373 -0.1711
   39MOL   H11314629   3.964   3.026   6.685 -1.8567 -2.2859 -0.1189
   39MOL   H11414630   3.963   3.130   6.250 -2.2033  0.7211  0.8765
   39MOL   H11514631   3.920   3.272   6.321 -0.9612 -1.2831 -0.2376
   39MOL   C11614632   3.992   2.827   6.657 -0.1763 -0.8061  0.6592
   39MOL   C11714633   4.014   2.790   6.806 -0.0929  0.8635  0.1727
   39MOL   C11814634   3.932   2.666   6.832  0.3970  0.6025  0.6060
   39MOL   C11914635   3.838   2.657   6.704 -0.2912 -0.5115 -0.3101
   39MOL   C12014636   3.694   2.613   6.730 -0.1303  0.7854 -0.1285
   39MOL   C12114637   3.620   2.570   6.604  0.0124  0.0399  0.1459
   39MOL   C12214638   3.850   2.791   6.624  0.6510  1.1044 -0.6049
   39MOL   H12314639   4.063   2.761   6.607 -0.0809  0.1275 -0.4467
   39MOL   H12414640   3.970   2.866   6.871  1.3761  1.9816 -0.1135
   39MOL   H12514641   4.119   2.792   6.835 -0.2058 -0.2489  0.6966
   39MOL   H12614642   3.876   2.671   6.926 -2.2530  1.9237 -1.0012
   39MOL   H12714643   4.002   2.583   6.839  0.0650  0.4687  2.9693
   39MOL   H12814644   3.879   2.585   6.632 -1.4396  0.2975 -1.7886
   39MOL   H12914645   3.630   2.693   6.768 -0.6997  0.0365  0.4965
   39MOL   H13014646   3.686   2.531   6.801 -0.3386  0.9154 -0.0018
   39MOL   H13114647   3.676   2.490   6.555 -1.1624 -0.8061  0.1537
   39MOL   H13214648   3.618   2.652   6.532  0.5624  0.5646  0.7208
   39MOL   H13314649   3.837   2.772   6.518  2.0256 -0.6479 -0.4849
   39MOL   H13414650   3.785   2.865   6.671 -0.6797 -0.7683  0.5901
   39MOL   C13514651   3.486   2.503   6.627 -0.6677 -0.7454 -0.7907
   39MOL   C13614652   3.408   2.493   6.498 -0.5129  0.7041 -0.0116
   39MOL   C13714653   3.287   2.401   6.549  0.2451 -0.3950  0.3641
   39MOL   C13814654   3.349   2.290   6.640  0.4293  0.1101 -0.0286
   39MOL   C13914655   3.246   2.229   6.741  0.0053  0.7073 -0.4590
   39MOL   C14014656   3.295   2.113   6.830 -0.5721  0.1328 -0.3402
   39MOL   C14114657   3.476   2.363   6.698 -1.1221 -0.4646  0.4421
   39MOL   H14214658   3.428   2.576   6.684  1.9456 -0.0411  1.0768
   39MOL   H14314659   3.367   2.586   6.458 -0.1285  0.7951 -0.1935
   39MOL   H14414660   3.467   2.445   6.420 -0.3600  1.8224 -0.5910
   39MOL   H14514661   3.219   2.457   6.614  0.4462  0.0950  0.1616
   39MOL   H14614662   3.233   2.357   6.466  1.1833 -0.9634  0.0502
   39MOL   H14714663   3.375   2.210   6.572 -1.6672  0.3896 -1.1999
   39MOL   H14814664   3.164   2.186   6.684  0.9039 -0.5922 -0.7939
   39MOL   H14914665   3.215   2.310   6.808  1.5899  1.0154 -0.0685
   39MOL   H15014666   3.374   2.058   6.778 -1.3445 -1.7658  0.4493
   39MOL   H15114667   3.351   2.162   6.909 -1.7541  1.0978 -0.0804
   39MOL   H15214668   3.561   2.296   6.696 -1.8043 -1.3179 -0.1973
   39MOL   H15314669   3.459   2.378   6.805  3.0360  1.7868  0.8821
   39MOL   C15414670   3.183   2.026   6.898 -0.4136 -1.0296 -0.1161
   39MOL   C15514671   3.107   2.094   7.020  0.4859  0.0824  0.2722
   39MOL   C15614672   3.070   1.977   7.116  0.1161  0.1558 -0.1858
   39MOL   C15714673   3.118   1.847   7.047  0.2886 -0.1897  0.7731
   39MOL   C15814674   3.127   1.735   7.148  0.0509  0.1308 -0.6486
   39MOL   C15914675   2.998   1.699   7.226  0.3617  0.5313 -0.0632
   39MOL   C16014676   3.236   1.897   6.965  0.2349  0.2397  0.3808
   39MOL   H16114677   3.107   1.998   6.825 -1.0907 -0.3472  0.3207
   39MOL   H16214678   3.150   2.172   7.082 -0.1079 -1.3579  2.5582
   39MOL   H16314679   3.021   2.142   6.973  1.1167  0.9900  0.0345
   39MOL   H16414680   3.096   1.988   7.221 -1.1593 -1.4482  0.3069
   39MOL   H16514681   2.962   1.982   7.125  0.2753 -0.1144  1.9512
   39MOL   H16614682   3.036   1.806   6.987  0.0028 -0.2573  1.2127
   39MOL   H16714683   3.191   1.780   7.224 -0.6749  0.6789 -0.3611
   39MOL   H16814684   3.181   1.650   7.107  2.1152  0.5938  0.9869
   39MOL   H16914685   3.039   1.646   7.312  1.7958 -1.4856 -1.9410
   39MOL   H17014686   2.941   1.787   7.256 -1.0457  0.8693 -3.4649
   39MOL   H17114687   3.264   1.817   6.897 -2.1684  0.8776 -1.4629
   39MOL   H17214688   3.320   1.923   7.029 -1.3161 -1.2694  3.1055
   39MOL   C17314689   2.907   1.591   7.163  0.4412 -0.4015 -0.6124
   39MOL   C17414690   2.822   1.514   7.269  0.4204  0.0257 -0.5853
   39MOL   C17514691   2.686   1.513   7.203  0.4500 -0.3002  0.1246
   39MOL   C17614692   2.689   1.560   7.056  0.2064 -0.0861  0.0470
   39MOL   C17714693   2.557   1.624   7.009 -0.3093 -0.0972  0.5034
   39MOL   C17814694   2.443   1.526   6.995  0.2999  0.2486  0.0665
   39MOL   C17914695   2.799   1.669   7.081  0.0475 -0.3481  0.0374
   39MOL   H18014696   2.962   1.524   7.097 -0.3244  0.9260 -2.6556
   39MOL   H18114697   2.816   1.549   7.372  0.9695 -2.0710  0.1784
   39MOL   H18214698   2.850   1.410   7.281 -0.3173  0.0150  1.2490
   39MOL   H18314699   2.648   1.411   7.206 -0.1536 -0.1045 -0.8587
   39MOL   H18414700   2.621   1.561   7.277  0.7723 -1.0048  0.8787
   39MOL   H18514701   2.732   1.486   6.987  1.8041 -1.1510  2.1133
   39MOL   H18614702   2.581   1.667   6.912 -1.2384 -1.1306 -0.2003
   39MOL   H18714703   2.533   1.708   7.074 -1.1006 -0.0045  0.0821
   39MOL   H18814704   2.428   1.468   7.086  1.4122  1.3044  0.9299
   39MOL   H18914705   2.469   1.446   6.926 -0.5098  1.8155 -2.1248
   39MOL   H19014706   2.756   1.752   7.137 -2.5456 -0.8137 -1.1762
   39MOL   H19114707   2.820   1.708   6.982  0.6756 -0.6710  0.0465
   39MOL   C19214708   2.309   1.592   6.966 -0.2151  0.0088 -0.1969
   39MOL   C19314709   2.208   1.487   6.931 -0.2022  0.1588  0.1359
   39MOL   C19414710   2.191   1.484   6.778  0.2483  0.7402 -0.3832
   39MOL   C19514711   2.275   1.603   6.723 -0.1449 -0.2085  0.0567
   39MOL   C19614712   2.206   1.685   6.615 -0.4283  0.2541  0.1346
   39MOL   C19714713   2.290   1.790   6.548 -0.2431  1.1163 -0.5582
   39MOL   C19814714   2.306   1.693   6.848  0.0516  0.1152  0.1177
   39MOL   H19914715   2.280   1.644   7.058 -0.6530  0.8477 -0.8034
   39MOL   H20014716   2.230   1.387   6.969  0.4965 -0.5231 -1.9931
   39MOL   H20114717   2.112   1.502   6.981 -1.4215 -1.7152 -1.5666
   39MOL   H20214718   2.087   1.505   6.753 -0.2486 -3.1070 -1.8185
   39MOL   H20314719   2.217   1.390   6.731  0.2784 -0.5847  2.1972
   39MOL   H20414720   2.363   1.556   6.678 -1.1313 -1.2514 -0.8018
   39MOL   H20514721   2.112   1.727   6.649 -0.5803  0.0085  0.0219
   39MOL   H20614722   2.176   1.614   6.537 -1.8418 -0.7687  1.5884
   39MOL   H20714723   2.397   1.766   6.542 -0.7430 -1.2725 -0.5006
   39MOL   H20814724   2.283   1.874   6.617 -0.1382  1.0694 -0.4900
   39MOL   H20914725   2.233   1.770   6.873 -1.6974 -1.6540  0.5628
   39MOL   H21014726   2.400   1.746   6.832 -0.1966  0.1312 -1.3477
   39MOL   C21114727   2.244   1.838   6.400  0.1865  0.6394 -0.8098
   39MOL   C21214728   2.281   1.733   6.293  0.6213  0.6343 -0.1560
   39MOL   C21314729   2.403   1.796   6.225  0.5346 -0.8752  0.7839
   39MOL   C21414730   2.387   1.943   6.234  0.6096  0.4268  0.3005
   39MOL   C21514731   2.514   2.023   6.210  0.2807  0.3701  0.1328
   39MOL   C21614732   2.561   2.044   6.065  0.1351 -0.2781  0.4977
   39MOL   C21714733   2.320   1.966   6.370  0.1031 -0.1115  0.4084
   39MOL   H21814734   2.139   1.867   6.404  0.1287  0.5204 -1.4652
   39MOL   H21914735   2.305   1.637   6.340 -0.8412  0.4321  0.2030
   39MOL   H22014736   2.187   1.717   6.239 -0.1855  0.1568  1.3617
   39MOL   H22114737   2.500   1.757   6.258  0.8879 -1.1086 -0.5004
   39MOL   H22214738   2.402   1.764   6.121 -1.3153 -2.3205  1.2172
   39MOL   H22314739   2.309   1.962   6.160  1.1430 -1.1461 -0.6967
   39MOL   H22414740   2.602   1.999   6.269  0.5559 -0.1774 -0.4977
   39MOL   H22514741   2.495   2.126   6.242  2.7381  0.8790 -0.0005
   39MOL   H22614742   2.589   1.945   6.028 -3.7242 -1.6477  1.0261
   39MOL   H22714743   2.478   2.059   5.996 -0.4602 -1.1039  1.0238
   39MOL   H22814744   2.256   2.053   6.358  1.6664  1.5329  3.2472
   39MOL   H22914745   2.390   1.999   6.448  0.5288 -0.2206  0.0713
   39MOL   C23014746   2.645   2.159   6.044 -0.3220 -0.1206 -0.5317
   39MOL   C23114747   2.684   2.172   5.894  0.1546 -0.3501  0.1245
   39MOL   C23214748   2.799   2.273   5.899  0.4858  0.5486  1.0419
   39MOL   C23314749   2.878   2.232   6.027 -0.5620  0.6445 -0.2968
   39MOL   C23414750   2.919   2.355   6.107  0.4969  0.3767  0.1661
   39MOL   C23514751   3.027   2.447   6.043  0.0757 -0.1414  0.9251
   39MOL   C23614752   2.788   2.134   6.102 -0.3624  0.0203 -0.2784
   39MOL   H23714753   2.600   2.253   6.076  2.6842  0.9152  0.8777
   39MOL   H23814754   2.709   2.077   5.846 -2.1485 -1.1141  0.3855
   39MOL   H23914755   2.593   2.213   5.850 -1.0736 -1.1881  1.8167
   39MOL   H24014756   2.757   2.374   5.906 -1.0271  0.0488 -0.6360
   39MOL   H24114757   2.858   2.280   5.808 -1.7184 -0.3723 -0.5141
   39MOL   H24214758   2.965   2.167   6.018 -1.4631 -0.7894  0.9759
   39MOL   H24314759   2.938   2.334   6.212  0.8041 -1.6020 -0.2694
   39MOL   H24414760   2.830   2.417   6.122  0.0450  0.3949 -2.3740
   39MOL   H24514761   3.109   2.394   5.996  0.4488 -0.2678  1.7268
   39MOL   H24614762   2.988   2.504   5.958  2.5884  0.3893  0.0953
   39MOL   H24714763   2.786   2.136   6.211 -0.9249 -1.8135 -0.2412
   39MOL   H24814764   2.810   2.030   6.078  0.0812 -0.0388  0.3628
   39MOL   C24914765   3.082   2.548   6.138 -0.6652 -0.1192  0.0600
   39MOL   C25014766   3.190   2.643   6.080 -0.3126 -0.1942  0.6524
   39MOL   C25114767   3.219   2.741   6.196  0.4419  0.5350  0.1531
   39MOL   C25214768   3.077   2.774   6.252 -0.2168 -0.8923 -0.2730
   39MOL   C25314769   3.063   2.790   6.403 -0.4376  0.2153 -0.3529
   39MOL   C25414770   2.927   2.837   6.452 -0.2556 -0.5739  0.7439
   39MOL   C25514771   2.995   2.661   6.196  0.1840  0.6342 -0.2516
   39MOL   H25614772   3.117   2.490   6.223  2.2743 -2.5891 -2.6678
   39MOL   H25714773   3.278   2.583   6.055 -0.8716 -0.0363 -1.8061
   39MOL   H25814774   3.140   2.686   5.993 -1.3955 -0.0730  1.3304
   39MOL   H25914775   3.271   2.829   6.158  1.3983  0.2867  0.8582
   39MOL   H26014776   3.287   2.689   6.263 -0.4137 -0.3447  0.3495
   39MOL   H26114777   3.051   2.868   6.203 -1.6166 -1.3777 -0.4649
   39MOL   H26214778   3.138   2.859   6.441 -0.9161  1.3693 -1.4388
   39MOL   H26314779   3.081   2.692   6.446  2.3999  0.6612 -0.4613
   39MOL   H26414780   2.850   2.792   6.390 -1.8930  0.3548  2.0658
   39MOL   H26514781   2.904   2.941   6.427 -0.4816 -0.7548  0.1923
   39MOL   H26614782   2.934   2.697   6.113  0.4754 -0.5226 -0.9895
   39MOL   H26714783   2.918   2.617   6.259 -0.2466  0.7507 -0.6862
   39MOL   C26814784   2.899   2.807   6.605 -0.0700  0.1403 -0.2052
   39MOL   C26914785   2.772   2.866   6.665  0.7917  0.6453 -0.3843
   39MOL   C27014786   2.784   2.850   6.816  0.4371  0.6155 -0.2096
   39MOL   C27114787   2.931   2.815   6.836  0.0071  0.4144 -0.1822
   39MOL   C27214788   2.998   2.874   6.960  0.2912  0.7646  0.0590
   39MOL   C27314789   3.142   2.800   6.998  0.1756  0.3227  0.0464
   39MOL   C27414790   3.002   2.846   6.708  0.1552 -0.2713 -0.0405
   39MOL   H27514791   2.881   2.700   6.613 -3.8189  0.7642  1.0561
   39MOL   H27614792   2.763   2.970   6.635  0.8011  0.9104  0.5073
   39MOL   H27714793   2.685   2.809   6.633  1.5517 -0.5133 -0.4166
   39MOL   H27814794   2.764   2.951   6.852 -1.9633  0.0467  0.1872
   39MOL   H27914795   2.727   2.774   6.870 -1.1662  2.7272  1.1443
   39MOL   H28014796   2.945   2.707   6.837  0.5102  0.4731 -0.2709
   39MOL   H28114797   2.919   2.864   7.034 -3.1267 -0.3785 -3.6048
   39MOL   H28214798   3.014   2.981   6.945 -5.0264  1.9311  1.5257
   39MOL   H28314799   3.206   2.789   6.910 -0.2196 -0.3807 -0.1542
   39MOL   H28414800   3.201   2.865   7.063 -1.4481  1.1755  0.6891
   39MOL   H28514801   3.016   2.954   6.702 -1.1099 -0.1926 -2.3005
   39MOL   H28614802   3.097   2.794   6.689  0.5724  1.1208 -1.8799
   39MOL   C28714803   3.128   2.656   7.056 -0.6513  0.0063  0.2892
   39MOL   C28814804   3.251   2.565   7.056 -0.1443 -0.4857 -0.8594
   39MOL   C28914805   3.247   2.495   7.196  0.5046  0.2815 -0.6674
   39MOL   C29014806   3.110   2.517   7.256  0.4402  0.2845  0.0966
   39MOL   C29114807   3.112   2.504   7.406 -0.5047 -0.2515  0.1149
   39MOL   C29214808   3.000   2.578   7.483 -0.0262  0.1613 -0.0101
   39MOL   C29314809   3.081   2.650   7.200  0.0936 -0.0238 -0.1526
   39MOL   H29414810   3.058   2.609   6.988  0.5393 -1.5017  0.0713
   39MOL   H29514811   3.248   2.485   6.981  2.3137 -0.8093 -0.6599
   39MOL   H29614812   3.341   2.627   7.053 -2.2375  2.9462  3.3848
   39MOL   H29714813   3.326   2.548   7.249  0.6842 -1.3321  0.7161
   39MOL   H29814814   3.273   2.389   7.195 -0.0068  0.1159  1.2454
   39MOL   H29914815   3.053   2.436   7.210  1.4415  0.2272 -1.0642
   39MOL   H30014816   3.204   2.545   7.447 -0.6150 -1.0500  1.1850
   39MOL   H30114817   3.119   2.397   7.423  2.5417  0.1316  1.6902
   39MOL   H30214818   2.902   2.540   7.455  0.3994 -1.3463  0.4727
   39MOL   H30314819   3.003   2.686   7.470  0.4320  0.1552  0.0399
   39MOL   H30414820   3.124   2.727   7.263  0.4869 -0.6205  0.3109
   39MOL   H30514821   2.974   2.670   7.196 -0.3538 -1.5642  2.5851
   39MOL   C30614822   3.027   2.555   7.636 -0.0113  0.1270 -1.0717
   39MOL   C30714823   2.967   2.664   0.084 -0.4667 -0.5145  0.0558
   39MOL   C30814824   2.967   2.592   0.223  0.3777  0.3260  0.1194
   39MOL   C30914825   2.985   2.445   0.190  0.3974 -0.2859 -0.3052
   39MOL   C31014826   2.898   2.347   0.272  0.0405  0.0368  0.2636
   39MOL   C31114827   2.916   2.361   0.420 -0.4275 -0.1318  0.1189
   39MOL   C31214828   2.961   2.425   0.044  0.4746 -0.0675  0.0578
   39MOL   H31314829   3.132   2.561   0.018 -0.1871 -1.3024 -0.0753
   39MOL   H31414830   3.021   2.759   0.086 -2.6134  0.8039 -1.4919
   39MOL   H31514831   2.863   2.680   0.055  0.2642  1.8511 -1.4173
   39MOL   H31614832   3.056   2.627   0.277  1.1153 -1.9509  0.4603
   39MOL   H31714833   2.878   2.627   0.274  0.2277  0.0501  0.0481
   39MOL   H31814834   3.088   2.420   0.214  0.0445 -1.1947  0.2413
   39MOL   H31914835   2.792   2.358   0.249  0.1899 -0.8390 -0.9503
   39MOL   H32014836   2.913   2.246   0.232  2.4473  0.8442 -0.9785
   39MOL   H32114837   2.897   2.463   0.452  0.9923  0.8018 -1.9306
   39MOL   H32214838   3.017   2.333   0.451 -0.0620  0.8361 -0.1920
   39MOL   H32314839   2.859   2.423   0.006  0.7046  1.9702 -0.7321
   39MOL   H32414840   3.017   2.336   0.014  0.3582 -0.6738  1.6335
   39MOL   C32514841   2.827   2.276   0.502 -0.0739 -0.2735 -0.3293
   39MOL   C32614842   2.866   2.132   0.497 -0.2720 -0.2045 -0.3631
   39MOL   C32714843   2.865   2.082   0.637  0.3168 -0.0117 -0.4137
   39MOL   C32814844   2.903   2.202   0.729  0.0567 -0.3973 -0.9380
   39MOL   C32914845   2.859   2.192   0.876  0.4954  0.6395  0.1283
   39MOL   C33014846   2.919   2.305   0.965 -0.5820 -0.0491 -0.2074
   39MOL   C33114847   2.826   2.315   0.653 -0.7688 -0.7480 -0.0811
   39MOL   H33214848   2.726   2.276   0.462 -0.2456 -0.7266  0.0956
   39MOL   H33314849   2.964   2.125   0.449 -0.4087 -0.6445 -0.5794
   39MOL   H33414850   2.800   2.082   0.425  1.9091 -1.3733 -1.6272
   39MOL   H33514851   2.772   2.030   0.661 -0.2965  1.2198 -0.0529
   39MOL   H33614852   2.939   2.003   0.644 -0.9131 -1.0752  0.7399
   39MOL   H33714853   3.007   2.236   0.721 -0.3637  0.8778 -1.1550
   39MOL   H33814854   2.752   2.209   0.887  0.1073 -0.5045 -1.8339
   39MOL   H33914855   2.889   2.096   0.918 -3.4476 -0.2840  1.0168
   39MOL   H34014856   3.023   2.325   0.940 -0.1318 -0.3952  1.3164
   39MOL   H34114857   2.863   2.397   0.949  0.5750  0.3878 -1.8767
   39MOL   H34214858   2.855   2.416   0.682 -1.0433 -0.4415 -0.8724
   39MOL   H34314859   2.720   2.312   0.676 -0.8025  0.3693 -0.0521
   39MOL   C34414860   2.928   2.262   1.118 -0.1730  0.3742  0.0271
   39MOL   C34514861   2.780   2.236   1.165  0.1075  1.3511  0.6520
   39MOL   C34614862   2.787   2.271   1.315  0.4274 -0.3883  0.5695
   39MOL   C34714863   2.867   2.407   1.298  0.0184 -0.3796 -0.3980
   39MOL   C34814864   2.921   2.460   1.433 -0.2445 -0.2345 -0.1296
   39MOL   C34914865   2.818   2.567   1.479  0.2978  0.7021 -0.3485
   39MOL   C35014866   2.982   2.366   1.206 -0.0226 -0.3390  0.5551
   39MOL   H35114867   2.988   2.172   1.132  0.8429  1.4374  2.9639
   39MOL   H35214868   2.758   2.130   1.150  2.1574  1.3022 -2.3924
   39MOL   H35314869   2.706   2.303   1.123 -0.5352  1.1571  1.4434
   39MOL   H35414870   2.683   2.284   1.342 -0.1500  0.2963 -1.8379
   39MOL   H35514871   2.838   2.188   1.364 -1.9270 -2.2653 -0.1033
   39MOL   H35614872   2.800   2.474   1.244  0.9890  0.3484 -0.7273
   39MOL   H35714873   2.921   2.371   1.496 -1.7864  0.5308  0.9699
   39MOL   H35814874   3.019   2.506   1.416 -0.1441 -1.3318 -2.8073
   39MOL   H35914875   2.714   2.539   1.490  0.8268 -1.6951 -1.1946
   39MOL   H36014876   2.814   2.637   1.396 -1.8441  0.7654 -0.2107
   39MOL   H36114877   3.030   2.445   1.148 -2.0974  0.6574  0.1257
   39MOL   H36214878   3.062   2.319   1.264 -0.3172 -0.3305  0.9695
   39MOL   C36314879   2.862   2.634   1.612 -0.0841  0.1237 -0.1035
   39MOL   C36414880   2.863   2.537   1.735 -0.3108 -0.3649  0.2734
   39MOL   C36514881   2.824   2.624   1.856  0.1660  0.7261 -0.1426
   39MOL   C36614882   2.820   2.769   1.810 -0.6904  0.2766  0.7197
   39MOL   C36714883   2.729   2.858   1.898  0.4486  0.7920 -0.4621
   39MOL   C36814884   2.717   3.001   1.850  0.2732  0.7053 -0.0107
   39MOL   C36914885   2.781   2.759   1.661 -0.8468  0.2698 -0.6534
   39MOL   H37014886   2.960   2.677   1.595  1.0289 -1.9854  0.8911
   39MOL   H37114887   2.788   2.460   1.717 -0.3802  0.0121 -1.1544
   39MOL   H37214888   2.962   2.492   1.745  0.4019  0.9990 -0.4855
   39MOL   H37314889   2.727   2.590   1.891 -0.1751  2.0626  0.2377
   39MOL   H37414890   2.893   2.614   1.940 -0.0136 -3.2688 -0.3583
   39MOL   H37514891   2.920   2.812   1.808 -1.4039  1.9935 -0.9357
   39MOL   H37614892   2.626   2.824   1.909  0.6938  0.1242 -0.1489
   39MOL   H37714893   2.775   2.865   1.997 -1.1359  2.5625  0.1804
   39MOL   H37814894   2.816   3.047   1.855  1.4972 -1.9135  0.5387
   39MOL   H37914895   2.647   3.056   1.912  1.2574  0.2256  1.5447
   39MOL   H38014896   2.681   2.724   1.634 -0.8467  0.1971 -0.5605
   39MOL   H38114897   2.800   2.851   1.606  3.3080  0.2374  0.5293
   39MOL   H38214898   2.669   3.002   1.752  0.4320 -0.0354 -0.0987
   40MOL     C114899   3.154   0.435   5.132  0.0623  0.1040  0.3444
   40MOL     C214900   3.224   0.421   4.993 -0.5229 -0.1273  0.0253
   40MOL     C314901   3.123   0.417   4.884 -0.1189  0.3571  0.0443
   40MOL     C414902   2.993   0.455   4.956 -0.5542  0.2186  0.2468
   40MOL     C514903   2.861   0.399   4.902 -0.2956 -0.1816  0.0589
   40MOL     C614904   2.840   0.447   4.755 -0.3937  0.2949 -0.4645
   40MOL     C714905   3.011   0.414   5.105  0.1064 -0.0555  0.2102
   40MOL     H814906   3.197   0.363   5.202 -0.5872 -2.4903 -1.8275
   40MOL     H914907   3.274   0.325   5.006 -0.7567 -0.0631  1.4724
   40MOL    H1014908   3.299   0.498   4.974 -1.8737  1.4722  1.0528
   40MOL    H1114909   3.149   0.476   4.796 -0.2853 -0.7898 -0.7894
   40MOL    H1214910   3.125   0.314   4.849  0.1613 -0.1141  1.4275
   40MOL    H1314911   2.974   0.562   4.960  0.0960  0.3512 -0.2707
   40MOL    H1414912   2.866   0.291   4.913 -0.7126 -0.1075  1.0806
   40MOL    H1514913   2.778   0.439   4.960 -1.6973 -0.1058 -1.9636
   40MOL    H1614914   2.821   0.554   4.759 -3.0740 -0.1982  1.3156
   40MOL    H1714915   2.930   0.433   4.694 -0.3992  0.4238 -0.5005
   40MOL    H1814916   2.945   0.467   5.173 -1.9324 -3.2777  0.8844
   40MOL    H1914917   2.985   0.310   5.127 -0.6566  0.7409  3.3395
   40MOL    H2014918   3.174   0.527   5.187  0.5709 -0.5405  1.2773
   40MOL    C2114919   2.722   0.373   4.688 -0.5405 -0.0888  0.0273
   40MOL    C2214920   2.587   0.430   4.722 -0.2356  0.0130  0.2360
   40MOL    C2314921   2.494   0.417   4.599  0.9490 -0.5980 -0.6932
   40MOL    C2414922   2.579   0.342   4.495  0.5623 -1.0223 -0.0145
   40MOL    C2514923   2.556   0.377   4.351  0.3710 -0.8484  0.0029
   40MOL    C2614924   2.630   0.289   4.256 -0.3115  0.8418  0.3676
   40MOL    C2714925   2.730   0.375   4.535  0.2486  0.1985  0.8508
   40MOL    H2814926   2.728   0.274   4.732  0.7301  0.1513  0.3983
   40MOL    H2914927   2.541   0.388   4.812 -1.4686 -1.7593 -1.1758
   40MOL    H3014928   2.594   0.535   4.749 -0.2935 -0.1816  1.0155
   40MOL    H3114929   2.392   0.381   4.613  0.4664  0.6519 -0.9209
   40MOL    H3214930   2.479   0.521   4.570 -1.5338  0.3911  3.6927
   40MOL    H3314931   2.569   0.234   4.510 -0.4798 -0.7241  1.5964
   40MOL    H3414932   2.578   0.483   4.339  1.1493 -0.8792  1.0444
   40MOL    H3514933   2.453   0.370   4.317  0.5107  1.7840 -1.0533
   40MOL    H3614934   2.575   0.196   4.268 -0.1030  0.8220  1.2318
   40MOL    H3714935   2.737   0.277   4.273 -0.6383 -0.6963  1.4077
   40MOL    H3814936   2.804   0.313   4.485  1.1357  0.4570  1.8229
   40MOL    H3914937   2.749   0.476   4.498  1.7160 -0.5128 -0.4296
   40MOL    C4014938   2.613   0.348   4.119  0.0685  0.3268 -0.2809
   40MOL    C4114939   2.701   0.471   4.101  0.7363  0.8920  0.2778
   40MOL    C4214940   2.721   0.492   3.950 -0.9359 -0.2693 -0.4468
   40MOL    C4314941   2.716   0.350   3.894  0.0370  0.2802  0.5755
   40MOL    C4414942   2.632   0.320   3.764  0.2238 -0.4738 -0.5926
   40MOL    C4514943   2.645   0.179   3.707  0.9113 -0.0894  0.2402
   40MOL    C4614944   2.667   0.260   4.005  0.5567  0.2530 -0.3504
   40MOL    H4714945   2.512   0.378   4.092 -0.4023  0.7752  1.8822
   40MOL    H4814946   2.789   0.470   4.166  1.0242 -1.0514 -0.1103
   40MOL    H4914947   2.653   0.563   4.134  0.2099  1.0789 -0.9896
   40MOL    H5014948   2.643   0.557   3.911  0.2200  0.8003 -1.0123
   40MOL    H5114949   2.821   0.533   3.933 -0.1304 -1.3020  1.5744
   40MOL    H5214950   2.820   0.322   3.879  0.6212  2.5953  0.0758
   40MOL    H5314951   2.529   0.350   3.785  0.6586  1.2641 -0.8661
   40MOL    H5414952   2.656   0.394   3.688 -2.2594  1.8370  0.7815
   40MOL    H5514953   2.586   0.111   3.768  1.8814 -0.5022  0.7248
   40MOL    H5614954   2.748   0.145   3.703  0.3825 -1.6418 -0.6440
   40MOL    H5714955   2.580   0.199   3.982  0.4305  0.0332  0.6661
   40MOL    H5814956   2.749   0.197   4.040 -1.5117 -1.7916  0.9975
   40MOL    C5914957   2.600   0.156   3.562 -0.3362  0.1113 -0.0457
   40MOL    C6014958   2.626   0.006   3.530 -0.4195 -0.3058  0.6519
   40MOL    C6114959   2.493   7.607   3.471 -0.8791 -0.0082 -1.0109
   40MOL    C6214960   2.388   0.044   3.537 -0.1263  0.1040 -0.5513
   40MOL    C6314961   2.250   0.061   3.469  0.3067  0.1526  0.1145
   40MOL    C6414962   2.142   0.138   3.554  0.1846 -0.4870 -0.2617
   40MOL    C6514963   2.448   0.185   3.549 -0.3767 -0.2925 -0.0305
   40MOL    H6614964   2.662   0.209   3.491 -1.1638  0.4068 -0.5563
   40MOL    H6714965   2.701   7.636   3.452  0.7031  1.6946  1.2551
   40MOL    H6814966   2.644   7.595   3.620  4.4195  1.1479  0.7773
   40MOL    H6914967   2.491   7.632   3.365 -0.8648  1.2024 -0.7309
   40MOL    H7014968   2.465   7.503   3.482  0.3391 -0.3998 -1.5561
   40MOL    H7114969   2.370   0.011   3.639 -0.3372  1.9184  0.0112
   40MOL    H7214970   2.215   7.608   3.445 -0.0649  0.5197 -0.8955
   40MOL    H7314971   2.253   0.091   3.364 -2.1145  0.9648  0.2458
   40MOL    H7414972   2.117   0.074   3.639  1.4972  0.1396  0.6265
   40MOL    H7514973   2.173   0.234   3.596 -0.0540  0.2732 -1.8080
   40MOL    H7614974   2.436   0.249   3.461 -0.6210 -0.4917 -0.1445
   40MOL    H7714975   2.403   0.240   3.631 -1.5624  0.0742 -0.9113
   40MOL    C7814976   2.006   0.153   3.483 -0.2096  0.4125 -0.3807
   40MOL    C7914977   1.896   0.169   3.581  0.1512 -0.0484 -0.1482
   40MOL    C8014978   1.792   0.241   3.495 -0.4629  0.0475 -0.4957
   40MOL    C8114979   1.860   0.294   3.367 -0.1842  0.0571 -0.2400
   40MOL    C8214980   1.821   0.430   3.312 -0.4702  0.1011 -0.4796
   40MOL    C8314981   1.694   0.432   3.236  0.4094 -0.0563  0.4119
   40MOL    C8414982   2.005   0.277   3.396  0.5565  0.5321  0.3263
   40MOL    H8514983   1.990   0.069   3.414  0.4643  0.1768 -0.2588
   40MOL    H8614984   1.867   0.071   3.618 -0.1145 -0.1706 -0.6821
   40MOL    H8714985   1.914   0.229   3.671  1.5678 -0.2204 -0.3031
   40MOL    H8814986   1.707   0.175   3.475  0.6215 -1.1518 -1.2235
   40MOL    H8914987   1.752   0.327   3.549 -1.1850 -0.4159 -0.2804
   40MOL    H9014988   1.837   0.230   3.282 -3.1440  1.3439 -0.4637
   40MOL    H9114989   1.907   0.466   3.257 -0.1407  1.5325  0.9465
   40MOL    H9214990   1.819   0.496   3.399 -1.8308  0.9507 -1.1410
   40MOL    H9314991   1.618   0.362   3.272 -0.9312  0.1095 -1.9796
   40MOL    H9414992   1.718   0.385   3.140  1.7648  1.6025 -0.0797
   40MOL    H9514993   2.043   0.364   3.449 -0.1225  0.0722  1.5762
   40MOL    H9614994   2.069   0.262   3.309 -1.4726  0.0289 -1.1044
   40MOL    C9714995   1.647   0.579   3.216  0.4938 -0.5269  0.0582
   40MOL    C9814996   1.740   0.665   3.123 -0.1472 -0.2424 -0.2887
   40MOL    C9914997   1.701   0.813   3.148  0.1134  0.0809  0.2681
   40MOL   C10014998   1.630   0.823   3.286  0.4173 -0.2757  0.2944
   40MOL   C10114999   1.717   0.896   3.393  1.8240  0.1384  0.8197
   40MOL   C10215000   1.629   0.933   3.515 -0.4052  0.0732 -0.2557
   40MOL   C10315001   1.603   0.678   3.329  0.3023 -0.6343 -0.4811
   40MOL   H10415002   1.558   0.566   3.154 -0.3143  0.4306  0.9963
   40MOL   H10515003   1.838   0.649   3.167 -0.7714  0.5402  1.4298
   40MOL   H10615004   1.742   0.635   3.018 -1.5304  0.5283 -0.5522
   40MOL   H10715005   1.778   0.890   3.141  1.2464 -1.1598 -1.4733
   40MOL   H10815006   1.627   0.839   3.072  0.9708 -0.9208 -0.9367
   40MOL   H10915007   1.530   0.864   3.274  0.4655 -0.8436 -2.3077
   40MOL   H11015008   1.796   0.833   3.435 -0.4013 -1.9025  2.0626
   40MOL   H11115009   1.752   0.989   3.347 -1.1635  0.5254 -0.8289
   40MOL   H11215010   1.552   0.997   3.472  0.2895  1.9815  1.2349
   40MOL   H11315011   1.582   0.847   3.561  1.0961  0.1540  1.5240
   40MOL   H11415012   1.658   0.653   3.420 -2.1116 -0.1687  1.1542
   40MOL   H11515013   1.495   0.664   3.340  0.2810 -0.7569 -0.8381
   40MOL   C11615014   1.705   1.018   3.621 -0.3254  0.2749 -0.0992
   40MOL   C11715015   1.748   1.151   3.569 -0.6302 -0.6095 -0.0944
   40MOL   C11815016   1.769   1.235   3.701  0.2815 -0.2563 -0.6476
   40MOL   C11915017   1.686   1.167   3.807  0.4132 -0.1127  0.0040
   40MOL   C12015018   1.592   1.273   3.867  0.4307 -0.8471  0.5192
   40MOL   C12115019   1.544   1.197   4.000 -0.3772 -0.5568 -0.3926
   40MOL   C12215020   1.617   1.054   3.737  0.2684 -0.2766 -0.8176
   40MOL   H12315021   1.787   0.961   3.664 -0.3698 -0.3690 -0.8391
   40MOL   H12415022   1.670   1.192   3.505 -0.1155 -2.8068 -2.2190
   40MOL   H12515023   1.839   1.148   3.509 -0.9795 -2.4323 -0.5751
   40MOL   H12615024   1.752   1.341   3.683 -3.5094 -0.8225 -0.8629
   40MOL   H12715025   1.874   1.238   3.731  0.2203 -0.4432 -0.4128
   40MOL   H12815026   1.763   1.130   3.874 -0.1321 -0.9618  0.1608
   40MOL   H12915027   1.501   1.306   3.817 -0.0061 -0.6199  1.4514
   40MOL   H13015028   1.656   1.354   3.901  0.4907  0.3869 -2.4038
   40MOL   H13115029   1.633   1.153   4.046  1.5909  2.9385 -0.6521
   40MOL   H13215030   1.480   1.115   3.969  1.2732 -2.5387  1.3448
   40MOL   H13315031   1.601   0.976   3.811  0.7517  1.7759  1.5461
   40MOL   H13415032   1.519   1.092   3.709  0.2047 -1.6341 -2.4912
   40MOL   C13515033   1.494   1.285   4.113  0.3839  0.7597  0.1134
   40MOL   C13615034   1.359   1.361   4.081  1.1590  0.5388  0.4179
   40MOL   C13715035   1.295   1.385   4.213  0.3217  0.3068 -0.1656
   40MOL   C13815036   1.330   1.253   4.287  0.7420 -0.1126  0.0074
   40MOL   C13915037   1.332   1.264   4.439  0.3782  0.0250 -0.3952
   40MOL   C14015038   1.195   1.312   4.506  0.2249 -0.4055  0.0551
   40MOL   C14115039   1.462   1.201   4.240  0.3044 -0.3645  0.2968
   40MOL   H14215040   1.568   1.358   4.144  2.2553 -0.8741 -0.4044
   40MOL   H14315041   1.363   1.453   4.023 -0.1009  0.3450  0.0244
   40MOL   H14415042   1.293   1.287   4.035  2.2930 -0.3392  0.1584
   40MOL   H14515043   1.342   1.464   4.271 -0.9209 -1.0379  2.7577
   40MOL   H14615044   1.187   1.397   4.205  0.3618  0.7490 -0.0935
   40MOL   H14715045   1.264   1.176   4.247  0.0830  0.1513  0.5790
   40MOL   H14815046   1.410   1.331   4.478  0.5874 -0.7968  0.6140
   40MOL   H14915047   1.358   1.166   4.479  2.4298  0.9299  0.5706
   40MOL   H15015048   1.172   1.409   4.461  0.8769  0.2989  1.2303
   40MOL   H15115049   1.107   1.251   4.486  0.7595 -0.9190 -0.7930
   40MOL   H15215050   1.434   1.098   4.217 -1.6677  0.5004 -1.3320
   40MOL   H15315051   1.551   1.208   4.302  0.0468  2.0878  0.4325
   40MOL   C15415052   1.198   1.336   4.666  0.2671  0.7842  0.1604
   40MOL   C15515053   1.071   1.408   4.722 -0.4386 -0.6184 -0.3675
   40MOL   C15615054   1.111   1.473   4.859  0.2232  0.2998  0.6725
   40MOL   C15715055   1.261   1.488   4.853  0.2689 -0.3237  0.1252
   40MOL   C15815056   1.310   1.630   4.878 -0.5587 -0.4485  0.0988
   40MOL   C15915057   1.459   1.638   4.911 -0.7321 -0.2938 -0.8652
   40MOL   C16015058   1.296   1.435   4.716  0.2628 -0.2257 -0.3739
   40MOL   H16115059   1.210   1.241   4.718  0.9668  0.6826 -0.1867
   40MOL   H16215060   1.058   1.496   4.658 -0.2708  0.0629  0.5290
   40MOL   H16315061   0.977   1.352   4.720 -0.2400 -1.1058  2.4373
   40MOL   H16415062   1.066   1.571   4.871 -0.1770  0.2076 -0.0279
   40MOL   H16515063   1.084   1.405   4.940 -0.9577 -1.6645 -1.3044
   40MOL   H16615064   1.297   1.418   4.928 -1.8123 -0.7252  0.7729
   40MOL   H16715065   1.251   1.677   4.958  0.4915 -0.0429  0.6495
   40MOL   H16815066   1.286   1.696   4.795  0.0627  0.2658  0.4771
   40MOL   H16915067   1.475   1.564   4.989 -0.3225 -0.4498 -1.0983
   40MOL   H17015068   1.522   1.609   4.827  0.0513 -1.1715  0.0067
   40MOL   H17115069   1.396   1.391   4.718 -0.0209 -0.9206 -0.9629
   40MOL   H17215070   1.291   1.518   4.646 -0.6370 -0.4925 -0.6329
   40MOL   C17315071   1.505   1.781   4.950  0.2126 -0.0936 -0.0375
   40MOL   C17415072   1.647   1.781   4.988 -0.4244 -0.3845 -0.2395
   40MOL   C17515073   1.686   1.936   4.993 -0.2985 -0.3514 -0.0251
   40MOL   C17615074   1.583   2.002   4.899  0.7212 -0.1064 -0.1881
   40MOL   C17715075   1.650   2.096   4.795  0.2576  0.8509 -0.8866
   40MOL   C17815076   1.544   2.170   4.713  0.4561 -0.0657  0.3056
   40MOL   C17915077   1.501   1.886   4.844 -0.1234  0.1777  0.1356
   40MOL   H18015078   1.437   1.810   5.030  0.5713  0.5760  0.0271
   40MOL   H18115079   1.709   1.735   4.911  1.0108 -2.7285  2.2345
   40MOL   H18215080   1.680   1.742   5.084 -2.0871 -1.6065 -0.1437
   40MOL   H18315081   1.675   1.988   5.088 -1.7744  0.3810 -0.5865
   40MOL   H18415082   1.787   1.945   4.954 -0.2937  1.4284  0.3298
   40MOL   H18515083   1.518   2.064   4.961  0.5616  0.5987 -1.0619
   40MOL   H18615084   1.710   2.042   4.722  0.4073 -2.0890  1.3068
   40MOL   H18715085   1.715   2.159   4.856 -0.0220 -0.1344  0.4567
   40MOL   H18815086   1.468   2.205   4.783  0.4067 -2.2978  1.4067
   40MOL   H18915087   1.491   2.094   4.656  1.9092  0.5240 -1.8750
   40MOL   H19015088   1.554   1.846   4.758 -2.1305 -0.6916 -0.7165
   40MOL   H19115089   1.398   1.899   4.812  0.3317  0.7994 -1.1129
   40MOL   C19215090   1.596   2.282   4.622  0.0849 -0.0071 -0.0537
   40MOL   C19315091   1.674   2.396   4.685  1.0581 -0.2192 -0.1153
   40MOL   C19415092   1.650   2.509   4.590  0.6318  0.4456  0.1212
   40MOL   C19515093   1.512   2.488   4.519  0.5916  0.3767  0.0835
   40MOL   C19615094   1.520   2.537   4.374 -0.2078  0.5587  0.1775
   40MOL   C19715095   1.392   2.581   4.311 -0.1352  0.2427 -0.2611
   40MOL   C19815096   1.480   2.346   4.539  0.0267 -0.1508 -0.0615
   40MOL   H19915097   1.667   2.227   4.560  0.8544 -2.2769  2.7453
   40MOL   H20015098   1.646   2.426   4.785  0.2153  0.1876 -0.4727
   40MOL   H20115099   1.778   2.363   4.692  0.8123 -1.1525 -0.7166
   40MOL   H20215100   1.735   2.504   4.521  1.2372 -1.8106  0.9930
   40MOL   H20315101   1.648   2.605   4.641 -0.6605  0.6078 -0.2128
   40MOL   H20415102   1.442   2.542   4.583  1.6048  1.3900  0.3587
   40MOL   H20515103   1.571   2.456   4.321  0.9803  1.3643  0.0738
   40MOL   H20615104   1.598   2.612   4.360 -0.2179  0.5248 -0.0635
   40MOL   H20715105   1.308   2.516   4.337 -0.0789 -0.0477 -0.7979
   40MOL   H20815106   1.400   2.564   4.204 -1.0220 -2.9630  0.1243
   40MOL   H20915107   1.449   2.288   4.452 -0.5527 -0.3068  0.2421
   40MOL   H21015108   1.401   2.341   4.614  0.6974 -0.3153  0.6419
   40MOL   C21115109   1.348   2.730   4.346 -0.0768  0.8434  0.3906
   40MOL   C21215110   1.230   2.781   4.263 -0.3886 -0.4238 -0.6820
   40MOL   C21315111   1.251   2.932   4.240  0.1008 -0.2278  0.3740
   40MOL   C21415112   1.398   2.959   4.286 -0.2204 -0.0088 -0.1659
   40MOL   C21515113   1.474   3.057   4.207  0.2135  0.0513 -0.0639
   40MOL   C21615114   1.602   3.102   4.272 -0.3045 -0.0971 -0.4980
   40MOL   C21715115   1.462   2.823   4.296  0.8879  0.0066 -1.0107
   40MOL   H21815116   1.325   2.734   4.452 -1.1728 -0.4893  0.2241
   40MOL   H21915117   1.213   2.727   4.169 -2.2077 -0.9364 -0.0808
   40MOL   H22015118   1.138   2.765   4.319 -0.1175 -0.2993 -0.2006
   40MOL   H22115119   1.240   2.947   4.132 -2.3245 -1.0048  0.4884
   40MOL   H22215120   1.180   2.996   4.292 -3.1984 -2.0408 -1.7155
   40MOL   H22315121   1.392   2.999   4.387  0.5543  0.3443 -0.2528
   40MOL   H22415122   1.419   3.150   4.194 -2.0791 -1.1960  0.5146
   40MOL   H22515123   1.496   3.012   4.110  0.3514  0.5795 -0.2773
   40MOL   H22615124   1.577   3.177   4.346  1.0534  0.2856 -0.4130
   40MOL   H22715125   1.657   3.014   4.307  1.3888  0.5854 -1.3627
   40MOL   H22815126   1.540   2.822   4.372 -2.1761  1.6430  2.3710
   40MOL   H22915127   1.502   2.796   4.199  0.7294 -1.0429 -0.7889
   40MOL   C23015128   1.700   3.180   4.181  0.4495 -0.4301 -0.6201
   40MOL   C23115129   1.758   3.091   4.064 -0.2549  0.0307  0.7521
   40MOL   C23215130   1.873   3.182   4.013 -0.7017 -0.1596  0.0621
   40MOL   C23315131   1.946   3.226   4.136  0.1611 -0.3860 -0.2520
   40MOL   C23415132   2.025   3.352   4.114 -0.3765 -0.0399  0.5735
   40MOL   C23515133   2.127   3.335   4.007 -0.3065 -0.4758 -0.5825
   40MOL   C23615134   1.828   3.230   4.241  0.0115  0.0546 -0.5021
   40MOL   H23715135   1.651   3.266   4.137  0.6330  0.2643  0.5116
   40MOL   H23815136   1.776   2.987   4.090  0.2845 -0.6472 -2.2232
   40MOL   H23915137   1.678   3.084   3.990  1.0536 -1.2391 -0.5634
   40MOL   H24015138   1.827   3.263   3.957 -1.7308 -1.2107 -0.6388
   40MOL   H24115139   1.923   3.127   3.934 -0.9486  0.8327 -0.7908
   40MOL   H24215140   1.999   3.135   4.161 -0.2568  0.2699  3.2935
   40MOL   H24315141   2.078   3.380   4.206 -2.1180 -1.6667  2.0952
   40MOL   H24415142   1.950   3.428   4.091  0.9087  0.9940 -0.3571
   40MOL   H24515143   2.202   3.262   4.038  0.4720  0.4653 -0.2074
   40MOL   H24615144   2.081   3.303   3.913  1.9936  1.0939 -2.3285
   40MOL   H24715145   1.817   3.323   4.298 -0.4271  0.3753 -1.1024
   40MOL   H24815146   1.856   3.154   4.314 -1.1172  0.0705 -0.0506
   40MOL   C24915147   2.191   3.468   3.974 -0.4129  0.4081  0.2863
   40MOL   C25015148   2.291   3.518   4.077  0.1363  0.2885 -0.6019
   40MOL   C25115149   2.397   3.601   4.005 -0.1854  0.3088 -0.4158
   40MOL   C25215150   2.370   3.572   3.857 -0.4115 -0.3327  0.6066
   40MOL   C25315151   2.345   3.695   3.762  0.0780  0.1400 -0.2347
   40MOL   C25415152   2.375   3.654   3.616 -0.2248  0.2203 -1.1744
   40MOL   C25515153   2.267   3.463   3.842  0.0798 -0.1870 -0.1280
   40MOL   H25615154   2.114   3.545   3.968 -0.7095  0.0235 -0.8264
   40MOL   H25715155   2.244   3.568   4.162  0.3283  1.1502 -1.0008
   40MOL   H25815156   2.344   3.433   4.119  0.9795  1.1136  0.0066
   40MOL   H25915157   2.503   3.593   4.031 -0.4040  2.0329  1.1504
   40MOL   H26015158   2.365   3.705   4.015  3.3421  1.3375  1.0879
   40MOL   H26115159   2.464   3.536   3.816  1.6503  0.7454  4.1543
   40MOL   H26215160   2.411   3.776   3.793 -0.6611  0.4101  0.6586
   40MOL   H26315161   2.251   3.746   3.781  0.4584  2.1593 -3.4345
   40MOL   H26415162   2.353   3.552   3.585 -0.4702  0.3825 -1.5348
   40MOL   H26515163   2.483   3.653   3.602  0.0770  0.0401  0.9924
   40MOL   H26615164   2.301   3.360   3.839  0.3885 -0.1975  2.6989
   40MOL   H26715165   2.198   3.492   3.763 -0.2082  0.7805  0.4672
   40MOL   C26815166   2.302   3.746   3.519 -0.2205 -0.1040  0.2104
   40MOL   C26915167   2.155   3.744   3.528  0.0110 -0.3025  0.4716
   40MOL   C27015168   2.097   3.793   3.389 -0.2960  0.5353  0.0084
   40MOL   C27115169   2.215   3.776   3.287 -0.3439 -0.7468  0.2342
   40MOL   C27215170   2.181   3.694   3.158  0.3899 -0.0772 -0.1527
   40MOL   C27315171   2.124   3.553   3.194  0.5353  0.8752  0.0614
   40MOL   C27415172   2.334   3.713   3.370 -0.1269  0.2083 -0.0739
   40MOL   H27515173   2.328   3.849   3.539  0.1657 -0.5014  1.7954
   40MOL   H27615174   2.129   3.639   3.542 -1.6219  0.2714  1.9555
   40MOL   H27715175   2.125   3.812   3.608 -0.4876 -0.7928  0.7044
   40MOL   H27815176   2.011   3.727   3.382  0.9741 -1.2657  0.7629
   40MOL   H27915177   2.071   3.898   3.398 -0.0712  0.7995 -2.1808
   40MOL   H28015178   2.232   3.879   3.253 -1.0933  0.1441  2.5213
   40MOL   H28115179   2.273   3.700   3.100 -0.8583 -1.1288 -2.3073
   40MOL   H28215180   2.116   3.756   3.095  1.0043 -1.2052 -1.9426
   40MOL   H28315181   2.180   3.508   3.276 -0.6550  0.9811  0.9453
   40MOL   H28415182   2.026   3.580   3.234 -0.8893  0.3884 -2.9305
   40MOL   H28515183   2.339   3.605   3.357 -1.3881  0.0598  0.6094
   40MOL   H28615184   2.434   3.742   3.337 -0.0098 -1.0774 -0.8765
   40MOL   C28715185   2.097   3.470   3.065  0.0161  0.8387  0.4362
   40MOL   C28815186   2.226   3.399   3.017 -0.5993  0.1133  0.9066
   40MOL   C28915187   2.193   3.250   3.014 -0.7807 -0.1548  0.0590
   40MOL   C29015188   2.042   3.241   3.014 -0.7725 -0.8800 -0.1693
   40MOL   C29115189   1.965   3.115   3.057  0.9792 -0.1918  0.3517
   40MOL   C29215190   2.033   2.980   3.031 -0.6412 -0.1137  0.3258
   40MOL   C29315191   1.989   3.366   3.080 -0.2400  0.3949  0.3267
   40MOL   H29415192   2.068   3.552   2.999  0.2900  0.5683 -0.0226
   40MOL   H29515193   2.252   3.434   2.917  0.7313  1.4833  1.7027
   40MOL   H29615194   2.299   3.417   3.096  1.0862  0.8314 -0.7665
   40MOL   H29715195   2.245   3.191   3.091  0.3373  0.5240 -0.1659
   40MOL   H29815196   2.232   3.220   2.917  1.0396  2.3191 -0.0163
   40MOL   H29915197   2.009   3.242   2.910 -0.0184  1.2677 -0.4067
   40MOL   H30015198   1.867   3.116   3.010  1.7100  0.0663 -1.2097
   40MOL   H30115199   1.958   3.121   3.166  1.0887 -3.2274  0.5452
   40MOL   H30215200   2.135   2.991   3.067 -0.1339  2.9185 -1.7924
   40MOL   H30315201   2.048   2.966   2.923  2.0338  2.1903  0.3453
   40MOL   H30415202   1.978   3.346   3.186  1.4221  0.3291  0.5025
   40MOL   H30515203   1.889   3.387   3.043 -0.6080 -0.5795  0.7619
   40MOL   C30615204   1.970   2.847   3.087 -0.4756 -0.1559  0.1399
   40MOL   C30715205   2.047   2.712   3.046 -0.0210 -0.3186 -0.1495
   40MOL   C30815206   2.076   2.632   3.174  0.0783  0.4848  0.4749
   40MOL   C30915207   1.968   2.683   3.274  0.4689 -0.0868 -0.5216
   40MOL   C31015208   1.986   2.651   3.423 -0.0716  0.1258  0.7575
   40MOL   C31115209   1.867   2.687   3.510 -0.0429 -0.0150 -1.0467
   40MOL   C31215210   1.973   2.839   3.244 -0.3796  0.0118  0.0187
   40MOL   H31315211   1.869   2.846   3.047 -0.0308  0.2710 -1.0028
   40MOL   H31415212   1.988   2.651   2.978  0.1509 -0.1396 -0.4641
   40MOL   H31515213   2.139   2.747   2.998  1.1152 -2.2959  0.5342
   40MOL   H31615214   2.076   2.524   3.165  1.4248  0.5439 -0.4258
   40MOL   H31715215   2.178   2.639   3.212  0.7381  0.6176 -1.2811
   40MOL   H31815216   1.868   2.652   3.246  0.9687 -1.5429 -0.7421
   40MOL   H31915217   2.000   2.544   3.443 -0.3462  0.2953  1.8683
   40MOL   H32015218   2.081   2.691   3.460  1.9238 -2.6231 -1.2159
   40MOL   H32115219   1.779   2.625   3.495 -1.0268  1.1782 -0.3043
   40MOL   H32215220   1.834   2.782   3.469 -0.1061  0.4438  0.0558
   40MOL   H32315221   2.068   2.876   3.282  0.5196 -0.4473 -1.7211
   40MOL   H32415222   1.890   2.897   3.284 -0.5897  0.3009 -0.8377
   40MOL   C32515223   1.900   2.680   3.658  0.9171 -0.0024  1.0364
   40MOL   C32615224   1.779   2.714   3.741  0.1480  0.1080 -0.5777
   40MOL   C32715225   1.805   2.675   3.885 -0.2635 -0.1241  0.4684
   40MOL   C32815226   1.876   2.537   3.862 -0.7867 -0.1079 -0.4560
   40MOL   C32915227   1.956   2.480   3.988 -0.5409  0.1539  0.3477
   40MOL   C33015228   1.870   2.394   4.085 -0.0409  0.0879  0.6847
   40MOL   C33115229   1.952   2.550   3.725 -0.0071  0.0362  0.6361
   40MOL   H33215230   1.973   2.754   3.690  0.3484  2.4266 -2.9907
   40MOL   H33315231   1.685   2.666   3.712  1.1454 -1.1304 -1.8247
   40MOL   H33415232   1.753   2.820   3.733 -0.2733 -0.0401 -1.2561
   40MOL   H33515233   1.884   2.744   3.916  1.3750 -1.6836 -0.1335
   40MOL   H33615234   1.713   2.680   3.943 -0.0819  1.5395  0.6651
   40MOL   H33715235   1.796   2.466   3.839 -0.1700  0.4201 -4.5684
   40MOL   H33815236   2.042   2.423   3.952 -1.4724 -1.2980  0.3345
   40MOL   H33915237   2.009   2.556   4.044 -1.5505  1.4380 -0.4213
   40MOL   H34015238   1.773   2.441   4.104 -0.8879 -0.3543 -2.2697
   40MOL   H34115239   1.845   2.305   4.028  4.1424  0.3762 -1.7766
   40MOL   H34215240   1.946   2.466   3.656  0.4844 -0.7531  1.5457
   40MOL   H34315241   2.057   2.562   3.753  0.2724  0.0866 -0.4336
   40MOL   C34415242   1.951   2.359   4.211 -0.0192  0.8594 -0.7372
   40MOL   C34515243   2.076   2.272   4.187  0.0371  0.2936  0.0242
   40MOL   C34615244   2.089   2.182   4.308 -0.5887 -0.3622  0.0062
   40MOL   C34715245   1.938   2.145   4.339 -0.9764  0.6897 -0.2940
   40MOL   C34815246   1.891   2.072   4.472  0.1587  0.6321 -0.1154
   40MOL   C34915247   1.984   1.960   4.511  0.7755  0.2750 -0.6086
   40MOL   C35015248   1.870   2.280   4.320  0.0943  0.1644 -0.4119
   40MOL   H35115249   1.997   2.443   4.263  1.1538 -0.5903  0.5931
   40MOL   H35215250   2.162   2.329   4.153  0.2880 -1.3214 -2.1560
   40MOL   H35315251   2.054   2.205   4.104  0.2573  0.3716 -0.0985
   40MOL   H35415252   2.157   2.100   4.285 -0.9962 -0.5739 -0.4630
   40MOL   H35515253   2.140   2.234   4.389  2.8061 -2.1904 -0.8628
   40MOL   H35615254   1.908   2.084   4.254 -0.4612  0.9093 -0.6322
   40MOL   H35715255   1.885   2.144   4.554  1.2428  1.2494 -0.5755
   40MOL   H35815256   1.787   2.038   4.470  0.9064 -1.7570  0.7562
   40MOL   H35915257   2.085   1.989   4.542  0.9388  1.4185 -2.1496
   40MOL   H36015258   2.008   1.902   4.422  1.3660  1.2416 -1.0921
   40MOL   H36115259   1.769   2.263   4.284  0.8597 -0.3223 -2.3764
   40MOL   H36215260   1.871   2.344   4.408  1.3438  0.1716 -0.4199
   40MOL   C36315261   1.917   1.859   4.597 -0.2277  0.1099 -0.3743
   40MOL   C36415262   2.014   1.745   4.631  0.1822  0.2211  0.2870
   40MOL   C36515263   1.927   1.622   4.667  0.8999 -0.6209  0.5622
   40MOL   C36615264   1.784   1.657   4.621 -0.7246 -0.3022  0.4437
   40MOL   C36715265   1.696   1.546   4.559 -0.0706 -0.7508  0.2775
   40MOL   C36815266   1.564   1.589   4.494 -0.3419  0.0379  0.4900
   40MOL   C36915267   1.803   1.779   4.532 -0.0186 -0.6959 -0.4472
   40MOL   H37015268   1.880   1.896   4.693  3.4692  1.9661  0.4537
   40MOL   H37115269   2.082   1.714   4.551  0.5531  0.4038  0.5323
   40MOL   H37215270   2.079   1.769   4.714  0.8851 -1.0222  0.1085
   40MOL   H37315271   1.957   1.535   4.608  2.0273  1.9457 -2.7672
   40MOL   H37415272   1.932   1.600   4.773 -0.3657  0.0798  0.7858
   40MOL   H37515273   1.728   1.695   4.706 -0.0835  1.3559  0.1522
   40MOL   H37615274   1.745   1.480   4.488  0.4227 -0.0356 -0.0505
   40MOL   H37715275   1.668   1.490   4.648 -0.3267  0.6491  1.0996
   40MOL   H37815276   1.519   1.512   4.431 -0.2128  0.6535 -0.3600
   40MOL   H37915277   1.591   1.667   4.423  2.6796 -0.5622  0.9005
   40MOL   H38015278   1.823   1.766   4.425 -0.3600 -1.6843 -0.3944
   40MOL   H38115279   1.704   1.824   4.537 -0.2467 -1.2234 -0.1848
   40MOL   H38215280   1.493   1.625   4.569 -1.5305  2.3682 -1.6984
   41MOL     C115281   6.953   4.600   6.661 -0.4299  0.0216  0.3102
   41MOL     C215282   7.016   4.596   6.513  0.2907  0.6611 -0.4484
   41MOL     C315283   6.954   4.725   6.451  0.0266  0.6298  0.2450
   41MOL     C415284   6.888   4.808   6.561 -0.5708  0.3098 -0.3806
   41MOL     C515285   6.784   4.909   6.503  0.2228 -0.4655  0.0739
   41MOL     C615286   6.837   5.000   6.392  0.6596  0.5496 -0.1123
   41MOL     C715287   6.834   4.695   6.643 -0.3519  0.1589 -0.0780
   41MOL     H815288   6.921   4.503   6.697  2.2383 -1.7742 -1.9188
   41MOL     H915289   6.984   4.505   6.462  1.0118 -0.1251  0.4830
   41MOL    H1015290   7.122   4.586   6.534 -0.3707 -2.0231  1.9257
   41MOL    H1115291   7.031   4.780   6.397  0.3095  0.8059  0.8136
   41MOL    H1215292   6.883   4.692   6.376  1.2280  0.8339 -1.0037
   41MOL    H1315293   6.961   4.860   6.623 -0.5334  1.2283 -1.1776
   41MOL    H1415294   6.698   4.853   6.466  1.2045 -1.1182 -1.2682
   41MOL    H1515295   6.739   4.971   6.581  2.5486  1.0152  0.3067
   41MOL    H1615296   6.928   5.036   6.440  0.5053  0.5610  0.1714
   41MOL    H1715297   6.843   4.933   6.306  0.6769 -0.1853  0.4553
   41MOL    H1815298   6.802   4.736   6.739  2.5604  0.5248  0.7676
   41MOL    H1915299   6.758   4.637   6.590  0.3085 -1.9595  1.2208
   41MOL    H2015300   7.023   4.646   6.731  0.6101  0.1833 -0.7999
   41MOL    C2115301   6.745   5.120   6.355 -0.0579 -0.3947  0.0461
   41MOL    C2215302   6.816   5.227   6.264 -0.2277  0.3344 -0.1004
   41MOL    C2315303   6.702   5.296   6.178 -0.5714  0.4503  0.0128
   41MOL    C2415304   6.579   5.219   6.200 -0.0626 -0.1099  0.8455
   41MOL    C2515305   6.502   5.182   6.070 -1.2801 -0.0574 -0.2793
   41MOL    C2615306   6.425   5.293   6.010  0.4955  0.2156  0.1898
   41MOL    C2715307   6.630   5.085   6.271 -0.2234  0.4047  0.3302
   41MOL    H2815308   6.709   5.163   6.448  0.2222 -0.9776  0.4267
   41MOL    H2915309   6.874   5.296   6.325  1.1193  0.8677 -1.9248
   41MOL    H3015310   6.892   5.171   6.210  0.4158  1.2020 -0.1059
   41MOL    H3115311   6.683   5.399   6.209 -2.2036 -0.5305  2.4160
   41MOL    H3215312   6.728   5.278   6.073  0.0605 -2.6898  0.6691
   41MOL    H3315313   6.506   5.267   6.266  0.8672  0.0746  1.7496
   41MOL    H3415314   6.428   5.108   6.098 -0.4930 -0.4573  0.7865
   41MOL    H3515315   6.561   5.138   5.990 -1.7382 -2.4356  0.6629
   41MOL    H3615316   6.484   5.382   5.990 -0.9527  0.8883 -1.0954
   41MOL    H3715317   6.364   5.328   6.093 -0.4067 -0.9076  0.0106
   41MOL    H3815318   6.552   5.038   6.331 -1.3512  1.3972 -0.3408
   41MOL    H3915319   6.667   5.015   6.196  1.5366  0.3967  1.1785
   41MOL    C4015320   6.325   5.241   5.900 -0.7705  0.5528  0.3591
   41MOL    C4115321   6.197   5.318   5.871  0.2259 -0.2873  0.4299
   41MOL    C4215322   6.138   5.253   5.744  1.0264 -0.2062 -0.0938
   41MOL    C4315323   6.259   5.237   5.656  0.0834  0.4354  0.2207
   41MOL    C4415324   6.240   5.123   5.545  0.2106  0.6558 -0.2620
   41MOL    C4515325   6.110   5.130   5.456  0.1964  0.0716 -0.1469
   41MOL    C4615326   6.379   5.214   5.757 -0.1810  0.3015 -0.0114
   41MOL    H4715327   6.294   5.144   5.939 -0.6973  0.0935 -0.7303
   41MOL    H4815328   6.204   5.425   5.852  2.4438 -0.6572 -1.0316
   41MOL    H4915329   6.122   5.304   5.948  0.0291 -3.2080 -0.2149
   41MOL    H5015330   6.091   5.156   5.760 -0.9246  0.6194 -0.7844
   41MOL    H5115331   6.065   5.317   5.696  0.3628 -2.3871 -2.0451
   41MOL    H5215332   6.284   5.328   5.603 -0.0570 -0.7715 -1.9840
   41MOL    H5315333   6.325   5.119   5.476  1.6211 -0.4924  1.4891
   41MOL    H5415334   6.242   5.028   5.597 -1.4409  1.8810  2.1250
   41MOL    H5515335   6.101   5.221   5.397 -0.0011  0.0022 -0.2231
   41MOL    H5615336   6.024   5.124   5.523 -0.5359 -0.0324 -1.0988
   41MOL    H5715337   6.421   5.113   5.762 -1.7393 -0.3481  0.2587
   41MOL    H5815338   6.458   5.285   5.732 -1.2756  1.6815  0.3719
   41MOL    C5915339   6.097   5.019   5.348  0.0000  0.0657  0.0491
   41MOL    C6015340   6.075   4.877   5.407  0.2952 -1.0630 -0.0336
   41MOL    C6115341   5.953   4.825   5.335 -1.1239 -0.2338 -0.3152
   41MOL    C6215342   5.871   4.949   5.296 -0.2383  1.0866  0.4350
   41MOL    C6315343   5.767   4.913   5.185  0.5334 -0.7696  0.0274
   41MOL    C6415344   5.652   4.828   5.236  0.2251  0.0361 -0.1895
   41MOL    C6515345   5.975   5.051   5.255  0.4217  0.8763  0.0133
   41MOL    H6615346   6.194   5.027   5.300 -0.4245 -0.5913 -0.9222
   41MOL    H6715347   6.162   4.814   5.389  1.6124  0.8825 -0.6725
   41MOL    H6815348   6.048   4.879   5.512  1.2453  2.9369  0.2170
   41MOL    H6915349   5.985   4.771   5.245  1.5363 -0.3121  0.6385
   41MOL    H7015350   5.903   4.758   5.405 -0.6281 -1.0072 -0.6876
   41MOL    H7115351   5.816   4.978   5.386 -0.9941 -1.7861  0.9676
   41MOL    H7215352   5.825   4.866   5.105 -1.0709 -0.7572 -1.1672
   41MOL    H7315353   5.720   5.005   5.151  0.1228 -0.8207  0.4535
   41MOL    H7415354   5.684   4.736   5.286  1.8854  1.7206  1.9606
   41MOL    H7515355   5.587   4.883   5.304  2.7848  0.1702  2.2464
   41MOL    H7615356   6.012   5.017   5.158 -0.6749 -0.2882 -0.0066
   41MOL    H7715357   5.951   5.157   5.253 -3.1180  0.1286  0.2501
   41MOL    C7815358   5.558   4.781   5.127  0.0477 -0.1314 -0.1324
   41MOL    C7915359   5.621   4.679   5.046  0.1320 -0.3426  0.1543
   41MOL    C8015360   5.507   4.586   5.002 -0.0907  0.0696 -0.1599
   41MOL    C8115361   5.376   4.639   5.062 -0.0877 -0.0922 -0.1673
   41MOL    C8215362   5.283   4.531   5.116  0.0779 -0.3056 -0.7423
   41MOL    C8315363   5.151   4.573   5.184  0.7624  0.3492 -0.1537
   41MOL    C8415364   5.423   4.736   5.173  0.3910 -0.6762 -0.0570
   41MOL    H8515365   5.545   4.862   5.054  1.1988 -0.3277 -0.5628
   41MOL    H8615366   5.684   4.719   4.966 -0.0883 -0.0838  0.1081
   41MOL    H8715367   5.682   4.620   5.114 -1.0528 -0.3391  1.2236
   41MOL    H8815368   5.496   4.580   4.894  3.7404 -0.0384 -0.6223
   41MOL    H8915369   5.534   4.483   5.026 -0.1420 -0.3365 -1.8060
   41MOL    H9015370   5.325   4.683   4.977  1.6613  1.3688 -0.4992
   41MOL    H9115371   5.346   4.471   5.182  0.0664  1.3270  0.8118
   41MOL    H9215372   5.262   4.469   5.029 -3.0640 -0.4979  0.0799
   41MOL    H9315373   5.092   4.606   5.098  2.2786  0.9159 -0.9761
   41MOL    H9415374   5.159   4.658   5.252 -0.4067 -1.4846  2.3765
   41MOL    H9515375   5.435   4.675   5.262 -2.1874 -0.3694  0.5290
   41MOL    H9615376   5.352   4.818   5.187  1.0190 -0.4605  2.0232
   41MOL    C9715377   5.082   4.457   5.255  0.1518 -0.0141  0.1582
   41MOL    C9815378   4.949   4.498   5.309  0.0843 -0.8285 -0.2699
   41MOL    C9915379   4.909   4.383   5.409  0.3784  1.2075  0.1138
   41MOL   C10015380   5.041   4.324   5.461  0.0279  0.1469 -0.2139
   41MOL   C10115381   5.057   4.312   5.617  0.3931 -0.2155  0.6424
   41MOL   C10215382   5.203   4.274   5.654 -0.2572  0.9010  0.3644
   41MOL   C10315383   5.149   4.406   5.389  0.5790  0.2742 -0.4485
   41MOL   H10415384   5.071   4.380   5.179 -1.7583  1.3983 -1.0444
   41MOL   H10515385   4.954   4.597   5.354 -0.9102  0.1509 -2.2048
   41MOL   H10615386   4.870   4.522   5.237  1.8108 -0.9612 -2.2530
   41MOL   H10715387   4.857   4.421   5.498  0.9787  1.5640  0.3122
   41MOL   H10815388   4.832   4.316   5.372 -1.6937  3.3285  0.4331
   41MOL   H10915389   5.041   4.219   5.432  1.5707 -0.1397  0.8036
   41MOL   H11015390   5.039   4.406   5.669 -0.0784 -0.6048  1.1837
   41MOL   H11115391   4.991   4.232   5.651 -1.8075  0.8353 -1.0472
   41MOL   H11215392   5.256   4.362   5.618  0.5749  0.5620  0.7405
   41MOL   H11315393   5.197   4.270   5.763  0.1402 -0.4186  0.3379
   41MOL   H11415394   5.169   4.487   5.460 -1.2292  0.7660 -0.4761
   41MOL   H11515395   5.238   4.346   5.373  0.0239 -1.4301  2.4106
   41MOL   C11615396   5.258   4.147   5.586  0.3709 -0.2639 -0.4400
   41MOL   C11715397   5.399   4.106   5.621 -0.5678 -1.0638  0.0109
   41MOL   C11815398   5.402   3.955   5.590  0.1445  0.2571  0.8940
   41MOL   C11915399   5.271   3.905   5.635 -0.4707 -0.0815  0.8013
   41MOL   C12015400   5.276   3.843   5.779  0.1288 -0.2544  0.1988
   41MOL   C12115401   5.151   3.781   5.831  0.2079  0.0783 -0.4258
   41MOL   C12215402   5.172   4.022   5.616  0.1954 -0.3360  0.2710
   41MOL   H12315403   5.250   4.159   5.478  1.2088  1.0349 -0.3612
   41MOL   H12415404   5.420   4.135   5.724 -0.3006 -2.5349  0.3847
   41MOL   H12515405   5.475   4.146   5.554 -0.5874  0.1171  0.6711
   41MOL   H12615406   5.481   3.905   5.647  2.0765  0.0161 -1.9258
   41MOL   H12715407   5.414   3.938   5.483  0.0703 -0.0048  0.9279
   41MOL   H12815408   5.236   3.826   5.569  0.0920  1.6620 -1.6504
   41MOL   H12915409   5.313   3.919   5.848 -1.1488 -2.4764  3.4679
   41MOL   H13015410   5.353   3.767   5.780  2.0722  1.6136 -1.3295
   41MOL   H13115411   5.101   3.715   5.761 -1.0849  0.9621 -0.3424
   41MOL   H13215412   5.082   3.862   5.855  0.3710  0.1379 -0.1475
   41MOL   H13315413   5.102   4.002   5.536  1.6256  3.1130 -1.9681
   41MOL   H13415414   5.119   4.036   5.710 -0.3877  0.0678 -0.1218
   41MOL   C13515415   5.182   3.699   5.962 -0.0545 -0.0532  0.2931
   41MOL   C13615416   5.245   3.777   6.073 -0.2938 -0.7462  0.0738
   41MOL   C13715417   5.215   3.681   6.191 -0.9085  0.3831 -0.9289
   41MOL   C13815418   5.075   3.631   6.174  0.5455 -0.3362  0.1275
   41MOL   C13915419   5.040   3.507   6.260 -0.6561 -0.4174  0.8389
   41MOL   C14015420   4.891   3.495   6.294  0.3134 -0.5237 -0.5568
   41MOL   C14115421   5.067   3.620   6.023  0.4196  0.6497  0.2162
   41MOL   H14215422   5.248   3.624   5.920 -1.1105  0.1546 -1.7790
   41MOL   H14315423   5.354   3.779   6.063 -0.3923  0.9203 -0.8657
   41MOL   H14415424   5.200   3.875   6.090 -1.6667 -1.1940 -0.9355
   41MOL   H14515425   5.280   3.593   6.193 -1.1872  0.1870  0.0887
   41MOL   H14615426   5.235   3.731   6.286 -0.5967 -1.1779 -0.1624
   41MOL   H14715427   5.013   3.717   6.202  1.2413  0.8955 -1.9982
   41MOL   H14815428   5.099   3.512   6.352 -1.2707  1.7267  1.1546
   41MOL   H14915429   5.075   3.415   6.215  2.5473  0.8486  0.6220
   41MOL   H15015430   4.844   3.586   6.332 -1.6754 -1.7786  0.0631
   41MOL   H15115431   4.839   3.461   6.205  1.8954  0.2331 -1.7960
   41MOL   H15215432   4.972   3.660   5.987  0.8820  2.0537  0.5558
   41MOL   H15315433   5.092   3.521   5.984 -0.7860 -0.1562  1.4509
   41MOL   C15415434   4.866   3.382   6.396 -0.0496  0.3850  0.5485
   41MOL   C15515435   4.906   3.242   6.341 -0.4090 -0.5897  0.1190
   41MOL   C15615436   4.816   3.136   6.418 -0.2703  0.6624  0.3438
   41MOL   C15715437   4.720   3.217   6.495  0.2787  0.4901 -0.5257
   41MOL   C15815438   4.573   3.156   6.488  0.1629  0.0974 -0.6413
   41MOL   C15915439   4.551   3.038   6.578  0.4298 -0.3977  0.3106
   41MOL   C16015440   4.716   3.353   6.425  0.0027 -0.4209  0.1823
   41MOL   H16115441   4.922   3.407   6.486  0.0859 -0.7080  0.7745
   41MOL   H16215442   4.889   3.239   6.234 -0.3625  0.2531  0.0861
   41MOL   H16315443   5.012   3.223   6.356 -0.8679 -3.2672  0.1503
   41MOL   H16415444   4.766   3.077   6.342 -1.3639  2.7916 -0.6482
   41MOL   H16515445   4.876   3.071   6.482 -1.7698 -0.6527  0.4383
   41MOL   H16615446   4.754   3.232   6.597 -0.0055 -0.1267 -0.3413
   41MOL   H16715447   4.553   3.119   6.388 -2.4660 -1.6592  0.4808
   41MOL   H16815448   4.491   3.224   6.509  0.1994 -0.5944  1.9198
   41MOL   H16915449   4.468   2.973   6.550  0.9130 -0.4345 -1.0590
   41MOL   H17015450   4.629   2.968   6.548 -0.5313 -0.9907 -0.8108
   41MOL   H17115451   4.668   3.429   6.485  0.6280  1.5014 -1.6845
   41MOL   H17215452   4.667   3.343   6.328 -2.1458 -0.9002  1.2837
   41MOL   C17315453   4.564   3.066   6.728 -0.0640 -0.2426  0.2294
   41MOL   C17415454   4.423   3.099   6.791 -0.9168  0.6835 -0.5201
   41MOL   C17515455   4.444   3.042   6.927  0.2254 -0.2878 -0.2505
   41MOL   C17615456   4.537   2.929   6.923 -0.6619 -0.0677 -0.3932
   41MOL   C17715457   4.474   2.795   6.964 -0.6872  0.7356 -0.5130
   41MOL   C17815458   4.458   2.788   7.116 -0.9127 -0.6486  1.1900
   41MOL   C17915459   4.613   2.935   6.792 -0.3825 -0.3573  0.0663
   41MOL   H18015460   4.643   3.140   6.741  0.0095 -0.3582  0.4344
   41MOL   H18115461   4.348   3.039   6.742 -0.7642 -0.5804  0.7615
   41MOL   H18215462   4.416   3.208   6.788  1.3852  0.8746 -0.1573
   41MOL   H18315463   4.474   3.120   6.997 -0.7964 -0.0792 -0.0379
   41MOL   H18415464   4.352   3.012   6.977  0.5651 -0.3886  0.3154
   41MOL   H18515465   4.608   2.947   7.004  1.6898 -0.9277 -2.1916
   41MOL   H18615466   4.514   2.702   6.923 -0.4257  1.3059 -1.5708
   41MOL   H18715467   4.376   2.794   6.919 -1.3621 -1.5702  0.8871
   41MOL   H18815468   4.431   2.887   7.153 -0.3041 -0.2409  0.5469
   41MOL   H18915469   4.551   2.755   7.164 -0.4664 -2.4651 -0.8680
   41MOL   H19015470   4.589   2.848   6.731 -0.0572 -0.6430  0.3442
   41MOL   H19115471   4.722   2.924   6.798 -0.6041 -3.1274 -0.4152
   41MOL   C19215472   4.343   2.698   7.155 -0.3591 -0.2732 -0.6257
   41MOL   C19315473   4.202   2.766   7.144 -0.2475  0.4980 -0.0826
   41MOL   C19415474   4.146   2.787   7.287 -0.2326 -0.7453 -0.1923
   41MOL   C19515475   4.261   2.752   7.385  0.3031 -0.7186 -0.5568
   41MOL   C19615476   4.218   2.701   7.527 -0.4665 -0.0107  0.7705
   41MOL   C19715477   4.326   2.710   7.637 -0.4747  0.1016  0.0895
   41MOL   C19815478   4.345   2.657   7.302 -0.0113  0.4535  0.7397
   41MOL   H19915479   4.356   2.602   7.105 -2.1263 -1.0976  0.4304
   41MOL   H20015480   4.210   2.858   7.085 -0.5562  0.3149 -0.4157
   41MOL   H20115481   4.139   2.690   7.098  1.6521  0.3308 -2.5322
   41MOL   H20215482   4.069   2.712   7.306  2.3913 -3.0283  1.8496
   41MOL   H20315483   4.117   2.888   7.314  0.2266 -0.6953  0.1223
   41MOL   H20415484   4.320   2.842   7.402 -0.8631 -0.3877  1.8970
   41MOL   H20515485   4.171   2.604   7.508 -0.8261  0.5362 -1.2517
   41MOL   H20615486   4.127   2.749   7.562 -0.7147  0.3051 -0.2891
   41MOL   H20715487   4.394   2.788   7.601  1.2356 -1.3833  0.0721
   41MOL   H20815488   4.379   2.615   7.639  1.9517  1.4329  1.3103
   41MOL   H20915489   4.291   2.562   7.299  1.0478 -0.1679  0.7334
   41MOL   H21015490   4.443   2.641   7.349 -0.0221 -1.4052  0.1772
   41MOL   C21115491   4.275   2.748   0.128 -0.1072  0.1029 -0.7721
   41MOL   C21215492   4.388   2.792   0.217  0.2595  0.5015 -0.4569
   41MOL   C21315493   4.329   2.766   0.356  0.0716 -0.2722  0.2627
   41MOL   C21415494   4.201   2.672   0.350 -0.4702  0.6301 -0.2269
   41MOL   C21515495   4.222   2.546   0.436 -0.0863 -0.0652  0.1654
   41MOL   C21615496   4.219   2.574   0.583  0.0120 -0.5724 -0.5148
   41MOL   C21715497   4.192   2.633   0.205 -0.4722 -0.5221 -0.9394
   41MOL   H21815498   4.214   2.837   0.110  0.6170  0.9852  1.0031
   41MOL   H21915499   4.491   2.757   0.210 -0.0939 -1.0245  1.5869
   41MOL   H22015500   4.402   2.900   0.215  1.0409  0.4351  0.9064
   41MOL   H22115501   4.403   2.707   0.411 -0.4941 -0.2890  1.0035
   41MOL   H22215502   4.308   2.861   0.405 -2.1760 -0.2037 -0.7735
   41MOL   H22315503   4.114   2.727   0.385 -1.5296 -0.9066 -0.3904
   41MOL   H22415504   4.309   2.486   0.409 -0.0094 -0.4441  1.2159
   41MOL   H22515505   4.145   2.474   0.409  1.2229 -1.6861  0.6254
   41MOL   H22615506   4.281   2.661   0.607 -2.5835  1.8181 -2.1556
   41MOL   H22715507   4.120   2.611   0.611  0.0515  0.6976 -2.0048
   41MOL   H22815508   4.086   2.627   0.181 -1.2907 -1.9458  2.6885
   41MOL   H22915509   4.249   2.541   0.198  1.3077  0.5707 -1.2596
   41MOL   C23015510   4.261   2.449   0.668 -0.5543  0.2074 -0.6688
   41MOL   C23115511   4.192   2.312   0.647 -0.5916  0.0220  0.2755
   41MOL   C23215512   4.207   2.232   0.781  0.1564  0.7349 -0.3992
   41MOL   C23315513   4.272   2.327   0.885 -0.0050 -0.1892  0.0283
   41MOL   C23415514   4.418   2.285   0.899  0.5130  0.6878  0.1806
   41MOL   C23515515   4.523   2.389   0.956 -0.0192  0.5214 -0.2249
   41MOL   C23615516   4.242   2.466   0.819  0.3537  0.1717  0.1314
   41MOL   H23715517   4.362   2.431   0.631 -0.6485 -1.6128 -0.0789
   41MOL   H23815518   4.088   2.330   0.618 -0.8214 -0.6635  0.6576
   41MOL   H23915519   4.229   2.258   0.560 -0.2430 -0.6105  0.8058
   41MOL   H24015520   4.275   2.147   0.776 -0.5816 -0.0414  2.0492
   41MOL   H24115521   4.118   2.183   0.820 -1.8959  2.7330 -2.4237
   41MOL   H24215522   4.210   2.310   0.973  0.0243 -1.3307 -0.1664
   41MOL   H24315523   4.459   2.241   0.808 -2.7065 -1.7944 -0.1449
   41MOL   H24415524   4.414   2.209   0.977 -1.4401  0.3049 -0.2781
   41MOL   H24515525   4.627   2.368   0.932 -0.6138 -1.2097 -1.3451
   41MOL   H24615526   4.498   2.481   0.903  0.1598 -0.0611 -1.3301
   41MOL   H24715527   4.301   2.549   0.856  0.0035  0.6210 -0.3086
   41MOL   H24815528   4.139   2.499   0.834  0.6478  0.6276  1.1800
   41MOL   C24915529   4.513   2.405   1.105  0.1378 -0.4122  0.0874
   41MOL   C25015530   4.620   2.489   1.170 -0.9674  0.8454 -0.0764
   41MOL   C25115531   4.551   2.560   1.293  0.1553 -0.1744  0.3703
   41MOL   C25215532   4.408   2.513   1.290  0.1691  0.1127 -0.0655
   41MOL   C25315533   4.389   2.411   1.406  0.1147 -0.0739  0.0675
   41MOL   C25415534   4.241   2.377   1.431 -0.7942  0.2312 -0.8184
   41MOL   C25515535   4.379   2.457   1.153  0.7072 -0.0216  0.2920
   41MOL   H25615536   4.519   2.306   1.149 -0.4609 -0.3877  0.2352
   41MOL   H25715537   4.695   2.421   1.210 -1.7619 -0.3588 -0.6066
   41MOL   H25815538   4.660   2.561   1.099  0.9427 -1.7826 -1.7938
   41MOL   H25915539   4.558   2.669   1.296 -0.8271 -0.0059 -2.2208
   41MOL   H26015540   4.609   2.530   1.380 -1.3160  1.5114  1.9604
   41MOL   H26115541   4.337   2.592   1.316 -0.5700 -0.7201  0.4929
   41MOL   H26215542   4.431   2.443   1.502  0.1205  1.0579 -0.3121
   41MOL   H26315543   4.443   2.317   1.392 -1.0335 -0.7511  0.1375
   41MOL   H26415544   4.199   2.314   1.352  1.1420 -1.1608 -0.7793
   41MOL   H26515545   4.187   2.472   1.429 -0.0698  0.6598 -0.2598
   41MOL   H26615546   4.335   2.535   1.092  0.9466 -0.9128 -1.0246
   41MOL   H26715547   4.295   2.388   1.147 -0.7895  1.7916 -0.1117
   41MOL   C26815548   4.224   2.312   1.569 -0.5124  0.0139 -0.5239
   41MOL   C26915549   4.093   2.239   1.606  0.2487 -0.2438  0.4826
   41MOL   C27015550   4.086   2.235   1.759 -0.4488 -0.1346 -0.4557
   41MOL   C27115551   4.177   2.347   1.809 -0.4991 -0.0432 -0.5498
   41MOL   C27215552   4.099   2.444   1.901  0.2520  0.4957 -0.2087
   41MOL   C27315553   4.067   2.383   2.035 -0.2241  0.2147 -0.3382
   41MOL   C27415554   4.239   2.412   1.683 -0.0391 -0.7527  0.0244
   41MOL   H27515555   4.304   2.239   1.582 -1.9978 -1.4459  0.5703
   41MOL   H27615556   4.004   2.289   1.568 -0.0637 -0.8851  0.3655
   41MOL   H27715557   4.092   2.140   1.560  3.3898  0.2694 -0.8072
   41MOL   H27815558   3.987   2.242   1.802 -0.0061  1.6029  0.2908
   41MOL   H27915559   4.128   2.136   1.777 -1.0737  0.2987  3.8137
   41MOL   H28015560   4.266   2.315   1.863 -0.9237 -0.5586 -0.1526
   41MOL   H28115561   4.013   2.479   1.844  0.3059 -0.4141 -0.8573
   41MOL   H28215562   4.170   2.524   1.923  1.2171 -0.0798 -1.1491
   41MOL   H28315563   3.996   2.301   2.019  0.4940 -0.2402 -1.2338
   41MOL   H28415564   4.156   2.332   2.071 -0.9110 -2.1884 -1.8714
   41MOL   H28515565   4.186   2.496   1.638  1.8427 -0.0049 -0.8473
   41MOL   H28615566   4.340   2.445   1.704 -0.3597  0.4199 -0.2389
   41MOL   C28715567   4.022   2.479   2.148  0.0862  0.5120 -0.2867
   41MOL   C28815568   3.892   2.564   2.121  0.2039 -0.7818 -0.1673
   41MOL   C28915569   3.781   2.477   2.169  0.5825 -0.1888 -0.4821
   41MOL   C29015570   3.839   2.386   2.282 -0.0614 -0.3403  0.3709
   41MOL   C29115571   3.814   2.235   2.263  0.2482  0.3170 -0.0066
   41MOL   C29215572   3.815   2.136   2.386 -0.2873 -0.2960 -0.2984
   41MOL   C29315573   3.990   2.410   2.283 -0.0743 -0.6720  0.1744
   41MOL   H29415574   4.099   2.553   2.165  1.0650 -0.3502 -0.8865
   41MOL   H29515575   3.890   2.648   2.189 -1.0546 -1.0069  0.0840
   41MOL   H29615576   3.882   2.580   2.014 -0.3023 -2.4302 -0.3871
   41MOL   H29715577   3.746   2.415   2.086  0.0111 -0.8855  0.2738
   41MOL   H29815578   3.695   2.536   2.201 -0.0957  0.8019 -3.8692
   41MOL   H29915579   3.798   2.422   2.376  1.4772 -1.5285  1.5331
   41MOL   H30015580   3.886   2.211   2.185 -0.3242 -2.1092  0.1709
   41MOL   H30115581   3.717   2.231   2.213 -0.8108  1.0682  1.9088
   41MOL   H30215582   3.721   2.151   2.440 -0.8768 -2.6115 -0.6492
   41MOL   H30315583   3.889   2.177   2.455  0.6684 -1.2233 -0.7606
   41MOL   H30415584   4.052   2.323   2.304  0.0022 -0.4746  0.7584
   41MOL   H30515585   4.016   2.486   2.356 -0.1280  0.2743 -0.7793
   41MOL   C30615586   3.832   1.991   2.356  0.5520 -0.9810 -0.0732
   41MOL   C30715587   3.831   1.894   2.478 -0.3946  0.1190 -0.4853
   41MOL   C30815588   3.799   1.758   2.428 -0.7313  0.2974 -0.1722
   41MOL   C30915589   3.767   1.783   2.275 -0.2594 -0.1412  0.0414
   41MOL   C31015590   3.668   1.683   2.220  0.5496  0.5296 -0.6281
   41MOL   C31115591   3.641   1.685   2.070  0.2800 -0.7039  0.6392
   41MOL   C31215592   3.738   1.937   2.255  0.3759  0.0427 -0.5609
   41MOL   H31315593   3.936   1.988   2.322  0.5224  2.3890 -0.6843
   41MOL   H31415594   3.928   1.890   2.528 -1.2205 -0.4999  1.1094
   41MOL   H31515595   3.751   1.928   2.544 -0.1280  1.3498 -0.7802
   41MOL   H31615596   3.890   1.700   2.443 -1.0436  0.5166  2.7213
   41MOL   H31715597   3.717   1.716   2.486 -0.5230  0.7195  0.4244
   41MOL   H31815598   3.861   1.761   2.225  0.8975 -0.5744  2.3533
   41MOL   H31915599   3.698   1.583   2.254 -0.2169  0.1602 -1.0287
   41MOL   H32015600   3.572   1.711   2.262  0.6608  0.2954 -0.2126
   41MOL   H32115601   3.728   1.657   2.011  0.6154  2.1870 -0.3090
   41MOL   H32215602   3.620   1.791   2.056  3.1702 -0.2615 -0.8010
   41MOL   H32315603   3.633   1.949   2.282  0.5255  0.4630 -0.1581
   41MOL   H32415604   3.760   1.975   2.155 -0.2133 -0.7569 -0.9903
   41MOL   C32515605   3.535   1.583   2.022 -0.0636  0.5065  0.1382
   41MOL   C32615606   3.468   1.640   1.896 -0.4539  0.0231 -0.0801
   41MOL   C32715607   3.497   1.558   1.768 -0.2586  0.1595 -0.4409
   41MOL   C32815608   3.600   1.452   1.821  0.2223 -0.6773 -0.5986
   41MOL   C32915609   3.582   1.315   1.746  0.4516 -0.8274  0.0147
   41MOL   C33015610   3.707   1.225   1.750  0.5111  1.1284 -0.4927
   41MOL   C33115611   3.581   1.448   1.981 -0.1705 -0.0508  0.8811
   41MOL   H33215612   3.467   1.566   2.105  0.2880  2.7718  0.9122
   41MOL   H33315613   3.485   1.745   1.875  0.5765  0.2651  1.9003
   41MOL   H33415614   3.360   1.653   1.897 -0.4555  0.3393 -1.9097
   41MOL   H33515615   3.407   1.516   1.724 -2.7982  3.8762  1.0664
   41MOL   H33615616   3.545   1.619   1.691  0.2912 -1.2873 -1.2794
   41MOL   H33715617   3.695   1.492   1.787  0.8432 -2.5326 -1.0675
   41MOL   H33815618   3.498   1.263   1.793  0.2466 -2.0101 -1.5931
   41MOL   H33915619   3.558   1.331   1.641 -3.3611 -4.2025  0.2245
   41MOL   H34015620   3.788   1.244   1.680  1.6559 -0.4332  0.3768
   41MOL   H34115621   3.752   1.238   1.849 -1.2249 -1.5962  0.7242
   41MOL   H34215622   3.679   1.428   2.025 -0.4531 -1.3755  0.9294
   41MOL   H34315623   3.513   1.367   2.006 -0.1836  0.5886  2.9513
   41MOL   C34415624   3.661   1.078   1.748  0.2014  0.6371 -0.1391
   41MOL   C34515625   3.782   0.978   1.769 -0.4031  0.2835 -0.1839
   41MOL   C34615626   3.746   0.850   1.688  0.0413 -0.2922 -0.4280
   41MOL   C34715627   3.679   0.913   1.564  0.0425  0.1869  0.1488
   41MOL   C34815628   3.592   0.812   1.486  0.7949 -0.3163  0.1471
   41MOL   C34915629   3.501   0.880   1.383 -0.1909 -0.1517  0.2758
   41MOL   C35015630   3.604   1.032   1.615  0.8525  0.5433  0.2024
   41MOL   H35115631   3.592   1.055   1.830 -0.6668  0.6200 -0.8704
   41MOL   H35215632   3.790   0.958   1.876 -0.1622 -0.6516 -0.3657
   41MOL   H35315633   3.873   1.018   1.725 -0.4632  1.1721  0.4912
   41MOL   H35415634   3.837   0.792   1.669 -0.3732 -1.5536  1.3607
   41MOL   H35515635   3.679   0.782   1.741  0.1500  0.0563  0.1628
   41MOL   H35615636   3.755   0.956   1.500 -0.5054  1.1142  0.1047
   41MOL   H35715637   3.668   0.756   1.432  0.7765 -0.2792  0.0826
   41MOL   H35815638   3.544   0.748   1.559 -2.3199  1.2263 -0.4480
   41MOL   H35915639   3.566   0.946   1.327  1.9983 -0.7571  2.0633
   41MOL   H36015640   3.428   0.941   1.437  0.3138  1.0796 -0.4240
   41MOL   H36115641   3.618   1.110   1.540  0.6173 -0.2969 -0.7275
   41MOL   H36215642   3.497   1.017   1.629  1.1825 -3.0845 -0.6807
   41MOL   C36315643   3.442   0.779   1.286 -0.5269 -0.5847 -0.1108
   41MOL   C36415644   3.395   0.850   1.158  0.6067 -0.1864  0.1724
   41MOL   C36515645   3.287   0.761   1.094 -0.3203 -0.0225 -0.0252
   41MOL   C36615646   3.261   0.643   1.194 -0.8108  0.1853  0.0160
   41MOL   C36715647   3.125   0.587   1.183  0.1479 -0.1865  0.0121
   41MOL   C36815648   3.110   0.446   1.236  0.2492 -0.4537 -0.5546
   41MOL   C36915649   3.311   0.705   1.325 -0.5317  0.2796  0.3503
   41MOL   H37015650   3.521   0.706   1.267 -1.2802 -1.6428  0.7520
   41MOL   H37115651   3.358   0.948   1.191  3.2312  0.9745 -0.1840
   41MOL   H37215652   3.477   0.860   1.087  0.2085  0.2964 -0.2233
   41MOL   H37315653   3.198   0.823   1.079  0.6129  1.0102 -1.3724
   41MOL   H37415654   3.315   0.733   0.993  0.0584  1.0219 -0.2144
   41MOL   H37515655   3.336   0.565   1.177 -0.5925  0.3478  0.2298
   41MOL   H37615656   3.059   0.644   1.249  1.1183 -1.0418  1.7531
   41MOL   H37715657   3.089   0.602   1.081 -0.7217 -1.8530  0.0501
   41MOL   H37815658   3.135   0.443   1.342  0.2281 -1.5908 -0.5704
   41MOL   H37915659   3.177   0.373   1.191  1.4701  0.5732 -0.4271
   41MOL   H38015660   3.243   0.781   1.362  0.5753  1.6722 -0.4138
   41MOL   H38115661   3.335   0.643   1.412  1.2881  1.0622  0.4485
   41MOL   H38215662   3.006   0.413   1.231  0.4034 -1.1447  0.5707
   42MOL     C115663   0.026   6.308   6.928 -0.1818  0.5528 -0.5765
   42MOL     C215664   0.119   6.362   6.825  0.8818  0.2038  0.8208
   42MOL     C315665   0.259   6.359   6.888 -0.4267 -0.3701  0.6167
   42MOL     C415666   0.245   6.315   7.035  0.8781 -0.4261  0.4988
   42MOL     C515667   0.342   6.377   7.136  0.7548  0.5197 -0.1260
   42MOL     C615668   0.306   6.352   7.284 -0.7206  0.5460 -0.1791
   42MOL     C715669   0.098   6.343   7.058 -0.4636  0.3503  0.4103
   42MOL     H815670   7.573   6.350   6.938 -0.9141 -1.0221 -1.0453
   42MOL     H915671   0.086   6.462   6.797 -1.5795 -0.7231  0.2775
   42MOL    H1015672   0.106   6.300   6.736  0.8290 -1.1362  1.7560
   42MOL    H1115673   0.340   6.297   6.849 -0.2163  0.2949  0.0059
   42MOL    H1215674   0.302   6.458   6.880  0.1770 -0.7995 -1.9386
   42MOL    H1315675   0.243   6.206   7.039 -4.3014 -0.5130 -1.1760
   42MOL    H1415676   0.444   6.343   7.120  0.4775 -0.9776  1.2315
   42MOL    H1515677   0.342   6.484   7.116  0.9293  0.2767 -1.4406
   42MOL    H1615678   0.203   6.385   7.301 -0.2529  1.8198  0.2006
   42MOL    H1715679   0.284   6.247   7.304 -3.3498  1.0930  0.0257
   42MOL    H1815680   0.059   6.284   7.141  0.4877  0.4228  0.9141
   42MOL    H1915681   0.093   6.451   7.071 -0.5234  0.3876  0.0935
   42MOL    H2015682   0.006   6.200   6.923 -1.5815  0.8041 -0.7850
   42MOL    C2115683   0.386   6.429   7.392 -0.5447 -0.3765 -0.2840
   42MOL    C2215684   0.534   6.388   7.399  0.1121  0.2590  0.5457
   42MOL    C2315685   0.619   6.517   7.421 -0.3845  0.6958 -0.0149
   42MOL    C2415686   0.518   6.623   7.469  0.1527 -0.4154 -0.0775
   42MOL    C2515687   0.559   6.768   7.442  0.0279 -0.5467 -0.2614
   42MOL    C2615688   0.686   6.810   7.533  0.3723  0.5647 -0.1772
   42MOL    C2715689   0.384   6.585   7.398 -0.7272 -0.0074  0.3170
   42MOL    H2815690   0.339   6.396   7.485  3.1772 -3.2896  0.7178
   42MOL    H2915691   0.540   6.316   7.480 -3.2350  0.1118  0.7425
   42MOL    H3015692   0.565   6.334   7.310 -0.1094  2.7492 -1.1111
   42MOL    H3115693   0.707   6.507   7.484 -0.5337  0.1937  0.1109
   42MOL    H3215694   0.665   6.543   7.325 -1.2213  2.1561 -0.0291
   42MOL    H3315695   0.511   6.608   7.577 -0.9776 -0.3475 -0.1368
   42MOL    H3415696   0.475   6.838   7.452  1.9412  1.9040 -0.8035
   42MOL    H3515697   0.590   6.768   7.338 -1.4305  2.1034 -0.7492
   42MOL    H3615698   0.777   6.757   7.505  2.0533  2.3674  1.7230
   42MOL    H3715699   0.660   6.793   7.637 -0.6818 -0.9788 -0.6732
   42MOL    H3815700   0.294   6.631   7.439  0.6910  0.5848  2.8484
   42MOL    H3915701   0.399   6.640   7.305 -2.9776  3.2233  1.7642
   42MOL    C4015702   0.716   6.964   7.530  0.1281  1.0889 -0.4146
   42MOL    C4115703   0.836   7.001   7.621 -0.3649 -0.6605  0.0274
   42MOL    C4215704   0.895   7.124   7.562 -0.3315 -0.0478  0.1404
   42MOL    C4315705   0.881   7.101   7.414  0.3272 -0.3640 -0.2147
   42MOL    C4415706   0.883   7.230   7.339 -0.1672  0.0759  0.3249
   42MOL    C4515707   1.005   7.315   7.337  0.0397 -0.2689  0.6320
   42MOL    C4615708   0.757   7.016   7.391 -0.8311  0.7537  0.5582
   42MOL    H4715709   0.637   7.030   7.567 -0.7092  0.0350 -0.3043
   42MOL    H4815710   0.907   6.918   7.630 -0.3420 -0.5724  0.6762
   42MOL    H4915711   0.792   7.016   0.073 -0.6136  0.8374 -0.2918
   42MOL    H5015712   0.840   7.212   7.594 -2.0450 -1.2839  0.7058
   42MOL    H5115713   0.998   7.142   7.591  0.4202 -3.3613 -0.2511
   42MOL    H5215714   0.972   7.046   7.388  0.0727 -0.2736 -1.3287
   42MOL    H5315715   0.855   7.208   7.236  2.7532 -1.1466 -0.2479
   42MOL    H5415716   0.800   7.294   7.371  0.6974  0.6092  1.5293
   42MOL    H5515717   1.082   7.250   7.296 -1.7443 -2.3150  0.4240
   42MOL    H5615718   1.040   7.335   7.439 -0.9591  0.7325  0.7953
   42MOL    H5715719   0.676   7.077   7.350  0.0642  0.1445 -2.2403
   42MOL    H5815720   0.775   6.938   7.316  0.1734  0.5792  0.9705
   42MOL    C5915721   0.992   7.451   7.255  0.0673 -0.4715  0.0706
   42MOL    C6015722   0.936   7.565   7.335  0.3422 -0.0867  0.3091
   42MOL    C6115723   0.970   0.044   7.241 -0.2407  0.2374 -0.6056
   42MOL    C6215724   1.107   0.013   7.193  0.0502 -0.2288  0.1318
   42MOL    C6315725   1.143   0.069   7.059  0.2212  0.6779  0.3748
   42MOL    C6415726   1.162   0.219   7.059 -0.0196 -0.0163 -0.1061
   42MOL    C6515727   1.116   7.508   7.186  0.3004 -0.4713 -0.8761
   42MOL    H6615728   0.913   7.429   7.183  0.9472  0.7229 -1.3035
   42MOL    H6715729   0.831   7.546   7.357  0.6121 -1.6636  0.2840
   42MOL    H6815730   0.980   7.581   7.434 -1.7672  1.4353  1.0473
   42MOL    H6915731   0.903   0.051   7.155  1.3004  1.1661 -1.7539
   42MOL    H7015732   0.976   0.132   7.305  0.0287 -0.0533 -0.2352
   42MOL    H7115733   1.178   0.035   7.273 -2.5405  0.8667  2.2118
   42MOL    H7215734   1.065   0.038   6.989  0.6908  0.0043  0.1359
   42MOL    H7315735   1.237   0.020   7.032  0.0004  1.4058 -1.8149
   42MOL    H7415736   1.075   0.276   7.093 -0.3102  0.9700 -2.4308
   42MOL    H7515737   1.241   0.247   7.129 -1.9145  2.7907  1.0037
   42MOL    H7615738   1.125   7.463   7.087 -1.7831 -1.3092 -0.7142
   42MOL    H7715739   1.201   7.467   7.240  1.2198  2.0409 -0.3496
   42MOL    C7815740   1.190   0.272   6.912 -0.3176 -0.3657  0.6010
   42MOL    C7915741   1.193   0.423   6.892 -0.5401 -0.2919 -0.4418
   42MOL    C8015742   1.272   0.451   6.756 -0.8465  0.1835  0.4595
   42MOL    C8115743   1.333   0.317   6.725 -0.2183  0.1954 -0.0747
   42MOL    C8215744   1.485   0.316   6.681  0.4564 -0.2321  0.3163
   42MOL    C8315745   1.532   0.190   6.617 -0.5118 -0.0268  0.6421
   42MOL    C8415746   1.319   0.231   6.850 -0.6080  0.1384 -0.6006
   42MOL    H8515747   1.121   0.236   6.836 -0.3145  1.4710 -0.2930
   42MOL    H8615748   1.098   0.475   6.882 -0.1789  0.1831 -1.4579
   42MOL    H8715749   1.225   0.475   6.983  2.1391 -0.2418 -1.3508
   42MOL    H8815750   1.211   0.500   6.681  1.9031  1.5609 -0.9748
   42MOL    H8915751   1.350   0.523   6.781 -0.1191 -0.7619  0.9572
   42MOL    H9015752   1.281   0.263   6.646  1.2456 -1.2231 -0.0895
   42MOL    H9115753   1.547   0.339   6.767 -2.6501  0.4200  2.4572
   42MOL    H9215754   1.504   0.388   6.601 -0.0186  0.3745  0.7451
   42MOL    H9315755   1.460   0.148   6.546 -2.4677  4.0161  0.1027
   42MOL    H9415756   1.520   0.114   6.694  2.9097  0.1682  1.4336
   42MOL    H9515757   1.409   0.257   6.906 -2.1870  0.8434  1.6896
   42MOL    H9615758   1.325   0.122   6.839 -0.8333 -0.0012  0.5542
   42MOL    C9715759   1.675   0.191   6.552  0.9644 -0.5535 -0.4786
   42MOL    C9815760   1.670   0.237   6.406  0.2972  0.2946 -0.7786
   42MOL    C9915761   1.746   0.128   6.321 -0.5586  0.6288  0.0565
   42MOL   C10015762   1.822   0.046   6.428 -0.5792 -0.1262  0.0406
   42MOL   C10115763   1.871   7.559   6.388 -0.4478  0.0170 -0.3017
   42MOL   C10215764   1.954   7.562   6.261 -0.2018  0.4938 -0.2543
   42MOL   C10315765   1.729   0.050   6.548  0.8203 -0.1683  0.0480
   42MOL   H10415766   1.737   0.262   6.606 -0.7601  0.6503 -0.0223
   42MOL   H10515767   1.567   0.250   6.372  0.2681  1.0965 -0.3924
   42MOL   H10615768   1.720   0.333   6.402 -0.7810  0.8844 -0.3918
   42MOL   H10715769   1.675   0.080   6.254  1.0406 -1.2282 -0.3418
   42MOL   H10815770   1.820   0.192   6.272 -0.6208  0.5315 -0.1650
   42MOL   H10915771   1.914   0.095   6.460  1.0140 -2.5031 -0.7675
   42MOL   H11015772   1.915   7.509   6.474  2.3043  1.0383 -1.0797
   42MOL   H11115773   1.784   7.499   6.360 -1.0967  0.8849 -0.1659
   42MOL   H11215774   1.881   7.568   6.180  0.1426  2.6747 -0.4417
   42MOL   H11315775   2.012   0.007   6.256  1.6617 -0.6984 -1.2789
   42MOL   H11415776   1.646   7.633   6.516 -0.6411  1.2906  0.8079
   42MOL   H11515777   1.777   0.009   6.636  2.2399 -0.1326 -0.7042
   42MOL   C11615778   2.050   7.446   6.235  0.1522  0.0682 -0.2374
   42MOL   C11715779   2.126   7.467   6.100 -0.6260  0.5527  0.3486
   42MOL   C11815780   2.276   7.414   6.127  0.0423  0.0278 -0.1730
   42MOL   C11915781   2.273   7.357   6.272  0.5533  0.0960  0.6531
   42MOL   C12015782   2.412   7.360   6.343 -0.3155  0.4249  0.0320
   42MOL   C12115783   2.414   7.292   6.484  0.0892 -1.2299  0.4673
   42MOL   C12215784   2.161   7.437   6.343  0.0203  0.3371 -0.0504
   42MOL   H12315785   2.000   7.350   6.229  0.8179 -0.2324 -1.1876
   42MOL   H12415786   2.129   7.570   6.066 -1.7482  0.4157 -0.1763
   42MOL   H12515787   2.081   7.409   6.019  0.7050 -0.6692  0.4716
   42MOL   H12615788   2.349   7.493   6.109  1.3287 -0.9523  0.7276
   42MOL   H12715789   2.306   7.338   6.055  0.3465  0.7987 -0.8702
   42MOL   H12815790   2.236   7.254   6.268  0.5600  0.1162  0.0485
   42MOL   H12915791   2.446   7.463   6.355 -0.8962  0.5766  0.4093
   42MOL   H13015792   2.486   7.306   6.285 -0.2793  2.0333 -1.4486
   42MOL   H13115793   2.365   7.360   6.553  0.7144 -0.3698  0.0842
   42MOL   H13215794   2.516   7.307   6.520  0.5042 -1.7509 -0.4609
   42MOL   H13315795   2.132   7.377   6.430  1.2550 -2.2918 -1.3835
   42MOL   H13415796   2.196   7.529   6.389  0.9809  0.3723 -0.8599
   42MOL   C13515797   2.380   7.144   6.494 -0.3432  0.1105  0.6687
   42MOL   C13615798   2.443   7.076   6.611  0.2713 -0.6041  0.6753
   42MOL   C13715799   2.371   6.944   6.614 -0.4492 -0.1374 -0.4520
   42MOL   C13815800   2.224   6.967   6.569 -0.1187 -0.4492 -0.4870
   42MOL   C13915801   2.169   6.857   6.480 -0.2045 -0.0653 -0.4830
   42MOL   C14015802   2.152   6.727   6.558 -0.2625  0.2000 -0.1945
   42MOL   C14115803   2.226   7.105   6.503 -0.1396  0.1768  0.0315
   42MOL   H14215804   2.421   7.101   6.402 -0.2136 -1.3757  1.4135
   42MOL   H14315805   2.547   7.057   6.583  0.3540  0.5451  0.1545
   42MOL   H14415806   2.434   7.138   6.700  3.2178 -1.2577  1.4840
   42MOL   H14515807   2.416   6.887   6.532 -0.1650 -0.3188 -0.1701
   42MOL   H14615808   2.394   6.887   6.704 -1.8778 -0.9450 -0.5835
   42MOL   H14715809   2.159   6.981   6.656 -1.0287 -1.4813 -0.9964
   42MOL   H14815810   2.237   6.822   6.402  0.0798 -1.0528  0.2019
   42MOL   H14915811   2.073   6.890   6.440 -0.4185 -2.3160 -1.8802
   42MOL   H15015812   2.247   6.708   6.607  0.9696  1.7400 -1.9132
   42MOL   H15115813   2.079   6.749   6.635 -1.2152 -1.3449 -0.6261
   42MOL   H15215814   2.167   7.182   6.554 -0.0100  0.9367 -0.9479
   42MOL   H15315815   2.192   7.102   6.399 -0.1423 -2.3453  0.0730
   42MOL   C15415816   2.122   6.600   6.471  0.1393  0.4593  0.6680
   42MOL   C15515817   1.998   6.619   6.386  0.7573 -0.0649  0.5800
   42MOL   C15615818   1.916   6.488   6.383 -0.3125  0.3326  0.0517
   42MOL   C15715819   1.998   6.388   6.461 -0.0164  0.5672 -0.6035
   42MOL   C15815820   1.902   6.301   6.553  0.4494 -0.4467  0.4563
   42MOL   C15915821   1.978   6.171   6.599  0.3831 -0.3427  0.1221
   42MOL   C16015822   2.104   6.464   6.551 -0.6742 -0.5019 -0.3941
   42MOL   H16115823   2.212   6.584   6.412  0.2036 -0.1909  0.9391
   42MOL   H16215824   1.923   6.687   6.427  0.6005  0.1152  0.0054
   42MOL   H16315825   2.016   6.659   6.286  1.5622 -0.8346  0.4123
   42MOL   H16415826   1.824   6.497   6.441 -0.1588 -0.0578  0.3620
   42MOL   H16515827   1.900   6.461   6.279  0.0576 -1.7903  0.5219
   42MOL   H16615828   2.061   6.319   6.405  0.2664 -1.2653  1.9213
   42MOL   H16715829   1.816   6.263   6.497  0.6633 -1.2489  0.6723
   42MOL   H16815830   1.864   6.364   6.633 -0.4434  2.6956 -2.3220
   42MOL   H16915831   1.991   6.097   6.519  1.3204  2.2971 -2.2501
   42MOL   H17015832   2.083   6.199   6.603  0.0858  0.7131  0.7649
   42MOL   H17115833   2.196   6.410   6.568 -0.2439  0.7071  1.3138
   42MOL   H17215834   2.057   6.481   6.648  1.8160  1.9131  0.4507
   42MOL   C17315835   1.930   6.101   6.730  0.9556 -0.2721  0.6385
   42MOL   C17415836   2.029   5.999   6.778  0.2616  0.6868 -0.5027
   42MOL   C17515837   2.056   6.035   6.922  0.0282 -0.0784  0.0094
   42MOL   C17615838   1.953   6.133   6.969  0.1822  0.3021  0.5989
   42MOL   C17715839   2.013   6.223   7.081  0.1571  0.6987  0.3110
   42MOL   C17815840   2.059   6.147   7.206  0.2348 -0.1073 -0.3469
   42MOL   C17915841   1.919   6.205   6.838  0.0011 -0.3387 -0.4843
   42MOL   H18015842   1.835   6.047   6.724  0.2412  0.7746  2.1165
   42MOL   H18115843   2.125   5.990   6.726 -0.0439  0.2951 -1.0012
   42MOL   H18215844   1.982   5.901   6.776 -0.6362  1.1255 -1.2104
   42MOL   H18315845   2.040   5.940   6.974 -1.5830  0.1302 -0.0639
   42MOL   H18415846   2.160   6.065   6.929 -0.1186  0.8054 -1.4061
   42MOL   H18515847   1.858   6.088   7.000 -0.1923 -0.9784 -2.2674
   42MOL   H18615848   1.939   6.299   7.106  0.4254  1.5113 -1.2777
   42MOL   H18715849   2.097   6.276   7.038 -0.3904 -1.6249 -3.9040
   42MOL   H18815850   2.151   6.092   7.188  0.1923 -1.1481  2.3303
   42MOL   H18915851   1.986   6.070   7.230  0.9876 -0.1602  1.8743
   42MOL   H19015852   1.983   6.293   6.825 -2.6791  1.8678  0.6542
   42MOL   H19115853   1.813   6.231   6.837 -0.2281 -1.1387  1.0940
   42MOL   C19215854   2.094   6.241   7.325  0.3633  0.2244  0.0287
   42MOL   C19315855   2.225   6.317   7.305  0.5791  0.8044  1.0892
   42MOL   C19415856   2.265   6.360   7.451  0.5412 -0.4722 -0.0528
   42MOL   C19515857   2.242   6.225   7.525 -0.0411 -0.2963 -1.0112
   42MOL   C19615858   2.226   6.229   0.031 -0.4880 -0.0724  0.1183
   42MOL   C19715859   2.357   6.262   0.097  1.1940 -0.8610  0.0566
   42MOL   C19815860   2.106   6.173   7.464  0.3064  0.4814  0.1496
   42MOL   H19915861   2.013   6.314   7.334  1.6740  1.8219 -0.8628
   42MOL   H20015862   2.299   6.252   7.257  0.2458  1.0546  0.2125
   42MOL   H20115863   2.214   6.408   7.246  0.2523 -1.1756 -2.0962
   42MOL   H20215864   2.192   6.436   7.480 -0.3752 -0.4282 -2.3556
   42MOL   H20315865   2.367   6.397   7.449 -0.5146  2.7585  1.5936
   42MOL   H20415866   2.326   6.163   7.497  0.5249  0.2986 -0.6453
   42MOL   H20515867   2.172   6.148   0.080 -2.2322  1.1438  0.2228
   42MOL   H20615868   2.158   6.307   0.064  0.3013  0.1515  1.2702
   42MOL   H20715869   2.413   6.340   0.045  1.7258 -1.0424  0.3540
   42MOL   H20815870   2.412   6.173   0.065 -0.0567 -0.9789 -1.8325
   42MOL   H20915871   2.025   6.206   7.529  0.5594 -0.3162  0.8730
   42MOL   H21015872   2.114   6.064   7.455 -2.3432  0.2646 -0.2149
   42MOL   C21115873   2.348   6.282   0.248  0.2748 -0.3617 -1.3509
   42MOL   C21215874   2.270   6.398   0.301 -0.1960 -0.6513 -0.4776
   42MOL   C21315875   2.364   6.485   0.374 -0.3890  0.3898  0.0554
   42MOL   C21415876   2.480   6.398   0.428  0.4555 -0.1130 -0.3945
   42MOL   C21515877   2.620   6.462   0.449 -0.2702  0.3517  0.0234
   42MOL   C21615878   2.626   6.559   0.576 -0.2249  0.1491  0.0562
   42MOL   C21715879   2.481   6.296   0.315  0.8746 -0.3421 -0.0564
   42MOL   H21815880   2.310   6.185   0.280 -1.2511 -0.4192 -3.2527
   42MOL   H21915881   2.229   6.465   0.225  2.1734  2.5613  1.0003
   42MOL   H22015882   2.179   6.367   0.354 -0.9565 -1.4808 -2.2212
   42MOL   H22115883   2.402   6.556   0.301  0.1993 -0.1516 -0.1697
   42MOL   H22215884   2.316   6.545   0.452  0.3734  1.1372 -0.0574
   42MOL   H22315885   2.446   6.353   0.521  0.7897  0.9474  0.2579
   42MOL   H22415886   2.651   6.514   0.358  2.8241  1.7584  1.7900
   42MOL   H22515887   2.688   6.377   0.461  0.2199  0.6610 -0.5198
   42MOL   H22615888   2.535   6.621   0.573 -1.4990 -1.6865 -0.1285
   42MOL   H22715889   2.626   6.493   0.662 -0.5310 -0.8243 -0.6792
   42MOL   H22815890   2.507   6.192   0.337 -1.5759 -1.6600 -2.9997
   42MOL   H22915891   2.548   6.327   0.235 -0.3137 -0.3302 -1.0681
   42MOL   C23015892   2.755   6.640   0.587 -0.1772  0.6653  0.2286
   42MOL   C23115893   2.761   6.731   0.706 -0.3767 -0.2186 -0.2762
   42MOL   C23215894   2.860   6.840   0.665 -0.4196 -0.0323 -0.0776
   42MOL   C23315895   2.810   6.865   0.525  0.2439 -0.5615 -0.0084
   42MOL   C23415896   2.915   6.945   0.449 -0.0776  0.4404  0.0012
   42MOL   C23515897   2.917   7.096   0.475 -0.3835  0.4033  0.4162
   42MOL   C23615898   2.787   6.731   0.467  0.0063 -0.0995 -0.0914
   42MOL   H23715899   2.830   6.561   0.593 -1.9641 -0.9840  1.1711
   42MOL   H23815900   2.658   6.766   0.712 -0.6752 -0.7659 -2.0774
   42MOL   H23915901   2.791   6.682   0.799  0.7686  2.1426  0.6498
   42MOL   H24015902   2.962   6.801   0.668  0.0425  1.2623  1.8774
   42MOL   H24115903   2.862   6.937   0.714  0.1707  1.1573 -2.4028
   42MOL   H24215904   2.719   6.923   0.538  0.0175 -1.0169  0.4770
   42MOL   H24315905   2.901   6.934   0.341  0.0154 -0.6465  0.1013
   42MOL   H24415906   3.011   6.906   0.482 -1.0902 -0.6401  1.7161
   42MOL   H24515907   2.873   7.167   0.406  0.2168 -0.6191 -1.0337
   42MOL   H24615908   2.852   7.114   0.561 -1.3363 -3.0383  0.4882
   42MOL   H24715909   2.871   6.690   0.412 -0.3237  0.8615 -1.3370
   42MOL   H24815910   2.704   6.745   0.398 -0.0301 -1.0029 -0.2282
   42MOL   C24915911   3.054   7.156   0.512 -0.1359  0.8350  0.6935
   42MOL   C25015912   3.137   7.164   0.383 -1.0739 -0.2562 -0.8937
   42MOL   C25115913   3.231   7.278   0.413  0.1193  0.5778 -0.4576
   42MOL   C25215914   3.151   7.379   0.492  0.0990  0.0262 -0.1314
   42MOL   C25315915   3.224   7.485   0.570 -0.3259  1.2285 -0.0676
   42MOL   C25415916   3.316   7.570   0.491 -0.2695 -0.0486 -0.4935
   42MOL   C25515917   3.062   7.296   0.577 -0.3236  0.4910  0.0799
   42MOL   H25615918   3.099   7.092   0.589 -0.5580 -0.3800 -0.0702
   42MOL   H25715919   3.200   7.078   0.363  1.4578  1.0208  1.1942
   42MOL   H25815920   3.072   7.185   0.299 -0.1001  2.4249 -1.0242
   42MOL   H25915921   3.274   7.323   0.324  1.9692 -0.8404 -0.2898
   42MOL   H26015922   3.311   7.248   0.480  0.6807  3.7800  0.3930
   42MOL   H26115923   3.097   7.432   0.414  1.2462  0.6666 -0.5152
   42MOL   H26215924   3.285   7.440   0.648 -0.5600  0.6303 -0.2247
   42MOL   H26315925   3.152   7.551   0.618 -2.1419  0.6383 -1.9260
   42MOL   H26415926   3.276   7.624   0.406  1.1573  1.2270 -0.3633
   42MOL   H26515927   3.385   7.502   0.441 -1.7799 -2.4978  0.6443
   42MOL   H26615928   2.970   7.355   0.580 -0.9237 -0.4480  0.8382
   42MOL   H26715929   3.096   7.288   0.681  0.1326  1.0082 -0.0298
   42MOL   C26815930   3.395   0.021   0.580 -0.5554 -0.6080  0.4668
   42MOL   C26915931   3.451   0.142   0.501 -0.6386 -0.5618  0.4777
   42MOL   C27015932   3.591   0.095   0.462 -0.3604  0.3279 -0.2976
   42MOL   C27115933   3.640   0.006   0.583 -0.0341 -0.0309  0.0584
   42MOL   C27215934   3.748   7.554   0.532  0.6287 -0.2906 -0.0093
   42MOL   C27315935   3.874   7.631   0.481  0.6316  0.1751 -0.4527
   42MOL   C27415936   3.517   7.603   0.650  0.6125 -0.4573  0.1506
   42MOL   H27515937   3.324   0.058   0.654 -0.2658 -0.1098  0.5028
   42MOL   H27615938   3.394   0.170   0.412  3.0362  0.1173 -1.7700
   42MOL   H27715939   3.461   0.222   0.574  1.5171 -2.5666  2.4615
   42MOL   H27815940   3.577   0.029   0.376  0.6672 -1.2999  0.7536
   42MOL   H27915941   3.660   0.174   0.435  0.0879 -0.0220 -0.1818
   42MOL   H28015942   3.685   0.071   0.657 -1.4300 -0.7487  1.5848
   42MOL   H28115943   3.705   7.482   0.462  0.0355  0.9488 -0.9453
   42MOL   H28215944   3.788   7.484   0.604  1.1639 -0.4067 -0.4162
   42MOL   H28315945   3.847   0.040   0.392 -1.6838 -0.3638 -0.1153
   42MOL   H28415946   3.904   0.056   0.557 -1.5260 -1.3601  1.9253
   42MOL   H28515947   3.521   7.494   0.653  0.7166 -0.5054 -1.5614
   42MOL   H28615948   3.512   7.633   0.755  0.4330  1.4184 -0.3721
   42MOL   C28715949   3.994   7.536   0.456  0.3313  0.2222  0.2009
   42MOL   C28815950   3.970   7.420   0.363  0.0440 -0.0998 -0.2234
   42MOL   C28915951   4.109   7.349   0.339  0.2982 -0.3954 -0.2344
   42MOL   C29015952   4.211   7.462   0.353  0.1946  0.1883 -0.3151
   42MOL   C29115953   4.288   7.467   0.215 -0.2811 -0.4758  0.2694
   42MOL   C29215954   4.389   7.353   0.179 -0.7409 -0.2912 -0.6741
   42MOL   C29315955   4.126   7.594   0.387  0.3081 -0.2650  0.0440
   42MOL   H29415956   4.011   7.489   0.553  1.3423  1.4113  0.6173
   42MOL   H29515957   3.897   7.349   0.402 -0.3675 -1.0790 -2.6818
   42MOL   H29615958   3.922   7.443   0.267 -0.2353  0.3650  0.0224
   42MOL   H29715959   4.116   7.297   0.244  0.5144 -0.3727 -0.2305
   42MOL   H29815960   4.124   7.273   0.415  3.7711  1.1826  0.7226
   42MOL   H29915961   4.281   7.436   0.432 -2.6860  0.9446  2.5891
   42MOL   H30015962   4.353   7.555   0.211  3.3604 -3.0781 -0.4494
   42MOL   H30115963   4.220   7.487   0.132 -0.9118 -0.9624  0.6663
   42MOL   H30215964   4.349   7.256   0.209 -0.9187 -0.0280 -0.0514
   42MOL   H30315965   4.484   7.368   0.229 -0.8846 -1.6669  0.0199
   42MOL   H30415966   4.096   0.007   0.301  0.9032  0.6300  0.4616
   42MOL   H30515967   4.180   0.022   0.444 -0.7078 -0.3568  1.1548
   42MOL   C30615968   4.421   7.358   0.033 -0.3804  0.6911  0.2520
   42MOL   C30715969   4.506   7.483   7.646 -0.6463  0.0008 -0.2603
   42MOL   C30815970   4.636   7.432   7.594  0.5439  0.0999  0.8145
   42MOL   C30915971   4.601   7.297   7.528 -0.0718  0.9413  0.1755
   42MOL   C31015972   4.714   7.200   7.496  0.1212 -0.0776 -0.0667
   42MOL   C31115973   4.819   7.256   7.400 -0.8749 -0.2569  0.0568
   42MOL   C31215974   4.501   7.239   7.624  0.2520  0.5555 -0.4194
   42MOL   H31315975   4.325   7.363   7.628  0.3975 -1.7637 -1.4960
   42MOL   H31415976   4.444   7.523   7.566 -1.4328 -2.1899 -0.7812
   42MOL   H31515977   4.510   7.552   0.083 -1.2903  0.3507 -0.5193
   42MOL   H31615978   4.691   7.501   7.530  2.9246 -0.9209  1.6617
   42MOL   H31715979   4.713   7.425   0.025  2.3588  1.4311 -0.8071
   42MOL   H31815980   4.562   7.312   7.427 -0.5632 -2.5584 -0.2051
   42MOL   H31915981   4.769   7.185   7.588  0.0602 -0.7236 -0.1331
   42MOL   H32015982   4.675   7.103   7.466 -3.4732  1.1007  0.5839
   42MOL   H32115983   4.854   7.352   7.437 -0.4108  0.3083 -1.7804
   42MOL   H32215984   4.778   7.272   7.300  0.6681 -1.5282 -0.8093
   42MOL   H32315985   4.557   7.195   0.059 -2.0982 -0.2100  0.7990
   42MOL   H32415986   4.447   7.159   7.573  1.8921 -0.6666 -0.2814
   42MOL   C32515987   4.931   7.148   7.390  0.0439 -1.0318 -0.7201
   42MOL   C32615988   4.902   7.034   7.303  0.0978 -0.6497 -0.0612
   42MOL   C32715989   5.041   6.977   7.267  0.6508  0.0265 -0.2242
   42MOL   C32815990   5.152   7.068   7.329 -0.4489 -0.2406  0.0996
   42MOL   C32915991   5.206   6.995   7.451  0.4047 -0.0073 -0.6295
   42MOL   C33015992   5.288   6.877   7.416  0.1578  1.0466  0.0875
   42MOL   C33115993   5.075   7.198   7.355 -0.5683  0.0727  0.7694
   42MOL   H33215994   4.932   7.107   7.491  0.1043  1.4756  0.3213
   42MOL   H33315995   4.848   7.064   7.213  0.0935 -1.9604 -0.5079
   42MOL   H33415996   4.838   6.961   7.353 -1.0699  1.5065  1.6772
   42MOL   H33515997   5.040   6.879   7.314 -2.0757  0.2287  0.1957
   42MOL   H33615998   5.051   6.972   7.158  1.5930  1.0830 -0.2010
   42MOL   H33715999   5.230   7.093   7.257 -2.7982 -0.4266 -2.6188
   42MOL   H33816000   5.279   7.056   7.505  1.8378 -0.5242 -1.9413
   42MOL   H33916001   5.125   6.963   7.516 -0.1785  1.5643 -0.5535
   42MOL   H34016002   5.258   6.841   7.318 -2.1308  0.0073  1.1356
   42MOL   H34116003   5.395   6.901   7.410  0.5040 -0.2391  0.9112
   42MOL   H34216004   5.071   7.265   7.269 -1.2467 -0.0701  0.6908
   42MOL   H34316005   5.112   7.257   7.439  2.3672  0.8316 -0.9791
   42MOL   C34416006   5.280   6.769   7.527 -0.2565  0.0778  0.1892
   42MOL   C34516007   5.352   6.793   0.015  0.8299 -0.2934 -0.6699
   42MOL   C34616008   5.396   6.660   0.065 -0.2434  0.2674 -1.1570
   42MOL   C34716009   5.431   6.580   7.592 -0.4488 -0.8510  0.5674
   42MOL   C34816010   5.428   6.424   7.611  0.2170 -0.2245 -0.1271
   42MOL   C34916011   5.455   6.346   7.478  0.1434 -0.5134 -0.6921
   42MOL   C35016012   5.339   6.634   7.484  0.6730  0.6572 -0.2077
   42MOL   H35116013   5.177   6.735   7.537 -0.1202 -0.3462  0.1696
   42MOL   H35216014   5.298   6.843   0.095  1.0570 -0.3383 -0.4906
   42MOL   H35316015   5.440   6.856   7.646  0.7148 -0.2413 -1.0986
   42MOL   H35416016   5.472   6.665   0.142  0.2219 -0.1905 -1.5764
   42MOL   H35516017   5.315   6.608   0.117 -1.5430  2.4353 -0.9870
   42MOL   H35616018   5.535   6.602   7.564 -1.7361  0.1660 -3.7220
   42MOL   H35716019   5.502   6.394   0.038 -0.6461 -1.3532  0.2885
   42MOL   H35816020   5.330   6.394   0.002 -1.3916  1.7722 -2.5402
   42MOL   H35916021   5.521   6.393   7.405 -0.8542 -0.7730 -1.7864
   42MOL   H36016022   5.364   6.341   7.416 -0.7276 -1.1914  0.6266
   42MOL   H36116023   5.400   6.637   7.393  3.7777  0.9388  1.8020
   42MOL   H36216024   5.252   6.573   7.463 -0.5255  2.7758 -1.5504
   42MOL   C36316025   5.494   6.197   7.504  0.4035  0.1774  0.0716
   42MOL   C36416026   5.532   6.131   7.376 -0.3473  1.0602 -0.1153
   42MOL   C36516027   5.499   5.985   7.400 -0.0252 -0.0606  0.8304
   42MOL   C36616028   5.432   5.966   7.538 -0.5458 -0.3218  0.4348
   42MOL   C36716029   5.313   5.864   7.538  0.0924 -0.2381 -0.2997
   42MOL   C36816030   5.354   5.722   7.484 -0.2543 -0.3796 -0.1569
   42MOL   C36916031   5.389   6.105   7.576 -0.0969  0.5789  0.0082
   42MOL   H37016032   5.580   6.208   7.570  0.4976 -0.3921  0.0515
   42MOL   H37116033   5.475   6.164   7.290  1.9410  1.9145 -1.3359
   42MOL   H37216034   5.636   6.137   7.344 -0.2702 -0.1318 -0.1213
   42MOL   H37316035   5.427   5.966   7.320 -1.1780 -0.5715  1.9890
   42MOL   H37416036   5.581   5.918   7.374 -1.1080 -2.0175  2.3233
   42MOL   H37516037   5.503   5.938   7.616  0.4266  0.9441  0.0231
   42MOL   H37616038   5.278   5.857   7.641 -0.9154  3.1497 -0.3450
   42MOL   H37716039   5.232   5.908   7.480  3.3196  1.9571 -3.3571
   42MOL   H37816040   5.358   5.728   7.375 -4.9349 -0.2879 -0.4025
   42MOL   H37916041   5.287   5.638   7.503 -1.8342  0.3344 -2.3489
   42MOL   H38016042   5.287   6.128   7.545 -1.0641 -1.5273  1.5100
   42MOL   H38116043   5.398   6.121   0.036 -0.7337  0.9329  0.0115
   42MOL   H38216044   5.452   5.696   7.524  0.2197  2.2538  0.4841
   43MOL     C116045   0.971   4.705   5.111  0.0469 -0.6789 -0.0160
   43MOL     C216046   1.085   4.771   5.186 -0.6507  0.2425  0.3907
   43MOL     C316047   1.087   4.720   5.331  0.6041 -0.6519 -0.2509
   43MOL     C416048   1.042   4.577   5.315 -0.8396 -0.1131 -0.2108
   43MOL     C516049   0.991   4.503   5.442  0.6002 -0.2989 -0.1962
   43MOL     C616050   0.945   4.357   5.428 -0.3994  0.5917  0.7469
   43MOL     C716051   0.945   4.584   5.197  0.4310  0.5895  0.2357
   43MOL     H816052   0.889   4.777   5.113  0.4431 -0.2193 -0.0396
   43MOL     H916053   1.079   4.880   5.188  0.8496  0.3404 -0.3526
   43MOL    H1016054   1.179   4.757   5.133  0.2801 -0.9735  2.3023
   43MOL    H1116055   1.180   4.736   5.387  0.0463  0.3819  0.3954
   43MOL    H1216056   1.015   4.777   5.390  1.4147  0.6299 -0.4612
   43MOL    H1316057   1.132   4.520   5.289  0.1671  1.4476 -0.2505
   43MOL    H1416058   1.072   4.501   5.514  2.2671 -1.3934 -2.0589
   43MOL    H1516059   0.913   4.567   5.484  1.9687  0.2735  1.5449
   43MOL    H1616060   0.898   4.328   5.523 -2.0583 -3.5233 -1.2038
   43MOL    H1716061   0.877   4.342   5.344  0.6067  0.3924 -0.0424
   43MOL    H1816062   0.953   4.493   5.137 -0.0586  0.2007  0.7608
   43MOL    H1916063   0.846   4.576   5.240 -0.3458  1.7708 -1.2791
   43MOL    H2016064   1.006   4.679   5.012  0.9244 -2.3828  0.7253
   43MOL    C2116065   1.061   4.260   5.404 -0.6034  0.2690 -0.1296
   43MOL    C2216066   1.145   4.246   5.534 -0.2234  0.7244  0.2322
   43MOL    C2316067   1.138   4.102   5.566  0.1213  0.2996  0.1968
   43MOL    C2416068   1.112   4.022   5.439  0.7948  0.0830 -0.6915
   43MOL    C2516069   1.034   3.889   5.472  0.6414  0.0467 -0.6239
   43MOL    C2616070   1.108   3.789   5.555 -0.9454  0.1412 -0.2593
   43MOL    C2716071   1.019   4.112   5.363  0.3832 -0.1116  0.2430
   43MOL    H2816072   1.130   4.294   5.327  0.8200  3.0526  2.2781
   43MOL    H2916073   1.248   4.268   5.508 -0.4037  1.2701 -0.0188
   43MOL    H3016074   1.114   4.303   5.621  1.5022 -0.7841  1.8786
   43MOL    H3116075   1.222   4.067   5.626 -0.4867  0.3965  1.1208
   43MOL    H3216076   1.051   4.085   5.630 -1.0019  0.0383 -1.3609
   43MOL    H3316077   1.206   4.002   5.387  1.0849  0.8440 -0.4740
   43MOL    H3416078   1.002   3.839   5.381 -1.5502 -1.8996  1.1849
   43MOL    H3516079   0.946   3.921   5.527  1.4323 -0.0676  0.7398
   43MOL    H3616080   1.144   3.832   5.648  1.0188 -0.0955 -0.8947
   43MOL    H3716081   1.189   3.746   5.497 -1.8316 -1.7770 -0.1365
   43MOL    H3816082   1.049   4.090   5.260 -1.1304 -2.0303  0.1887
   43MOL    H3916083   0.912   4.094   5.373  0.3335  0.1213  0.1333
   43MOL    C4016084   1.010   3.669   5.583 -0.1368 -0.6862  0.3521
   43MOL    C4116085   1.092   3.555   5.654  0.1443  0.5990 -0.4667
   43MOL    C4216086   0.988   3.479   5.744  0.6211 -0.8375 -0.6849
   43MOL    C4316087   0.896   3.591   5.794 -0.6967 -0.0988 -0.3271
   43MOL    C4416088   0.759   3.546   5.826  0.2587 -0.5919 -0.3577
   43MOL    C4516089   0.675   3.654   5.897 -0.7279  0.0977 -0.0291
   43MOL    C4616090   0.902   3.703   5.687 -0.1374 -1.1266 -0.1743
   43MOL    H4716091   0.973   3.629   5.488  0.0914  1.0715 -0.5019
   43MOL    H4816092   1.161   3.609   5.720 -0.6469  0.1798  0.7141
   43MOL    H4916093   1.153   3.485   5.597  0.5545 -0.1156  0.8106
   43MOL    H5016094   0.949   3.401   5.679  0.7118 -0.0115 -1.7522
   43MOL    H5116095   1.038   3.419   5.820  0.3851 -1.8774 -1.3458
   43MOL    H5216096   0.933   3.638   5.885  2.7237 -1.8942 -0.7055
   43MOL    H5316097   0.695   3.518   5.742  0.2063  0.3741 -0.6460
   43MOL    H5416098   0.768   3.458   5.890 -1.2564 -1.3835 -1.2019
   43MOL    H5516099   0.683   3.748   5.843 -0.8416 -1.4696 -2.8529
   43MOL    H5616100   0.719   3.671   5.995 -0.5165  0.0256 -0.1106
   43MOL    H5716101   0.810   3.715   5.630  1.2286 -1.2477 -2.4708
   43MOL    H5816102   0.912   3.802   5.731 -2.9245 -1.1483  0.5840
   43MOL    C5916103   0.526   3.612   5.906  0.2283  0.5937  0.2197
   43MOL    C6016104   0.501   3.528   6.032  0.3162  0.4148 -0.2628
   43MOL    C6116105   0.354   3.542   6.059  0.1860 -0.0906 -0.3250
   43MOL    C6216106   0.319   3.689   6.025 -0.2277  0.2768 -0.0011
   43MOL    C6316107   0.176   3.692   5.978 -0.1812 -0.5400 -0.0045
   43MOL    C6416108   0.123   3.839   5.987 -0.3529  0.2318  0.4279
   43MOL    C6516109   0.417   3.731   5.916  0.3539 -0.2635  0.2272
   43MOL    H6616110   0.504   3.548   5.821  2.0424  0.3749 -0.1134
   43MOL    H6716111   0.530   3.424   6.012  0.4687  0.2999  0.5384
   43MOL    H6816112   0.558   3.568   6.116 -1.1715 -1.0024  1.4602
   43MOL    H6916113   0.309   3.473   5.987 -0.0534  0.2139 -0.4695
   43MOL    H7016114   0.328   3.514   6.161  1.9148  0.3441  0.2509
   43MOL    H7116115   0.329   3.762   6.106  0.7859  0.2832 -0.1199
   43MOL    H7216116   0.117   3.616   6.028 -0.6983  0.0730  0.3256
   43MOL    H7316117   0.184   3.660   5.874  1.4938 -1.0097  0.2543
   43MOL    H7416118   0.101   3.860   6.092 -2.4265  0.4374 -0.0194
   43MOL    H7516119   0.197   3.903   5.939 -1.2058 -0.2662 -1.6068
   43MOL    H7616120   0.369   3.741   5.818 -1.5521 -2.9457  0.8533
   43MOL    H7716121   0.460   3.824   5.954 -0.1623 -0.7712  2.0914
   43MOL    C7816122   7.643   3.855   5.894  0.4107  0.8376 -0.1435
   43MOL    C7916123   7.514   3.783   5.950  0.0535  0.3169  0.5013
   43MOL    C8016124   7.400   3.874   5.895  0.1607 -0.1051  0.3137
   43MOL    C8116125   7.459   4.020   5.890  0.0244 -0.4383 -0.3809
   43MOL    C8216126   7.408   4.114   5.998 -0.3841 -0.4064 -0.2513
   43MOL    C8316127   7.263   4.152   5.983  0.1431  0.3022 -0.4109
   43MOL    C8416128   7.610   4.006   5.885 -0.1064  0.5085 -0.3921
   43MOL    H8516129   0.012   3.808   5.797  1.2091  1.5094 -0.3392
   43MOL    H8616130   7.504   3.680   5.915 -3.7827  0.2804  1.4632
   43MOL    H8716131   7.528   3.785   6.058 -1.7179  0.5125  0.7470
   43MOL    H8816132   7.374   3.842   5.795 -0.4708  0.8920  0.1544
   43MOL    H8916133   7.308   3.865   5.954 -0.7728  1.8527 -0.8058
   43MOL    H9016134   7.417   4.067   5.801 -2.7365 -0.4863  0.8417
   43MOL    H9116135   7.476   4.199   6.011  1.2315 -2.0361  2.5126
   43MOL    H9216136   7.421   4.057   6.090  1.5482  0.3092 -0.0447
   43MOL    H9316137   7.199   4.064   5.976 -1.7094  1.3939  2.0415
   43MOL    H9416138   7.252   4.216   5.896 -0.0573 -0.1475 -0.7156
   43MOL    H9516139   0.010   4.058   5.968  0.7541 -2.4556  1.0289
   43MOL    H9616140   7.640   4.038   5.785 -0.6325  1.8115 -0.1410
   43MOL    C9716141   7.218   4.227   6.109  0.0750 -0.2764 -0.3516
   43MOL    C9816142   7.069   4.247   6.134 -0.3628  0.5056  0.0703
   43MOL    C9916143   7.044   4.395   6.172  0.3680 -0.2720  0.8775
   43MOL   C10016144   7.187   4.444   6.223 -0.6323 -0.2198 -0.2455
   43MOL   C10116145   7.215   4.596   6.225  0.3354 -0.2867 -1.0006
   43MOL   C10216146   7.357   4.643   6.260  1.2378  0.5288  0.1112
   43MOL   C10316147   7.282   4.361   6.134 -0.6936 -0.0134 -0.0412
   43MOL   H10416148   7.250   4.161   6.189  1.6485  0.5876 -0.2547
   43MOL   H10516149   7.013   4.236   6.041 -1.6607  0.1528  0.8722
   43MOL   H10616150   7.030   4.172   6.204  0.2363  0.7510  0.6754
   43MOL   H10716151   7.003   4.442   6.082 -0.4955  1.4476  2.1276
   43MOL   H10816152   6.973   4.421   6.251  1.4677 -1.7699  2.4001
   43MOL   H10916153   7.189   4.397   6.321  0.5390 -0.6061 -0.4499
   43MOL   H11016154   7.191   4.628   6.124 -0.9877  0.2399 -0.5328
   43MOL   H11116155   7.139   4.642   6.288 -0.1960 -1.3977 -0.8073
   43MOL   H11216156   7.375   4.621   6.365 -0.5100 -0.2467  0.2660
   43MOL   H11316157   7.424   4.582   6.200  0.1596 -0.2489 -0.3074
   43MOL   H11416158   7.292   4.422   6.044 -2.1739  1.1104  0.5191
   43MOL   H11516159   7.372   4.353   6.194 -1.4772 -0.9038  1.0392
   43MOL   C11616160   7.390   4.792   6.237  0.3591 -0.3632  0.1376
   43MOL   C11716161   7.307   4.892   6.320 -0.3608 -0.3029  0.1566
   43MOL   C11816162   7.398   5.017   6.343  0.1173  0.0975  0.0925
   43MOL   C11916163   7.538   4.981   6.291  0.2251 -0.0753  0.4705
   43MOL   C12016164   7.645   5.041   6.381  0.3969 -0.1073 -0.8695
   43MOL   C12116165   0.010   5.195   6.374  0.0664  0.0179  0.0344
   43MOL   C12216166   7.531   4.831   6.276  0.0229 -0.6732  0.1505
   43MOL   H12316167   7.373   4.817   6.132 -1.9941  1.6695  0.9357
   43MOL   H12416168   7.293   4.853   6.421  0.5273 -1.3857 -0.1299
   43MOL   H12516169   7.206   4.885   6.279  0.0809 -1.1169 -0.8031
   43MOL   H12616170   7.404   5.049   6.447  0.9669  1.9965 -0.5119
   43MOL   H12716171   7.366   5.106   6.290  2.5539  1.0050  0.0784
   43MOL   H12816172   7.548   5.031   6.195  2.3371 -1.5736 -0.1286
   43MOL   H12916173   0.085   4.989   6.340  1.9868  1.9501 -0.1295
   43MOL   H13016174   7.626   5.012   6.484 -1.4840  1.5075 -0.7332
   43MOL   H13116175   7.559   5.240   6.390 -0.9652 -2.0578 -0.3539
   43MOL   H13216176   0.030   5.227   6.272  0.3797  0.2613  0.1728
   43MOL   H13316177   7.589   4.801   6.188 -1.6562  0.7027 -1.4920
   43MOL   H13416178   7.565   4.778   6.364  1.3379 -0.1139 -0.0070
   43MOL   C13516179   0.117   5.261   6.463 -0.5502  0.1749 -0.2437
   43MOL   C13616180   0.129   5.416   6.426  1.1798 -0.3714 -0.2337
   43MOL   C13716181   0.044   5.490   6.532 -0.4246  0.3275 -0.1771
   43MOL   C13816182   7.646   5.380   6.633 -0.2630  0.9581 -0.2300
   43MOL   C13916183   7.645   5.427   6.777 -0.5035 -0.0184 -0.0036
   43MOL   C14016184   7.566   5.561   6.788  0.2173 -0.4356 -0.6634
   43MOL   C14116185   0.097   5.262   6.614  0.4993 -0.4378  0.0917
   43MOL   H14216186   0.211   5.217   6.431 -1.8527 -0.9895 -2.6314
   43MOL   H14316187   0.230   5.457   6.429  1.7562 -1.6174 -2.0050
   43MOL   H14416188   0.082   5.447   6.333  0.7511  1.1471  0.4777
   43MOL   H14516189   0.107   5.567   6.577 -0.4049 -0.0233  0.4057
   43MOL   H14616190   7.597   5.528   6.493 -0.5384 -0.6924 -0.9226
   43MOL   H14716191   7.544   5.349   6.611  0.6172 -1.2119 -1.4441
   43MOL   H14816192   0.102   5.452   6.798  0.2514 -3.4689  0.6154
   43MOL   H14916193   7.613   5.349   6.846  0.7790 -0.1919  0.4102
   43MOL   H15016194   7.615   5.644   6.736 -0.5348 -0.2938 -1.1486
   43MOL   H15116195   7.477   5.558   6.726 -1.3474 -1.4511  1.5642
   43MOL   H15216196   0.057   5.166   6.646 -2.6087  0.1056 -1.9171
   43MOL   H15316197   0.186   5.277   6.674  1.9193  0.3813 -2.1463
   43MOL   C15416198   7.540   5.599   6.935 -0.3760  0.0988 -0.0623
   43MOL   C15516199   7.425   5.521   7.001 -0.8219  0.5055 -0.0479
   43MOL   C15616200   7.308   5.618   7.006 -0.6619  0.2709 -0.0088
   43MOL   C15716201   7.368   5.759   7.038  0.3456 -0.6506  0.3039
   43MOL   C15816202   7.278   5.884   6.999 -0.2575  0.6336  0.5107
   43MOL   C15916203   7.324   6.017   7.060  0.5792  0.2149  0.0515
   43MOL   C16016204   7.500   5.749   6.960 -0.7506  0.4904 -0.6924
   43MOL   H16116205   7.627   5.567   6.991  1.4746 -0.2891 -3.0243
   43MOL   H16216206   7.404   5.421   6.965 -0.5895 -0.0549  1.3721
   43MOL   H16316207   7.456   5.490   7.100 -0.9306  0.5483 -0.0001
   43MOL   H16416208   7.251   5.628   6.914  1.7146 -1.9405 -1.8202
   43MOL   H16516209   7.235   5.583   7.080 -0.1088 -1.2486 -0.1538
   43MOL   H16616210   7.391   5.762   7.145  0.7276  0.8685  0.1851
   43MOL   H16716211   7.175   5.856   7.020 -0.0983 -0.8203 -0.5614
   43MOL   H16816212   7.272   5.887   6.891  0.2910 -1.8949  0.3686
   43MOL   H16916213   7.353   5.993   7.163 -2.3710 -1.6737  0.5146
   43MOL   H17016214   7.415   6.048   7.009  0.3240  0.6398 -0.1419
   43MOL   H17116215   7.588   5.798   7.001  2.0240 -2.3501 -2.9343
   43MOL   H17216216   7.487   5.802   6.866  0.1556  0.3299 -0.9127
   43MOL   C17316217   7.214   6.128   7.065 -0.2626  0.2604  0.1364
   43MOL   C17416218   7.274   6.265   7.119  0.2317 -0.3410 -0.2636
   43MOL   C17516219   7.182   6.366   7.041  0.1488 -0.3429 -0.5840
   43MOL   C17616220   7.147   6.314   6.906  0.7174  0.1252 -0.1943
   43MOL   C17716221   7.242   6.377   6.803  0.5401  0.1546 -0.4279
   43MOL   C17816222   7.196   6.330   6.662 -0.7498  0.4634 -0.0941
   43MOL   C17916223   7.164   6.163   6.924 -0.1014 -0.4541  0.0156
   43MOL   H18016224   7.135   6.096   7.132  0.7400  0.2564  1.3480
   43MOL   H18116225   7.372   6.293   7.081 -0.0843 -1.1050 -1.6861
   43MOL   H18216226   7.283   6.263   7.227 -1.2048 -0.2005 -0.1294
   43MOL   H18316227   7.084   6.380   7.087  1.3599 -1.8863  2.6216
   43MOL   H18416228   7.233   6.462   7.034  1.1090 -0.7306  0.8405
   43MOL   H18516229   7.046   6.348   6.883  0.5422 -0.2009  0.0871
   43MOL   H18616230   7.347   6.364   6.828  0.6779  1.8606 -0.0885
   43MOL   H18716231   7.227   6.484   6.801 -2.2078 -0.1944  0.0351
   43MOL   H18816232   7.090   6.344   6.643 -0.6953  0.0970 -0.7102
   43MOL   H18916233   7.191   6.222   6.649 -1.9729  0.2714  1.8460
   43MOL   H19016234   7.233   6.125   6.848 -1.3878 -1.8640 -0.4779
   43MOL   H19116235   7.067   6.118   6.901 -0.1240 -1.4879  2.0169
   43MOL   C19216236   7.271   6.393   6.545  0.5719  0.0798 -0.4861
   43MOL   C19316237   7.219   6.340   6.404 -0.9173  0.6981  0.9697
   43MOL   C19416238   7.349   6.330   6.314  0.2560 -0.5495  0.4171
   43MOL   C19516239   7.462   6.298   6.412  0.0842  0.1639 -0.1817
   43MOL   C19616240   7.599   6.327   6.362  0.4255 -0.8749  0.3406
   43MOL   C19716241   0.004   6.251   6.241 -0.1391  0.0347 -0.0195
   43MOL   C19816242   7.424   6.381   6.538 -0.2403 -0.3653 -0.2446
   43MOL   H19916243   7.250   6.500   6.550 -1.8725 -0.2924 -2.1023
   43MOL   H20016244   7.184   6.237   6.411  0.6886 -0.1368 -2.5610
   43MOL   H20116245   7.147   6.408   6.359 -2.5042 -0.2690  2.0289
   43MOL   H20216246   7.374   6.425   6.266  0.2852 -0.0703  1.3692
   43MOL   H20316247   7.341   6.256   6.234  2.6696  0.3495 -0.6975
   43MOL   H20416248   7.441   6.192   6.427  0.2728  0.2349  0.5951
   43MOL   H20516249   0.028   6.345   6.438  2.3726 -1.3183 -1.4520
   43MOL   H20616250   7.596   6.428   6.320  2.3292 -0.3002  1.5399
   43MOL   H20716251   7.598   6.263   6.146 -0.2010 -2.5185 -0.3235
   43MOL   H20816252   7.642   6.147   6.270 -1.3936  0.2549  0.3890
   43MOL   H20916253   7.459   6.484   6.529  2.2128 -1.1383 -0.0419
   43MOL   H21016254   7.464   6.341   6.631 -0.6487 -0.7809 -0.2433
   43MOL   C21116255   0.143   6.284   6.206 -0.8392 -0.7027 -0.9171
   43MOL   C21216256   0.166   6.422   6.139 -0.4310 -0.0530 -0.0893
   43MOL   C21316257   0.290   6.411   6.055 -0.5572 -0.2560 -0.3265
   43MOL   C21416258   0.338   6.263   6.065 -0.6041 -0.7106 -0.1446
   43MOL   C21516259   0.414   6.211   5.940  0.2826  0.3935 -0.5529
   43MOL   C21616260   0.540   6.297   5.913 -0.2781 -0.0721  0.0470
   43MOL   C21716261   0.212   6.185   6.105 -0.9248 -0.5188  0.3719
   43MOL   H21816262   0.200   6.271   6.298 -0.3390  0.3856 -1.0611
   43MOL   H21916263   0.073   6.434   6.083 -2.4203 -4.3151  2.1246
   43MOL   H22016264   0.172   6.510   6.204  2.2704  0.8840 -1.5347
   43MOL   H22116265   0.264   6.447   5.955 -0.6352  0.9593  0.1160
   43MOL   H22216266   0.364   6.481   6.096 -2.6050  0.8685  1.5195
   43MOL   H22316267   0.410   6.261   6.147 -0.6175  0.0616 -0.1109
   43MOL   H22416268   0.346   6.197   5.856 -0.8404  0.0849  0.4015
   43MOL   H22516269   0.448   6.110   5.961 -2.2918 -0.4632 -0.3320
   43MOL   H22616270   0.503   6.387   5.864 -0.8447  0.7846  2.0267
   43MOL   H22716271   0.585   6.335   6.004  2.2405  1.0463 -1.6168
   43MOL   H22816272   0.220   6.088   6.153  2.9901 -0.0054  0.9664
   43MOL   H22916273   0.169   6.159   6.008  0.2261 -2.4766  0.3587
   43MOL   C23016274   0.661   6.219   5.846 -0.0843 -0.2558 -0.1552
   43MOL   C23116275   0.775   6.311   5.817 -0.6272  0.1665  0.0461
   43MOL   C23216276   0.857   6.232   5.713  0.1148 -0.2712  0.3977
   43MOL   C23316277   0.756   6.149   5.633 -0.2364 -0.0044 -1.0733
   43MOL   C23416278   0.793   5.999   5.642  0.2288 -0.2188  0.1376
   43MOL   C23516279   0.928   5.957   5.580 -0.3248  0.0099 -0.7523
   43MOL   C23616280   0.626   6.174   5.707  0.1701 -0.3308  0.1831
   43MOL   H23716281   0.706   6.141   5.907 -1.5760 -1.0161  0.0161
   43MOL   H23816282   0.746   6.408   5.775 -0.3780  0.3810  0.3668
   43MOL   H23916283   0.839   6.334   5.902 -0.0947  0.9094 -0.5435
   43MOL   H24016284   0.932   6.171   5.764  1.8701 -0.0745 -1.8135
   43MOL   H24116285   0.905   6.302   5.645  0.7461 -1.2132 -0.1425
   43MOL   H24216286   0.745   6.185   5.531  1.4595  1.2065 -0.8447
   43MOL   H24316287   0.714   5.955   5.582  1.4041 -1.3347 -0.6340
   43MOL   H24416288   0.784   5.953   5.740 -2.5795 -2.7907 -1.2709
   43MOL   H24516289   0.933   6.005   5.483  1.7809  4.0747  1.2420
   43MOL   H24616290   1.009   6.005   5.636 -0.3604 -1.0558  0.2443
   43MOL   H24716291   0.553   6.093   5.707 -1.7074  1.3227  0.2906
   43MOL   H24816292   0.560   6.245   5.658  0.0930 -1.2749 -1.1111
   43MOL   C24916293   0.941   5.803   5.573 -0.7461  0.1713  0.6214
   43MOL   C25016294   0.830   5.726   5.500 -0.4336 -0.0724 -0.3059
   43MOL   C25116295   0.903   5.590   5.467 -0.1848 -0.4823 -0.5363
   43MOL   C25216296   1.055   5.618   5.445 -0.1094 -0.2796  0.4263
   43MOL   C25316297   1.150   5.504   5.483  0.5534 -0.0481  0.5053
   43MOL   C25416298   1.133   5.377   5.395 -0.2027  0.4615 -0.9402
   43MOL   C25516299   1.075   5.756   5.504  0.5880  0.2371 -0.2780
   43MOL   H25616300   0.951   5.773   5.677 -1.0548  1.7434  1.1229
   43MOL   H25716301   0.734   5.709   5.550  0.4398 -1.4217  0.9352
   43MOL   H25816302   0.807   5.779   5.407  0.2555 -0.7119 -0.8492
   43MOL   H25916303   0.867   5.529   5.385  1.5143 -0.3119 -1.4105
   43MOL   H26016304   0.892   5.527   5.555  1.3523 -3.0617 -2.1325
   43MOL   H26116305   1.057   5.629   5.336 -2.8810 -0.0605  0.3628
   43MOL   H26216306   1.110   5.479   5.581  1.6168  0.1794  1.0007
   43MOL   H26316307   1.251   5.545   5.479  0.8662 -0.8143  0.5355
   43MOL   H26416308   1.119   5.412   5.293  0.6820  0.0915 -1.1936
   43MOL   H26516309   1.046   5.324   5.432 -1.8103  2.9260 -1.1231
   43MOL   H26616310   1.100   5.827   5.425  2.6300  1.0627  1.0662
   43MOL   H26716311   1.161   5.753   5.571 -0.1142 -2.4211  0.5612
   43MOL   C26816312   1.248   5.275   5.409 -0.6401 -0.3499 -0.5843
   43MOL   C26916313   1.221   5.142   5.325 -0.6958 -0.3124 -0.6199
   43MOL   C27016314   1.256   5.025   5.419 -0.5511  0.2849  0.1680
   43MOL   C27116315   1.327   5.082   5.538 -0.5745 -0.0582  0.6613
   43MOL   C27216316   1.320   5.003   5.673  0.1380  0.4562  0.4030
   43MOL   C27316317   1.388   4.862   5.672  0.0015  0.3273 -0.2042
   43MOL   C27416318   1.256   5.216   5.553 -0.0158 -0.6724  0.4208
   43MOL   H27516319   1.339   5.327   5.379  0.2407 -1.1259  0.7084
   43MOL   H27616320   1.116   5.138   5.297 -1.3363  2.0079  1.1985
   43MOL   H27716321   1.281   5.143   5.235  1.9696  0.9069  1.0932
   43MOL   H27816322   1.167   4.971   5.454  1.7973 -3.1142  1.2070
   43MOL   H27916323   1.318   4.957   5.361  0.2615  0.9294  0.2763
   43MOL   H28016324   1.425   5.102   5.496 -0.7189 -0.9706 -0.1234
   43MOL   H28116325   1.214   4.989   5.695  0.6250 -0.4382  2.3236
   43MOL   H28216326   1.362   5.067   5.750  0.4322 -0.0765  0.6876
   43MOL   H28316327   1.369   4.823   5.572 -0.1519 -3.3495  1.2147
   43MOL   H28416328   1.494   4.873   5.692 -0.2640 -3.5399  3.9014
   43MOL   H28516329   1.153   5.191   5.578 -0.4786 -0.2455 -1.0005
   43MOL   H28616330   1.300   5.281   5.629  0.0509 -1.1413  0.7834
   43MOL   C28716331   1.331   4.761   5.771  0.1083 -0.1547 -0.6042
   43MOL   C28816332   1.370   4.618   5.736 -0.3963  0.4265  0.8569
   43MOL   C28916333   1.373   4.542   5.865  0.1550  0.0963 -0.6273
   43MOL   C29016334   1.349   4.640   5.981 -0.7696 -0.0036  0.8310
   43MOL   C29116335   1.426   4.600   6.113  0.7502 -0.9276 -0.6867
   43MOL   C29216336   1.391   4.686   6.228  0.2116 -0.0912 -0.4591
   43MOL   C29316337   1.386   4.770   5.919 -0.5209 -0.5000  0.1952
   43MOL   H29416338   1.223   4.772   5.778  0.4298  3.2316 -0.1469
   43MOL   H29516339   1.315   4.573   5.654  1.2560  2.0210 -1.1882
   43MOL   H29616340   1.473   4.623   5.700 -0.4364 -0.9975  0.5309
   43MOL   H29716341   1.471   4.500   5.888  0.8897  1.0835 -1.9031
   43MOL   H29816342   1.303   4.459   5.877 -1.4508  1.9589  4.1032
   43MOL   H29916343   1.242   4.649   5.995 -0.9793 -1.4133  0.1710
   43MOL   H30016344   1.532   4.601   6.089  0.3984 -0.4350 -2.2880
   43MOL   H30116345   1.404   4.496   6.137 -0.8235 -0.7752 -1.4034
   43MOL   H30216346   1.287   4.664   6.254 -0.5109  2.2109 -1.3243
   43MOL   H30316347   1.394   4.788   6.190 -1.4779  0.1414 -0.0273
   43MOL   H30416348   1.489   4.796   5.900 -0.5643  0.9439  1.8621
   43MOL   H30516349   1.337   4.854   5.968 -0.5391 -1.2179  1.4287
   43MOL   C30616350   1.482   4.674   6.355 -0.0567 -0.2922  0.6883
   43MOL   C30716351   1.537   4.805   6.409 -0.1037  0.4516  0.4654
   43MOL   C30816352   1.578   4.762   6.552 -0.4486 -0.1694 -0.3449
   43MOL   C30916353   1.478   4.662   6.602  0.1732 -0.6283  0.2149
   43MOL   C31016354   1.375   4.707   6.709  0.3019 -0.0228 -0.4411
   43MOL   C31116355   1.268   4.602   6.746  0.4317 -0.0782 -0.6396
   43MOL   C31216356   1.403   4.615   6.476 -0.2119  0.2259  0.2592
   43MOL   H31316357   1.570   4.612   6.336  1.5647  2.4126 -0.8767
   43MOL   H31416358   1.630   4.846   6.371 -0.9319  2.9536  1.0337
   43MOL   H31516359   1.458   4.879   6.416 -1.3838 -0.5336 -2.7279
   43MOL   H31616360   1.681   4.725   6.554  0.4038  2.1604  0.3132
   43MOL   H31716361   1.583   4.849   6.617  2.9268 -0.5170 -0.0572
   43MOL   H31816362   1.520   4.571   6.644  0.4370 -0.6007  0.0124
   43MOL   H31916363   1.436   4.744   6.791  1.1838 -1.3596 -0.4786
   43MOL   H32016364   1.318   4.793   6.674  0.3301  0.4521  0.6575
   43MOL   H32116365   1.317   4.506   6.768 -1.6556 -0.6568  1.7170
   43MOL   H32216366   1.186   4.587   6.676 -0.3600  0.2572  0.2100
   43MOL   H32316367   1.301   4.652   6.476 -1.6394 -3.3698  2.4806
   43MOL   H32416368   1.397   4.507   6.464 -1.5910  0.3404 -0.0952
   43MOL   C32516369   1.200   4.635   6.880  0.1840 -0.3571  0.6491
   43MOL   C32616370   1.114   4.761   6.878 -0.2471 -0.4858 -0.3308
   43MOL   C32716371   0.970   4.721   6.840 -0.0300  0.5869 -0.0433
   43MOL   C32816372   0.957   4.573   6.852  0.3657 -0.4053 -0.4406
   43MOL   C32916373   0.827   4.521   6.921  0.8194 -0.1054  0.2918
   43MOL   C33016374   0.827   4.375   6.929  0.9466  0.2869 -0.0354
   43MOL   C33116375   1.087   4.534   6.925  0.1379 -0.1113 -0.4547
   43MOL   H33216376   1.279   4.629   6.955  0.3146 -1.0258  0.4627
   43MOL   H33316377   1.156   4.841   6.818 -2.5963  1.4275  0.4943
   43MOL   H33416378   1.106   4.796   6.981 -1.4702  0.1016 -0.6219
   43MOL   H33516379   0.904   4.781   6.903 -0.9244  0.3202 -0.7102
   43MOL   H33616380   0.943   4.743   6.737  0.2472  0.0508 -0.2283
   43MOL   H33716381   0.967   4.530   6.752  0.3072 -0.1547 -0.5537
   43MOL   H33816382   0.819   4.564   7.021  0.2452 -1.0808  0.6725
   43MOL   H33916383   0.732   4.552   6.876  0.0583 -1.7639  0.7114
   43MOL   H34016384   0.852   4.334   6.831  0.3966 -1.0848  0.3839
   43MOL   H34116385   0.902   4.355   7.005  0.6384 -1.8467 -0.2579
   43MOL   H34216386   1.125   4.432   6.915  0.1998 -0.2061  0.7083
   43MOL   H34316387   1.085   4.541   7.034  1.7916 -0.5213 -0.3928
   43MOL   C34416388   0.696   4.307   6.977 -0.5737 -0.3794  0.1783
   43MOL   C34516389   0.709   4.161   7.000 -0.3412 -0.1511 -0.1817
   43MOL   C34616390   0.616   4.091   6.904  0.1620 -0.0512 -0.3493
   43MOL   C34716391   0.502   4.185   6.878 -0.7357  0.3805  0.8843
   43MOL   C34816392   0.394   4.177   6.979  0.3190 -0.1206 -0.5905
   43MOL   C34916393   0.299   4.298   6.964  0.0940 -0.5398 -0.1485
   43MOL   C35016394   0.583   4.319   6.872  0.6743  0.2398  0.0008
   43MOL   H35116395   0.660   4.355   7.067 -1.0517  2.4824 -1.4813
   43MOL   H35216396   0.681   4.140   7.103  2.2595  0.1567  0.6193
   43MOL   H35316397   0.806   4.115   6.985 -1.1512 -2.3135  0.9254
   43MOL   H35416398   0.661   4.062   6.809 -0.4763  1.3733 -1.0994
   43MOL   H35516399   0.589   3.996   6.951  1.1537 -0.7632 -1.1817
   43MOL   H35616400   0.463   4.169   6.778  2.8028 -0.4048 -0.4505
   43MOL   H35716401   0.334   4.086   6.970 -2.5476  1.6940 -0.7123
   43MOL   H35816402   0.419   4.182   7.085 -1.0357 -1.9867 -0.1479
   43MOL   H35916403   0.294   4.329   6.860 -2.2159  3.7079  1.1145
   43MOL   H36016404   0.340   4.382   7.021  0.6441 -0.4517 -0.6680
   43MOL   H36116405   0.622   4.323   6.771  2.1549 -1.6271  0.4643
   43MOL   H36216406   0.520   4.408   6.869 -2.5163 -1.8078  2.3431
   43MOL   C36316407   0.154   4.265   6.998  0.2103 -0.0827 -0.0533
   43MOL   C36416408   0.072   4.392   7.017 -1.0720  0.0134  0.3328
   43MOL   C36516409   7.616   4.345   7.115  0.0823 -1.1856  0.5716
   43MOL   C36616410   7.637   4.200   7.150  0.0065 -0.2896  0.0692
   43MOL   C36716411   7.582   4.173   7.290  0.1949  0.3011 -0.4270
   43MOL   C36816412   7.561   4.026   7.320 -0.0174 -0.6439 -0.3721
   43MOL   C36916413   0.136   4.176   7.121 -0.1260 -0.8408  0.1745
   43MOL   H37016414   0.116   4.214   6.910 -1.2214 -1.4845  1.3463
   43MOL   H37116415   0.123   4.482   7.050  0.2866 -0.3136 -0.8201
   43MOL   H37216416   0.023   4.408   6.920 -1.3572 -0.8403  0.3278
   43MOL   H37316417   7.607   4.395   7.211  0.5516  0.9722 -0.4783
   43MOL   H37416418   7.515   4.367   7.080  0.2711 -0.6963  0.3283
   43MOL   H37516419   7.572   4.142   7.085  0.8052 -0.7205 -0.3485
   43MOL   H37616420   7.643   4.211   7.372 -0.4982  0.9317 -0.1931
   43MOL   H37716421   7.482   4.215   7.300 -0.5987 -1.4222 -0.9437
   43MOL   H37816422   0.005   3.965   7.323  0.6278  0.4011  2.7059
   43MOL   H37916423   7.489   3.985   7.250 -0.6755  1.9781 -1.2524
   43MOL   H38016424   0.207   4.210   7.196  1.4540 -0.4625 -1.4368
   43MOL   H38116425   0.161   4.072   7.104 -1.0946 -1.0979  0.3077
   43MOL   H38216426   7.526   4.017   7.423 -0.8016  0.0190 -0.5783
   44MOL     C116427   3.426   1.870   2.568 -0.3480  0.0402 -0.3212
   44MOL     C216428   3.352   1.751   2.517  0.1361 -0.0123  0.5762
   44MOL     C316429   3.406   1.637   2.601 -0.2151 -0.1246  0.0573
   44MOL     C416430   3.416   1.698   2.746 -0.2776 -0.2026 -0.0502
   44MOL     C516431   3.513   1.632   2.848  0.7318  0.0614  0.8772
   44MOL     C616432   3.440   1.618   2.986 -0.2190 -0.5831 -0.2548
   44MOL     C716433   3.452   1.847   2.715  0.1382  0.0942 -0.1047
   44MOL     H816434   3.518   1.884   2.512  0.1688  3.7176  1.2886
   44MOL     H916435   3.373   1.740   2.410  1.3296 -2.6679  1.0560
   44MOL    H1016436   3.248   1.751   2.548  1.1226  0.1986  4.0255
   44MOL    H1116437   3.351   1.543   2.600  0.4247 -0.5365  1.6519
   44MOL    H1216438   3.510   1.612   2.580 -0.3087 -1.7035  1.3688
   44MOL    H1316439   3.314   1.696   2.785 -0.0386 -2.2413  0.4920
   44MOL    H1416440   3.542   1.532   2.815 -1.5593 -0.9820  1.9095
   44MOL    H1516441   3.610   1.677   2.868  1.0375 -1.0928  2.1043
   44MOL    H1616442   3.435   1.708   3.046 -2.4233 -0.7347 -0.1910
   44MOL    H1716443   3.341   1.578   2.968 -1.2864  1.6677  0.4457
   44MOL    H1816444   3.392   1.906   2.783  0.7859 -1.3571  1.7903
   44MOL    H1916445   3.554   1.872   2.744  0.4654 -0.9168 -0.3428
   44MOL    H2016446   3.374   1.965   2.554 -0.7606  0.0758  1.2783
   44MOL    C2116447   3.526   1.531   3.084  0.2586 -0.4914 -0.1711
   44MOL    C2216448   3.460   1.514   3.216  0.4175 -0.7861  0.0027
   44MOL    C2316449   3.527   1.383   3.270  1.0622  0.5449 -0.1858
   44MOL    C2416450   3.606   1.315   3.156 -0.1364 -0.1113 -0.4479
   44MOL    C2516451   3.590   1.167   3.132 -0.4400 -0.1017 -0.1535
   44MOL    C2616452   3.673   1.114   3.016  0.0988  0.2518 -0.0760
   44MOL    C2716453   3.560   1.392   3.031  1.1143 -0.4132 -0.6806
   44MOL    H2816454   3.624   1.578   3.093  1.0559 -2.4685  2.0318
   44MOL    H2916455   3.477   1.606   3.272  0.2279 -1.4317  1.1443
   44MOL    H3016456   3.352   1.502   3.204  0.2359  0.9647 -0.1890
   44MOL    H3116457   3.589   1.397   3.359  0.9397  0.0348 -0.0189
   44MOL    H3216458   3.447   1.319   3.306  0.1793  1.0982 -1.1352
   44MOL    H3316459   3.712   1.333   3.173 -0.0445 -2.3870  1.5769
   44MOL    H3416460   3.486   1.134   3.125 -0.9276  1.3920 -0.0214
   44MOL    H3516461   3.622   1.115   3.222 -0.3279  0.3816  0.0867
   44MOL    H3616462   3.776   1.147   3.022 -0.6511  2.1765  3.3577
   44MOL    H3716463   3.640   1.143   2.917 -0.0381  0.2971 -0.0175
   44MOL    H3816464   3.650   1.398   2.971  1.5653  0.7456  0.0935
   44MOL    H3916465   3.468   1.350   2.991  0.0759  0.0186  1.1794
   44MOL    C4016466   3.684   0.957   3.008  0.2335  0.1754 -0.4811
   44MOL    C4116467   3.552   0.883   2.964  0.2850 -0.3287 -0.4461
   44MOL    C4216468   3.610   0.780   2.867  0.1071 -0.4742  0.2005
   44MOL    C4316469   3.738   0.846   2.801 -0.3407  0.1964 -0.3330
   44MOL    C4416470   3.829   0.756   2.729  0.3433  0.7451 -0.1121
   44MOL    C4516471   3.950   0.826   2.670  0.8114  0.0211 -0.1232
   44MOL    C4616472   3.799   0.914   2.919 -0.3514 -0.3038  0.0250
   44MOL    H4716473   3.705   0.923   3.109 -1.0139  1.1654  0.1186
   44MOL    H4816474   3.486   0.946   2.905 -0.5061 -1.4098 -0.7392
   44MOL    H4916475   3.511   0.843   3.057  1.6781 -2.1427 -0.5815
   44MOL    H5016476   3.636   0.693   2.928  0.7717 -0.0898  0.4706
   44MOL    H5116477   3.542   0.752   2.786  1.0778 -0.8239 -0.4908
   44MOL    H5216478   3.708   0.926   2.733  0.0586  0.9210  0.3286
   44MOL    H5316479   3.853   0.666   2.786  2.7465  1.3911 -0.0357
   44MOL    H5416480   3.774   0.709   2.647  2.6853 -0.8096 -0.8498
   44MOL    H5516481   3.997   0.887   2.747  1.2800  0.9238 -1.1136
   44MOL    H5616482   3.919   0.896   2.592  3.2510 -0.2943 -1.4241
   44MOL    H5716483   3.867   0.842   2.965 -1.4814 -1.9035 -0.7422
   44MOL    H5816484   3.860   0.995   2.878 -0.7524  1.3334  2.5964
   44MOL    C5916485   4.056   0.732   2.613 -0.5349 -0.5581  0.7592
   44MOL    C6016486   4.046   0.734   2.459  0.4289 -0.0574 -0.0684
   44MOL    C6116487   4.176   0.788   2.393  0.2607 -0.7024  0.2170
   44MOL    C6216488   4.233   0.867   2.511  0.4936  0.1973 -0.6669
   44MOL    C6316489   4.377   0.897   2.492  0.0028  0.5570 -0.5230
   44MOL    C6416490   4.401   1.022   2.400  0.2855 -0.3724  0.4302
   44MOL    C6516491   4.205   0.785   2.635 -0.0229 -0.1134 -0.0244
   44MOL    H6616492   4.039   0.630   2.647 -3.4793 -0.9571 -1.6303
   44MOL    H6716493   4.030   0.630   2.431 -3.5920  1.1070 -2.4478
   44MOL    H6816494   3.954   0.784   2.427  0.5422  0.3038  0.1696
   44MOL    H6916495   4.231   0.702   2.355 -0.4106 -2.0363  2.1973
   44MOL    H7016496   4.159   0.847   2.303 -0.7169 -2.0118 -0.4873
   44MOL    H7116497   4.178   0.961   2.517  1.3565  0.8483 -2.4627
   44MOL    H7216498   4.423   0.805   2.456 -0.4230 -0.3072  1.1124
   44MOL    H7316499   4.423   0.915   2.589 -0.3224  1.6020 -0.5628
   44MOL    H7416500   4.361   1.004   2.300  0.3307  0.0728  0.3290
   44MOL    H7516501   4.337   1.103   2.435 -0.1407  0.6677 -2.6429
   44MOL    H7616502   4.270   0.697   2.632  3.1215  2.1289 -1.1518
   44MOL    H7716503   4.226   0.821   2.736  0.0909 -2.0064  0.6604
   44MOL    C7816504   4.549   1.059   2.369 -0.1434  0.1426  0.1569
   44MOL    C7916505   4.557   1.175   2.269 -0.1024  0.3150 -0.2068
   44MOL    C8016506   4.691   1.249   2.294  0.3202 -0.3737  0.6509
   44MOL    C8116507   4.723   1.219   2.439  0.0053 -0.1556 -0.3948
   44MOL    C8216508   4.763   1.337   2.530 -0.0365 -0.0431  0.1550
   44MOL    C8316509   4.826   1.285   2.656  0.0173 -0.6102  0.2932
   44MOL    C8416510   4.604   1.129   2.490  0.4301 -0.0755  0.1043
   44MOL    H8516511   4.598   0.967   2.337  0.2199 -0.1622  1.5492
   44MOL    H8616512   4.546   1.151   2.163  2.5341  0.7648 -0.6007
   44MOL    H8716513   4.479   1.248   2.292 -0.2732 -0.0736  0.4691
   44MOL    H8816514   4.772   1.208   2.233  0.1745  1.1978 -0.6174
   44MOL    H8916515   4.677   1.355   2.273 -3.4068 -0.4637  2.2177
   44MOL    H9016516   4.815   1.161   2.439  0.1224  0.0282 -0.4509
   44MOL    H9116517   4.681   1.405   2.550  0.6228  0.4910  1.0525
   44MOL    H9216518   4.832   1.397   2.470 -1.3160  1.0387 -0.2656
   44MOL    H9316519   4.923   1.241   2.632  0.8939  0.1394  2.3108
   44MOL    H9416520   4.758   1.218   2.708 -0.1489 -0.2865  0.4962
   44MOL    H9516521   4.530   1.183   2.549 -0.1620 -0.1993 -0.5309
   44MOL    H9616522   4.622   1.041   2.551  2.8862 -0.0644 -0.5488
   44MOL    C9716523   4.838   1.401   2.766  0.0020 -0.2470  0.4266
   44MOL    C9816524   4.948   1.506   2.748  0.2750  0.1882 -0.0512
   44MOL    C9916525   4.961   1.574   2.882  0.3528 -0.1491  0.4439
   44MOL   C10016526   4.916   1.473   2.988 -0.8623 -0.1177  0.2070
   44MOL   C10116527   5.021   1.437   3.095 -0.4991  0.0127 -0.4051
   44MOL   C10216528   4.974   1.357   3.220 -0.9275 -0.7085 -0.0327
   44MOL   C10316529   4.865   1.347   2.905 -0.1381 -1.4037  0.3736
   44MOL   H10416530   4.739   1.447   2.762  0.0503 -0.0029  1.8872
   44MOL   H10516531   5.045   1.459   2.732 -0.0799 -0.5278 -0.1547
   44MOL   H10616532   4.934   1.584   2.674  2.0442  0.3337 -0.2658
   44MOL   H10716533   5.063   1.609   2.894  0.2032  1.0098 -1.5280
   44MOL   H10816534   4.895   1.661   2.889 -1.4969 -1.6445  2.3876
   44MOL   H10916535   4.837   1.516   3.049  0.8320  3.1383  0.2129
   44MOL   H11016536   5.113   1.403   3.047 -1.6925 -1.9264 -1.3709
   44MOL   H11116537   5.051   1.537   3.126  2.8020 -0.8179 -0.7429
   44MOL   H11216538   4.908   1.409   3.290  0.1789  0.5674  0.0902
   44MOL   H11316539   4.913   1.276   3.180 -1.1005  0.1554 -1.5471
   44MOL   H11416540   4.951   1.280   2.905  1.3119  0.4180  0.3121
   44MOL   H11516541   4.775   1.305   2.949 -1.0862 -0.9921 -1.0958
   44MOL   C11616542   5.102   1.301   3.289  0.0872  0.0859  0.4151
   44MOL   C11716543   5.170   1.411   3.365 -0.1728 -0.5128  0.4230
   44MOL   C11816544   5.217   1.348   3.501  0.0829 -0.5320  0.5373
   44MOL   C11916545   5.196   1.197   3.479 -0.7449 -0.0964  0.4586
   44MOL   C12016546   5.206   1.112   3.605 -0.3215  0.3320 -1.1316
   44MOL   C12116547   5.240   0.963   3.574  0.0598 -0.2238  0.6502
   44MOL   C12216548   5.075   1.186   3.391 -0.2941  0.2547 -0.4747
   44MOL   H12316549   5.176   1.261   3.218  0.4113 -0.5164  1.0799
   44MOL   H12416550   5.099   1.492   3.382 -0.4786 -0.5203 -0.8008
   44MOL   H12516551   5.261   1.437   3.309 -0.6637  2.8126  1.0400
   44MOL   H12616552   5.161   1.392   3.583  1.7507 -0.0538  1.4531
   44MOL   H12716553   5.322   1.372   3.519  0.5458 -0.2411 -2.2290
   44MOL   H12816554   5.285   1.177   3.420 -1.4254 -2.4964  0.1690
   44MOL   H12916555   5.109   1.117   3.655  0.2401 -0.7402  0.0990
   44MOL   H13016556   5.289   1.149   3.664  0.2347 -2.6646  0.0920
   44MOL   H13116557   5.335   0.949   3.523 -1.1276  0.5816 -1.8561
   44MOL   H13216558   5.171   0.933   3.495  0.3681  0.6207  0.0584
   44MOL   H13316559   5.064   1.092   3.338  0.3095 -0.5025  0.7470
   44MOL   H13416560   4.982   1.195   3.448  0.6085 -0.0600  1.0577
   44MOL   C13516561   5.227   0.859   3.693  0.0733 -0.5767  0.4937
   44MOL   C13616562   5.079   0.841   3.729  0.9701  0.4343 -0.3531
   44MOL   C13716563   5.049   0.696   3.747  0.4200 -0.9193 -0.2157
   44MOL   C13816564   5.144   0.626   3.651  0.5109 -0.0300  0.6042
   44MOL   C13916565   5.171   0.477   3.682 -0.5427 -0.1456 -0.2671
   44MOL   C14016566   5.085   0.375   3.598 -0.3038 -0.2030  0.3082
   44MOL   C14116567   5.268   0.713   3.646 -0.4842  0.1159  0.6672
   44MOL   H14216568   5.290   0.894   3.774 -1.0515  1.8084  0.3957
   44MOL   H14316569   5.050   0.895   3.819 -2.6089 -1.6305 -0.1579
   44MOL   H14416570   5.017   0.877   3.647 -0.3109  0.0046  0.3968
   44MOL   H14516571   5.072   0.674   3.851 -0.3340 -1.8328 -0.2365
   44MOL   H14616572   4.943   0.674   3.741  0.7710 -2.6644 -0.3036
   44MOL   H14716573   5.096   0.623   3.553  0.6191  0.8212  0.5234
   44MOL   H14816574   5.171   0.469   3.791  0.7788 -0.2723 -0.2609
   44MOL   H14916575   5.275   0.452   3.658 -0.3903 -0.0692  0.2845
   44MOL   H15016576   4.980   0.401   3.585  0.0287  0.5654 -0.9181
   44MOL   H15116577   5.113   0.369   3.493  0.5249  0.8763  0.4637
   44MOL   H15216578   5.297   0.711   3.541  0.2274  2.3961  0.7897
   44MOL   H15316579   5.356   0.680   3.702  0.3454  2.2215  0.6278
   44MOL   C15416580   5.095   0.238   3.661 -0.3729  1.3158 -0.0875
   44MOL   C15516581   5.236   0.176   3.655  0.1379 -0.2348  0.1168
   44MOL   C15616582   5.210   0.029   3.655 -0.5123 -0.2829 -0.2289
   44MOL   C15716583   5.063   7.645   3.625 -0.3292  0.2476  0.0768
   44MOL   C15816584   5.028   7.533   3.519 -0.6782 -0.1283  0.3812
   44MOL   C15916585   5.097   7.404   3.534  0.4060  0.6079  0.3181
   44MOL   C16016586   5.001   0.137   3.595 -0.4379 -0.0129  0.1936
   44MOL   H16116587   5.070   0.246   3.767  0.0689 -1.2076  0.2388
   44MOL   H16216588   5.290   0.206   3.566  2.4399 -0.2540  1.4607
   44MOL   H16316589   5.305   0.202   3.736 -1.1061 -0.1847  1.1804
   44MOL   H16416590   5.275   7.625   3.583  0.2390  0.3646 -0.0197
   44MOL   H16516591   5.217   7.635   3.756  0.2992 -0.6049 -0.4050
   44MOL   H16616592   5.016   7.604   3.715 -0.3202 -1.1045 -0.5189
   44MOL   H16716593   5.049   7.577   3.422 -0.0454 -0.4640  0.3639
   44MOL   H16816594   4.921   7.516   3.530 -0.3973 -2.0343  0.3762
   44MOL   H16916595   5.202   7.415   3.507  0.5925  0.4292  0.9583
   44MOL   H17016596   5.096   7.382   3.641  0.0336 -0.3016  0.1332
   44MOL   H17116597   4.897   0.146   3.625 -0.0496 -1.3470  2.0524
   44MOL   H17216598   4.997   0.147   3.486  0.4561 -1.7489 -0.0163
   44MOL   C17316599   5.044   7.295   3.452  0.1938 -0.2502 -0.7128
   44MOL   C17416600   5.030   7.323   3.299 -0.1708 -0.0713 -0.4261
   44MOL   C17516601   5.053   7.180   3.232 -0.0979 -0.3460  0.4641
   44MOL   C17616602   5.077   7.086   3.350  0.3177  0.7690 -0.3201
   44MOL   C17716603   5.157   6.954   3.319 -0.8777  0.2411  0.4669
   44MOL   C17816604   5.299   6.968   3.268  0.5361 -0.7735 -0.5989
   44MOL   C17916605   5.131   7.171   3.461 -0.2407  0.2194  0.2370
   44MOL   H18016606   4.950   7.265   3.500  0.3037  1.9245  0.9360
   44MOL   H18116607   5.105   7.391   3.258  0.0557 -0.8160 -1.2544
   44MOL   H18216608   4.929   7.361   3.283 -0.2909  1.5187  3.4910
   44MOL   H18316609   4.961   7.146   3.185 -0.7906  3.5811 -1.2356
   44MOL   H18416610   5.135   7.179   3.160  0.1788 -1.2651  0.7760
   44MOL   H18516611   4.979   7.061   3.391  1.1559 -0.3927  1.0232
   44MOL   H18616612   5.097   6.904   3.243  0.7185 -1.3658  0.2096
   44MOL   H18716613   5.154   6.886   3.404 -0.6140 -2.0940 -1.3418
   44MOL   H18816614   5.362   7.010   3.346 -0.5732  0.6621 -0.4410
   44MOL   H18916615   5.299   7.056   3.204  0.7409  0.2977  0.8639
   44MOL   H19016616   5.237   7.194   3.448 -0.0914  2.1779  4.2714
   44MOL   H19116617   5.126   7.120   3.557  0.0454 -0.2740 -0.0097
   44MOL   C19216618   5.358   6.846   3.203  0.2901 -0.1291 -0.8537
   44MOL   C19316619   5.405   6.735   3.305  0.0974 -0.4266 -0.5777
   44MOL   C19416620   5.525   6.667   3.241  0.0735 -0.0013  0.3356
   44MOL   C19516621   5.605   6.780   3.178  0.5310  0.1067 -0.0315
   44MOL   C19616622   5.701   6.743   3.068 -0.0142  0.2988  0.4290
   44MOL   C19716623   5.836   6.682   3.120  0.5428 -0.3708 -0.0321
   44MOL   C19816624   5.499   6.877   3.135  0.8253  0.1200  0.3416
   44MOL   H19916625   5.291   6.803   3.129 -2.0180  0.4971  0.8087
   44MOL   H20016626   5.442   6.788   3.393 -3.0770 -1.5818  1.5323
   44MOL   H20116627   5.321   6.673   3.336 -2.0075  1.8232 -1.6052
   44MOL   H20216628   5.499   6.589   3.170  2.5497 -0.3412 -0.2349
   44MOL   H20316629   5.590   6.613   3.310 -1.1590 -0.0320  1.5075
   44MOL   H20416630   5.659   6.835   3.255 -0.9535 -0.4090  1.4103
   44MOL   H20516631   5.720   6.831   3.006  1.8270  0.3837  1.0933
   44MOL   H20616632   5.650   6.675   3.000  0.2765 -0.5117  1.0190
   44MOL   H20716633   5.804   6.580   3.144 -0.3929 -0.4688 -1.6288
   44MOL   H20816634   5.865   6.739   3.208 -1.1756  1.0964 -0.3682
   44MOL   H20916635   5.485   6.887   3.028 -1.8961  1.3618  0.7667
   44MOL   H21016636   5.531   6.979   3.153  1.4750  0.1234 -0.8147
   44MOL   C21116637   5.939   6.670   3.009 -0.3744  0.6283 -0.3473
   44MOL   C21216638   6.076   6.652   3.072  0.3104 -0.8311  0.0961
   44MOL   C21316639   6.177   6.717   2.965 -0.3952  0.2715 -0.3354
   44MOL   C21416640   6.093   6.793   2.860  0.1748  0.6865 -0.2491
   44MOL   C21516641   6.141   6.936   2.822  0.0375 -0.1947  0.5146
   44MOL   C21616642   6.300   6.949   2.797  0.4372 -0.7764 -0.0935
   44MOL   C21716643   5.961   6.801   2.928  0.0560 -0.3283 -0.2131
   44MOL   H21816644   5.913   6.595   2.934  0.2195  0.1171 -0.0448
   44MOL   H21916645   6.107   6.701   3.164 -0.7966 -0.4952  0.2909
   44MOL   H22016646   6.098   6.548   3.096 -1.8320 -1.5248 -0.8210
   44MOL   H22116647   6.237   6.787   3.023 -2.4486  2.2638 -0.5164
   44MOL   H22216648   6.233   6.637   2.917 -1.2169 -1.4912  1.5452
   44MOL   H22316649   6.083   6.720   2.780  0.8045  0.4142 -0.0822
   44MOL   H22416650   6.103   7.001   2.901 -1.2066  0.0517 -0.2580
   44MOL   H22516651   6.082   6.968   2.736 -0.7839  0.2581  1.2412
   44MOL   H22616652   6.366   6.910   2.875  2.7921 -0.0216 -1.6614
   44MOL   H22716653   6.322   6.882   2.714  0.2140 -3.3174  1.8416
   44MOL   H22816654   5.881   6.817   2.856 -0.1668  1.5602  0.4042
   44MOL   H22916655   5.951   6.890   2.992 -1.2880 -0.5822 -0.0631
   44MOL   C23016656   6.337   7.094   2.769 -0.7733 -0.0874  0.6261
   44MOL   C23116657   6.489   7.106   2.746  0.0889  0.2349  0.1523
   44MOL   C23216658   6.523   7.251   2.773 -0.4574  0.0970  0.4506
   44MOL   C23316659   6.436   7.282   2.896 -0.0300 -0.0322  0.2178
   44MOL   C23416660   6.407   7.433   2.902  0.4565 -0.0247 -0.4274
   44MOL   C23516661   6.314   7.467   3.018 -0.1069 -0.3690  0.2539
   44MOL   C23616662   6.308   7.193   2.880 -0.7446 -0.2132  0.5368
   44MOL   H23716663   6.283   7.128   2.680 -2.5028  0.7709  1.9782
   44MOL   H23816664   6.551   7.047   2.814 -0.0671  1.7449  1.6589
   44MOL   H23916665   6.523   7.086   2.645  1.1665  1.7007  0.2009
   44MOL   H24016666   6.495   7.312   2.688  1.2570 -0.7404 -0.7477
   44MOL   H24116667   6.628   7.267   2.799 -1.1132  0.6335  2.9298
   44MOL   H24216668   6.486   7.249   2.986 -0.3672 -0.2111  0.3388
   44MOL   H24316669   6.365   7.474   2.810 -0.2066 -1.7760 -0.9187
   44MOL   H24416670   6.500   7.489   2.911  0.5411 -0.0822 -0.9668
   44MOL   H24516671   6.212   7.471   2.980  0.3850  0.1653 -1.0352
   44MOL   H24616672   6.308   7.386   3.091 -0.7367  0.8259  1.5561
   44MOL   H24716673   6.228   7.262   2.851 -0.8734 -0.6201 -0.0898
   44MOL   H24816674   6.277   7.145   2.972 -0.6521  1.3046  1.3761
   44MOL   C24916675   6.344   7.601   3.085  0.0071  0.5038 -0.6473
   44MOL   C25016676   6.452   7.603   3.198 -0.7753 -0.4335  0.0182
   44MOL   C25116677   6.481   0.107   3.218  0.8741 -0.2351  0.2175
   44MOL   C25216678   6.436   0.178   3.082 -0.6399  0.1432  0.3235
   44MOL   C25316679   6.343   0.303   3.112 -0.2546  0.2745  0.0742
   44MOL   C25416680   6.393   0.398   3.230  0.0295  0.1456  1.0222
   44MOL   C25516681   6.367   0.075   2.992  1.1071 -0.2690 -0.1196
   44MOL   H25616682   6.246   7.626   3.125 -0.1777 -0.8160 -0.2480
   44MOL   H25716683   6.418   7.561   3.292 -0.5409 -1.3868 -0.3189
   44MOL   H25816684   6.543   7.551   3.168 -0.2098  1.0127 -0.8068
   44MOL   H25916685   6.588   0.126   3.229  0.9036 -0.1522 -0.2011
   44MOL   H26016686   6.425   0.133   3.308 -0.4284  0.7463 -0.8569
   44MOL   H26116687   6.521   0.222   3.029 -1.2011  1.0049  0.1455
   44MOL   H26216688   6.241   0.277   3.139  0.1481  0.1888  1.5359
   44MOL   H26316689   6.332   0.360   3.020 -2.0870  0.7130  0.5445
   44MOL   H26416690   6.490   0.431   3.193 -0.8430  0.5260 -0.9940
   44MOL   H26516691   6.417   0.346   3.323 -2.2791 -0.3459  1.3728
   44MOL   H26616692   6.434   0.057   2.908  0.9788  1.6520 -0.6590
   44MOL   H26716693   6.278   0.114   2.945  1.1039 -1.1392 -0.8445
   44MOL   C26816694   6.306   0.527   3.248 -0.3222 -0.2667 -0.3298
   44MOL   C26916695   6.393   0.630   3.318  0.2732 -0.0767 -0.3509
   44MOL   C27016696   6.301   0.701   3.414  0.6216 -0.1137 -0.5342
   44MOL   C27116697   6.154   0.650   3.384 -0.3738 -0.1051  0.4476
   44MOL   C27216698   6.059   0.651   3.503  1.2285 -0.2703 -0.4237
   44MOL   C27316699   6.031   0.789   3.560  0.0705 -0.0324  0.3478
   44MOL   C27416700   6.176   0.517   3.322  0.3714  0.0904  0.1040
   44MOL   H27516701   6.276   0.553   3.147  0.1221 -0.2846 -0.4659
   44MOL   H27616702   6.473   0.589   3.380 -1.3859 -3.0288 -0.0706
   44MOL   H27716703   6.423   0.697   3.237 -0.4596 -0.5154 -0.9858
   44MOL   H27816704   6.317   0.670   3.517  1.9987 -0.0227 -0.7117
   44MOL   H27916705   6.310   0.809   3.408 -0.6943 -0.0847 -2.5825
   44MOL   H28016706   6.112   0.712   3.304  0.1349 -2.0660 -1.4091
   44MOL   H28116707   6.105   0.585   3.577  1.9201  0.8945  0.2052
   44MOL   H28216708   5.969   0.605   3.463 -0.1147  0.7254  1.3923
   44MOL   H28316709   6.126   0.816   3.606  0.4223 -0.9027  0.1394
   44MOL   H28416710   6.000   0.854   3.478 -3.6723 -0.1012  1.6050
   44MOL   H28516711   6.194   0.446   3.403  0.2041  1.8037  1.6831
   44MOL   H28616712   6.093   0.480   3.262 -1.6348  1.8253  1.7289
   44MOL   C28716713   5.906   0.794   3.659 -0.4343 -0.7566 -0.4021
   44MOL   C28816714   5.947   0.714   3.784  0.9154  0.2462 -0.0902
   44MOL   C28916715   5.902   0.800   3.905 -0.3384  0.1815 -0.3847
   44MOL   C29016716   5.803   0.899   3.845 -0.3540 -0.1652  0.5158
   44MOL   C29116717   5.761   1.023   3.927  0.0818 -0.3423 -0.1151
   44MOL   C29216718   5.627   1.080   3.874  0.6879 -0.8788  0.2546
   44MOL   C29316719   5.877   0.931   3.715  0.3917  0.5834 -0.4432
   44MOL   H29416720   5.816   0.757   3.609 -0.6370 -0.1211 -0.5012
   44MOL   H29516721   5.898   0.617   3.783 -0.1258  0.6911  2.6794
   44MOL   H29616722   6.055   0.701   3.792  0.5019 -2.2630  1.9761
   44MOL   H29716723   5.987   0.843   3.959 -0.1121  0.2073 -0.7655
   44MOL   H29816724   5.860   0.744   3.989  0.6704  0.2562  0.1841
   44MOL   H29916725   5.712   0.845   3.819  0.2329 -0.8747 -0.0996
   44MOL   H30016726   5.840   1.097   3.919 -0.1640  0.0837  1.2892
   44MOL   H30116727   5.744   0.998   4.032 -0.2369 -0.4478 -0.1922
   44MOL   H30216728   5.553   1.000   3.867 -0.3353  0.0871 -0.1910
   44MOL   H30316729   5.630   1.108   3.769  0.7010 -0.6680  0.3116
   44MOL   H30416730   5.969   0.983   3.742  0.7835 -0.5195  0.3972
   44MOL   H30516731   5.822   0.991   3.643 -1.5095 -0.3005  0.2471
   44MOL   C30616732   5.578   1.198   3.950 -0.3871 -0.4533  0.3874
   44MOL   C30716733   5.435   1.250   3.908  0.6107 -0.0098  0.0855
   44MOL   C30816734   5.383   1.338   4.021 -0.8413 -0.0515 -0.3842
   44MOL   C30916735   5.476   1.308   4.145  0.0190 -0.2807 -0.3150
   44MOL   C31016736   5.401   1.275   4.276  0.0230 -0.0422 -0.3978
   44MOL   C31116737   5.345   1.398   4.363 -0.0828 -0.7240  0.5292
   44MOL   C31216738   5.573   1.190   4.107 -0.6132 -0.1609  0.7243
   44MOL   H31316739   5.649   1.279   3.935 -0.3292 -0.3126  1.3589
   44MOL   H31416740   5.439   1.299   3.811  1.9308 -0.4675 -0.0978
   44MOL   H31516741   5.379   1.156   3.913  0.1318 -0.0177 -3.4677
   44MOL   H31616742   5.399   1.443   3.996  2.4096 -0.3537  0.2010
   44MOL   H31716743   5.275   1.330   4.035 -0.8983 -0.6388 -1.1535
   44MOL   H31816744   5.547   1.387   4.172  1.0541 -1.2215 -0.2691
   44MOL   H31916745   5.323   1.204   4.247  0.0026 -0.3110  0.3010
   44MOL   H32016746   5.455   1.197   4.329  0.0903  1.2070  1.3956
   44MOL   H32116747   5.289   1.467   4.301  1.6237 -0.7029 -1.0416
   44MOL   H32216748   5.434   1.459   4.384 -0.0704 -0.3885 -0.4884
   44MOL   H32316749   5.539   1.092   4.142  2.9056 -2.2898 -1.4321
   44MOL   H32416750   5.670   1.210   4.152 -0.3414  0.1086  0.0195
   44MOL   C32516751   5.273   1.366   4.493  0.7239  0.8246  0.4109
   44MOL   C32616752   5.241   1.487   4.578  0.0924  0.4046 -0.0023
   44MOL   C32716753   5.100   1.534   4.537 -0.2619 -0.5543  0.6266
   44MOL   C32816754   5.032   1.410   4.483  0.2112 -0.7087  0.1842
   44MOL   C32916755   4.917   1.358   4.566 -0.0429  0.1823  0.0737
   44MOL   C33016756   4.837   1.246   4.494  0.1476  0.1776  0.2055
   44MOL   C33116757   5.139   1.299   4.475  0.4432 -0.0222 -0.1183
   44MOL   H33216758   5.340   1.299   4.548 -0.7785  1.4509  3.1154
   44MOL   H33316759   5.309   1.572   4.572  1.2233 -0.5044 -0.1883
   44MOL   H33416760   5.239   1.449   4.680  2.0222 -1.0173 -0.4579
   44MOL   H33516761   5.041   1.578   4.618  0.8809  4.3213 -0.9873
   44MOL   H33616762   5.114   1.609   4.459 -1.4506 -0.0292  0.9030
   44MOL   H33716763   5.001   1.424   4.379 -1.5308 -0.7516  0.6831
   44MOL   H33816764   4.949   1.332   4.667  1.1818  0.3177 -0.2767
   44MOL   H33916765   4.849   1.443   4.575  0.0559  0.3070 -0.3471
   44MOL   H34016766   4.804   1.269   4.392 -1.7500  2.4900  1.2889
   44MOL   H34116767   4.907   1.162   4.495 -1.6373 -1.3576  0.5273
   44MOL   H34216768   5.132   1.237   4.386 -0.4063 -1.7482  1.1157
   44MOL   H34316769   5.116   1.227   4.553 -2.5418 -1.3653 -2.1199
   44MOL   C34416770   4.720   1.197   4.580  0.2858  0.5886 -0.0930
   44MOL   C34516771   4.660   1.062   4.530 -0.3359 -0.3317 -0.1190
   44MOL   C34616772   4.508   1.062   4.560 -0.2299 -0.6049  0.1005
   44MOL   C34716773   4.468   1.210   4.540  0.4003  0.9508 -0.2781
   44MOL   C34816774   4.342   1.233   4.627 -0.1107  0.3971 -0.2711
   44MOL   C34916775   4.282   1.374   4.620 -1.1018  0.0913 -0.2706
   44MOL   C35016776   4.591   1.286   4.583  0.1766 -0.2570  0.0325
   44MOL   H35116777   4.751   1.180   4.683 -0.3842 -1.4982 -0.2303
   44MOL   H35216778   4.717   0.982   4.576 -1.8322 -0.6922  1.1113
   44MOL   H35316779   4.680   1.062   4.423  1.4945 -1.0678  0.2109
   44MOL   H35416780   4.469   0.999   4.480  1.8049 -2.3032  0.4059
   44MOL   H35516781   4.485   1.016   4.656 -1.5422 -0.0755  0.0526
   44MOL   H35616782   4.458   1.224   4.433 -0.3801 -1.7404 -0.5805
   44MOL   H35716783   4.259   1.174   4.588 -1.8193  2.4264  0.1863
   44MOL   H35816784   4.358   1.213   4.733  0.7232 -0.3785 -0.5416
   44MOL   H35916785   4.345   1.435   4.685 -1.8046 -0.6939  1.1605
   44MOL   H36016786   4.184   1.366   4.667 -0.7734  3.8325  1.2412
   44MOL   H36116787   4.601   1.372   4.517  0.6578 -1.3369 -1.3361
   44MOL   H36216788   4.568   1.331   4.680  0.6476 -0.5405  0.2827
   44MOL   C36316789   4.256   1.434   4.480 -0.0387 -0.4674  0.4980
   44MOL   C36416790   4.203   1.580   4.501  0.4775  0.2635 -0.5068
   44MOL   C36516791   4.132   1.595   4.375 -0.5687 -0.7761  0.3352
   44MOL   C36616792   4.061   1.467   4.327  0.4998  0.3950 -0.4035
   44MOL   C36716793   3.905   1.462   4.359  0.2815 -0.6385 -0.2257
   44MOL   C36816794   3.876   1.488   4.511  0.5458  0.5521 -0.0402
   44MOL   C36916795   4.148   1.364   4.392  0.1374  0.5689 -0.0833
   44MOL   H37016796   4.348   1.444   4.423 -0.7286  0.7916 -0.4157
   44MOL   H37116797   4.132   1.582   4.584  1.3695 -2.7149  0.3953
   44MOL   H37216798   4.281   1.650   4.529  0.1199  0.1634  0.7731
   44MOL   H37316799   4.057   1.675   4.379 -0.7029 -0.5891 -4.0182
   44MOL   H37416800   4.203   1.628   4.300 -0.9798  2.1976  1.1763
   44MOL   H37516801   4.074   1.476   4.220 -0.5240 -1.4454 -0.6875
   44MOL   H37616802   3.846   1.527   4.295 -1.0107 -0.9751  0.5964
   44MOL   H37716803   3.866   1.366   4.322  2.7063 -1.2945 -1.1674
   44MOL   H37816804   3.866   1.595   4.530 -1.4306  0.6047 -1.2115
   44MOL   H37916805   3.948   1.448   4.583 -0.2866  0.7012  0.8864
   44MOL   H38016806   4.090   1.293   4.450  1.6863 -0.4637  0.2401
   44MOL   H38116807   4.197   1.289   4.330  1.6272  1.4802 -0.0409
   44MOL   H38216808   3.783   1.436   4.534  0.1757  2.8067  4.0696
   45MOL     C116809   5.150   2.627   0.874  0.1172 -0.3188 -0.2194
   45MOL     C216810   5.066   2.737   0.815  0.1982 -0.6988 -0.0283
   45MOL     C316811   5.043   2.837   0.932  0.1739 -0.3095 -0.1981
   45MOL     C416812   5.101   2.771   1.059 -0.1243  0.1052 -0.5502
   45MOL     C516813   5.029   2.815   1.189  0.3369  0.4803 -0.8996
   45MOL     C616814   5.083   2.750   1.314 -0.1527 -0.1244 -0.0886
   45MOL     C716815   5.107   2.625   1.024 -0.5164  0.0807 -0.3598
   45MOL     H816816   5.148   2.534   0.818 -0.4862 -0.3598 -0.1339
   45MOL     H916817   4.971   2.689   0.789 -1.4222  2.0423  0.7040
   45MOL    H1016818   5.119   2.788   0.735  0.7055  1.5575  1.7135
   45MOL    H1116819   5.084   2.936   0.916 -0.7445  0.1921  0.5296
   45MOL    H1216820   4.935   2.849   0.942  0.4399  1.2303  0.8895
   45MOL    H1316821   5.205   2.801   1.069  0.3871 -1.7170 -0.2562
   45MOL    H1416822   5.033   2.923   1.200 -0.4235  0.3431  0.8862
   45MOL    H1516823   4.925   2.784   1.177  0.0967  0.8706  0.1225
   45MOL    H1616824   5.074   2.641   1.320 -1.8626  0.0060  0.1342
   45MOL    H1716825   5.189   2.763   1.333  0.4869 -2.3263 -1.8501
   45MOL    H1816826   5.178   2.565   1.080 -0.8992 -0.2691 -0.2434
   45MOL    H1916827   5.013   2.577   1.051  0.0578 -0.9314 -0.1197
   45MOL    H2016828   5.253   2.662   0.872  0.4952 -1.2655  1.4025
   45MOL    C2116829   5.008   2.811   1.433  0.5201 -0.3970 -0.3491
   45MOL    C2216830   4.856   2.782   1.440 -0.0987  0.7223  0.0297
   45MOL    C2316831   4.827   2.760   1.588 -0.4286  0.0978  0.1887
   45MOL    C2416832   4.952   2.801   1.658 -0.0783 -0.5777 -1.1141
   45MOL    C2516833   4.960   2.746   1.797  0.5156  0.2429  0.3981
   45MOL    C2616834   5.088   2.783   1.870 -0.1827  0.3209  0.0003
   45MOL    C2716835   5.060   2.753   1.565 -0.0976  0.0840  0.3787
   45MOL    H2816836   5.032   2.917   1.437 -4.9273  0.9462  2.3541
   45MOL    H2916837   4.786   2.855   1.401 -0.3556  0.6255  0.3037
   45MOL    H3016838   4.833   2.689   1.388  0.1618 -0.3293  1.7328
   45MOL    H3116839   4.744   2.824   1.618 -0.0158  1.1762 -0.9232
   45MOL    H3216840   4.798   2.656   1.600  0.5126 -0.0413  1.3222
   45MOL    H3316841   4.944   2.910   1.662  2.1329 -0.3935 -0.8639
   45MOL    H3416842   4.960   2.637   1.800 -1.9360  0.1438 -1.5013
   45MOL    H3516843   4.866   2.776   1.846  0.3099 -0.5987  0.5280
   45MOL    H3616844   5.093   2.891   1.856  4.4305  0.4238  1.5694
   45MOL    H3716845   5.173   2.739   1.818  0.8743 -0.7498  2.5096
   45MOL    H3816846   5.155   2.797   1.597 -0.7489  0.1915  2.2274
   45MOL    H3916847   5.068   2.645   1.574  0.5396  0.2763  2.4838
   45MOL    C4016848   5.093   2.761   2.024 -0.4781 -0.2397  0.9123
   45MOL    C4116849   5.065   2.611   2.065  0.4214  0.3905 -0.0605
   45MOL    C4216850   5.154   2.605   2.196  0.2471 -0.3308  0.6746
   45MOL    C4316851   5.277   2.681   2.159 -0.5875 -0.3330 -0.0293
   45MOL    C4416852   5.356   2.725   2.284 -0.5514  0.0975 -0.7198
   45MOL    C4516853   5.479   2.812   2.256 -0.3362 -0.4930 -0.1502
   45MOL    C4616854   5.232   2.794   2.068  0.8439  0.4336 -0.4497
   45MOL    H4716855   5.022   2.828   2.073  2.5074  2.1956  2.0516
   45MOL    H4816856   5.109   2.546   1.989 -1.8623 -0.3709 -0.7842
   45MOL    H4916857   4.960   2.584   2.077  0.4216  0.5199  0.2352
   45MOL    H5016858   5.102   2.660   2.274 -0.2427 -1.0877  0.8952
   45MOL    H5116859   5.169   2.503   2.233  4.2404  0.1083  0.5173
   45MOL    H5216860   5.338   2.611   2.104  2.0622  2.5671 -0.9500
   45MOL    H5316861   5.291   2.766   2.361 -0.0600  2.0067 -1.3035
   45MOL    H5416862   5.408   2.641   2.331 -2.2386 -1.3513 -1.3882
   45MOL    H5516863   5.442   2.885   2.184  1.0406  0.9612  0.5739
   45MOL    H5616864   5.563   2.763   2.207 -2.1485 -1.0700 -2.7648
   45MOL    H5716865   5.220   2.888   2.122 -0.5355  0.8121 -1.3859
   45MOL    H5816866   5.305   2.812   1.990  0.9793 -2.0520 -0.9126
   45MOL    C5916867   5.550   2.871   2.377 -0.1188 -0.9652 -0.5463
   45MOL    C6016868   5.592   2.765   2.481  0.3345 -0.2673 -0.4109
   45MOL    C6116869   5.698   2.848   2.558  0.1367  0.6461 -0.0487
   45MOL    C6216870   5.771   2.936   2.458  0.3272  0.4986 -0.3933
   45MOL    C6316871   5.803   3.076   2.515 -0.4132 -0.4284  0.5678
   45MOL    C6416872   5.910   3.076   2.630  0.1175 -0.5627  0.2523
   45MOL    C6516873   5.677   2.937   2.336 -0.1947  0.5704  0.5376
   45MOL    H6616874   5.480   2.940   2.424 -1.0220 -3.0173  1.2013
   45MOL    H6716875   5.504   2.741   2.542  2.1954  1.0451  2.8971
   45MOL    H6816876   5.642   2.675   2.444 -0.9604 -1.0819 -0.2199
   45MOL    H6916877   5.637   2.912   2.622  1.8442  2.8359 -0.5318
   45MOL    H7016878   5.753   2.773   2.616 -0.0708 -1.0782 -2.0213
   45MOL    H7116879   5.863   2.884   2.432 -0.4819 -1.4595  0.5176
   45MOL    H7216880   5.716   3.119   2.564  2.0179  1.3569  3.4836
   45MOL    H7316881   5.836   3.142   2.434 -3.0846  0.0959 -0.1397
   45MOL    H7416882   5.864   3.051   2.726 -0.4337  1.0199  0.4074
   45MOL    H7516883   5.985   3.001   2.606 -0.1918 -0.9482  0.4821
   45MOL    H7616884   5.662   3.038   2.296 -2.5358 -0.8989 -2.4667
   45MOL    H7716885   5.732   2.882   2.260  0.9224  0.6894  1.2352
   45MOL    C7816886   5.984   3.208   2.657  0.3937  0.4703 -0.0406
   45MOL    C7916887   6.082   3.200   2.774  0.2645  0.0379 -0.1436
   45MOL    C8016888   6.206   3.278   2.725  0.0526 -1.1452  0.6518
   45MOL    C8116889   6.163   3.362   2.607  0.2039  0.0278 -0.4008
   45MOL    C8216890   6.282   3.394   2.515  0.8573 -0.6620 -0.4249
   45MOL    C8316891   6.259   3.505   2.414  0.2541 -0.2702 -0.2765
   45MOL    C8416892   6.054   3.281   2.536  0.3967 -0.3594 -0.7974
   45MOL    H8516893   5.914   3.284   2.692  0.5640  0.7123 -0.2208
   45MOL    H8616894   6.038   3.256   2.857  0.4488 -1.4033  0.9458
   45MOL    H8716895   6.120   3.103   2.804 -0.3888 -0.0032  0.5673
   45MOL    H8816896   6.241   3.330   2.814  0.3018 -0.2276  0.0266
   45MOL    H8916897   6.286   3.209   2.699  0.4633  0.3783 -2.4308
   45MOL    H9016898   6.126   3.456   2.648 -0.4277  0.0760 -1.0792
   45MOL    H9116899   6.306   3.301   2.463  1.7009 -0.9201  0.4122
   45MOL    H9216900   6.368   3.413   2.580  0.7415  0.7069 -0.6547
   45MOL    H9316901   6.249   3.597   2.471 -1.4418  1.2962 -2.9849
   45MOL    H9416902   6.168   3.504   2.354 -0.6755 -0.1774  1.1384
   45MOL    H9516903   6.095   3.205   2.469 -1.7978 -2.7218  0.4749
   45MOL    H9616904   5.981   3.334   2.474  2.3921  0.7817 -2.2373
   45MOL    C9716905   6.374   3.536   2.325 -0.1775  0.2579  0.0491
   45MOL    C9816906   6.366   3.667   2.250  0.1435 -0.6299 -0.0185
   45MOL    C9916907   6.496   3.670   2.170 -0.2700 -0.0928  0.7283
   45MOL   C10016908   6.532   3.518   2.142  0.5490 -0.3294 -0.1885
   45MOL   C10116909   6.528   3.480   1.992 -0.4967  0.3414  0.1154
   45MOL   C10216910   6.627   3.360   1.968 -0.4055  0.2657  0.3023
   45MOL   C10316911   6.428   3.439   2.222 -0.2260  0.5264  0.0623
   45MOL   H10416912   6.454   3.558   2.396  0.3783 -0.2154 -0.4290
   45MOL   H10516913   6.282   3.678   2.181 -0.7029  2.2357  1.3588
   45MOL   H10616914   6.347   3.743   2.327 -0.1614 -1.2156  0.4892
   45MOL   H10716915   6.467   3.716   2.075 -0.0471  0.7998  1.0880
   45MOL   H10816916   6.574   3.735   2.209  1.2420 -2.2620  1.4146
   45MOL   H10916917   6.631   3.506   2.187  1.3072  1.5135 -1.3000
   45MOL   H11016918   6.431   3.446   1.958  0.5716 -0.9048 -1.7595
   45MOL   H11116919   6.552   3.569   1.934 -1.0929  0.4627  0.0516
   45MOL   H11216920   6.726   3.400   1.987 -0.7419  0.9677  0.6062
   45MOL   H11316921   6.611   3.277   2.038  1.2019  1.4191  2.0732
   45MOL   H11416922   6.341   3.403   2.168  0.5367  1.2303 -1.6776
   45MOL   H11516923   6.475   3.354   2.271  0.2586  0.7986  0.0849
   45MOL   C11616924   6.608   3.281   1.837  0.7575  0.4643 -0.4317
   45MOL   C11716925   6.725   3.180   1.815  0.2374  0.3006 -0.6058
   45MOL   C11816926   6.653   3.043   1.818 -0.9293 -0.4351 -0.0610
   45MOL   C11916927   6.507   3.066   1.773  0.2364 -0.6389  0.5384
   45MOL   C12016928   6.412   2.945   1.800 -0.1313 -0.0963 -0.3428
   45MOL   C12116929   6.387   2.908   1.945 -0.1685 -0.9447 -0.0333
   45MOL   C12216930   6.476   3.204   1.836  0.7383  0.2318  0.3276
   45MOL   H12316931   6.612   3.351   1.755  1.3941  0.5806 -0.3075
   45MOL   H12416932   6.810   3.189   1.883  0.4525 -0.2234 -0.8038
   45MOL   H12516933   6.775   3.196   1.719 -1.9083 -2.2058 -2.2257
   45MOL   H12616934   6.669   3.020   1.924  1.1887  0.0127 -0.2661
   45MOL   H12716935   6.698   2.958   1.767 -1.8664  0.0561 -1.7188
   45MOL   H12816936   6.502   3.075   1.664 -2.3450 -1.0710  0.6055
   45MOL   H12916937   6.440   2.851   1.753 -1.4388  0.2370 -1.8179
   45MOL   H13016938   6.318   2.977   1.754 -0.3306 -0.2698 -0.0582
   45MOL   H13116939   6.416   2.989   2.012  0.0190  1.0538 -2.4443
   45MOL   H13216940   6.454   2.823   1.958  3.1733  1.7157  1.0752
   45MOL   H13316941   6.394   3.232   1.770  1.5590  0.1581 -0.7366
   45MOL   H13416942   6.441   3.193   1.939  0.7662 -3.1030  0.0292
   45MOL   C13516943   6.244   2.864   1.976  0.9026 -0.8984  0.3121
   45MOL   C13616944   6.241   2.797   2.112  0.6740 -0.5239 -0.1159
   45MOL   C13716945   6.115   2.843   2.187  0.0470  0.1614 -0.5123
   45MOL   C13816946   6.103   2.985   2.136  0.6047 -0.4049  0.0258
   45MOL   C13916947   5.955   3.042   2.152  0.0738 -0.1165  0.0009
   45MOL   C14016948   5.931   3.185   2.104 -0.1501  0.0278 -0.4697
   45MOL   C14116949   6.151   2.984   1.991  1.0060 -0.2029 -0.1368
   45MOL   H14216950   6.202   2.797   1.901 -0.4125  0.6218 -0.3716
   45MOL   H14316951   6.246   2.689   2.105 -0.5066 -0.5192 -1.1736
   45MOL   H14416952   6.331   2.824   2.167  1.9494  1.7400 -3.1573
   45MOL   H14516953   6.031   2.784   2.152  1.3373 -1.6946 -0.5363
   45MOL   H14616954   6.105   2.846   2.295  1.4341 -0.8798 -0.3382
   45MOL   H14716955   6.166   3.047   2.199 -1.0128  0.9807  0.3332
   45MOL   H14816956   5.912   3.044   2.253 -1.2821  0.6246 -0.5850
   45MOL   H14916957   5.889   2.974   2.098 -1.1886 -0.4408  1.8985
   45MOL   H15016958   5.996   3.255   2.156  1.1884  0.3526 -2.5458
   45MOL   H15116959   5.948   3.192   1.997 -1.8660 -1.2448 -0.8533
   45MOL   H15216960   6.193   3.079   1.961 -1.1633  1.7444  2.6620
   45MOL   H15316961   6.062   2.977   1.929  0.6088 -1.6873  0.5497
   45MOL   C15416962   5.788   3.232   2.125  0.2990  0.0619 -0.3035
   45MOL   C15516963   5.683   3.173   2.032  0.1711  0.0430 -0.5674
   45MOL   C15616964   5.575   3.280   2.021  0.3819  0.3263  0.4738
   45MOL   C15716965   5.639   3.414   2.069  0.7750 -0.3417  0.0553
   45MOL   C15816966   5.618   3.526   1.964  0.0962  0.3286  0.4833
   45MOL   C15916967   5.676   3.511   1.820 -0.3348  0.6731 -0.2613
   45MOL   C16016968   5.785   3.378   2.093 -0.1441 -0.7494  0.2818
   45MOL   H16116969   5.753   3.218   2.228  0.7499 -0.4375 -0.2158
   45MOL   H16216970   5.725   3.157   1.933  2.6480  0.2834  0.4112
   45MOL   H16316971   5.646   3.077   2.067  1.8751 -1.3548 -2.5156
   45MOL   H16416972   5.523   3.287   1.926  0.6420  0.0839  0.3133
   45MOL   H16516973   5.491   3.257   2.087  1.5698 -0.7066  1.6467
   45MOL   H16616974   5.594   3.434   2.166  0.8431  0.1927 -0.0220
   45MOL   H16716975   5.653   3.620   2.006 -0.7892  0.7249  0.3344
   45MOL   H16816976   5.512   3.537   1.946  0.6673  0.9332 -2.7279
   45MOL   H16916977   5.769   3.456   1.815 -0.2634  0.8033 -0.3459
   45MOL   H17016978   5.607   3.461   1.752 -0.5708 -0.6831  0.9409
   45MOL   H17116979   5.825   3.439   2.174 -2.6174  1.7312 -0.2710
   45MOL   H17216980   5.849   3.405   2.009  2.3570 -1.7022  1.8278
   45MOL   C17316981   5.702   3.653   1.758 -0.1291  0.1597  0.4383
   45MOL   C17416982   5.722   3.642   1.611 -0.1919  0.5622 -0.1079
   45MOL   C17516983   5.723   3.796   1.575  0.2100 -0.6434  0.4477
   45MOL   C17616984   5.632   3.871   1.677 -0.6191 -0.1698  0.6017
   45MOL   C17716985   5.516   3.944   1.611  0.5650 -0.1778  0.1573
   45MOL   C17816986   5.545   4.089   1.584 -0.2795  0.4422  0.7028
   45MOL   C17916987   5.589   3.759   1.771 -0.4218  1.1000 -0.7149
   45MOL   H18016988   5.791   3.698   1.803 -1.3598  0.1402  2.9726
   45MOL   H18116989   5.642   3.589   1.559  0.4127  1.1963 -1.7231
   45MOL   H18216990   5.811   3.581   1.591  1.1109  2.0459  1.0691
   45MOL   H18316991   5.826   3.830   1.567  0.8610 -2.4001  1.0732
   45MOL   H18416992   5.689   3.799   1.471 -0.7379 -1.0251  0.7460
   45MOL   H18516993   5.690   3.934   1.744  0.8088 -0.8005 -0.0217
   45MOL   H18616994   5.433   3.928   1.680 -0.6888 -0.9691 -1.5044
   45MOL   H18716995   5.476   3.895   1.522 -0.1002 -2.2796  1.5812
   45MOL   H18816996   5.625   4.105   1.512 -0.4193 -0.2650  0.3821
   45MOL   H18916997   5.578   4.142   1.673  1.2451  2.3661 -0.9756
   45MOL   H19016998   5.504   3.699   1.740 -0.7531  0.4643  1.3334
   45MOL   H19116999   5.568   3.792   1.873  0.5791  1.1549 -0.5145
   45MOL   C19217000   5.414   4.158   1.534 -0.6162  1.1543  0.2413
   45MOL   C19317001   5.335   4.094   1.419  0.4133 -0.2886 -0.3767
   45MOL   C19417002   5.253   4.213   1.361 -0.3469  0.2974  0.6577
   45MOL   C19517003   5.352   4.329   1.358  0.6521 -0.4246 -1.0567
   45MOL   C19617004   5.290   4.472   1.358  0.8257  0.5691  0.3025
   45MOL   C19717005   5.207   4.496   1.235  0.0717 -0.2423  0.0758
   45MOL   C19817006   5.436   4.304   1.489 -0.1647 -0.4010  0.5906
   45MOL   H19917007   5.346   4.159   1.619  0.3528  1.1221  1.0248
   45MOL   H20017008   5.404   4.040   1.354  0.4861 -0.2537 -0.3282
   45MOL   H20117009   5.265   4.027   1.469 -0.7335  2.0909  1.2844
   45MOL   H20217010   5.171   4.233   1.430  2.5512  0.2768  4.2654
   45MOL   H20317011   5.207   4.198   1.264  0.5896  1.2847  0.0481
   45MOL   H20417012   5.412   4.314   1.269  0.7672  1.3381 -1.3046
   45MOL   H20517013   5.370   4.546   1.363  1.2710  0.2454 -1.4862
   45MOL   H20617014   5.232   4.483   1.449  1.8704  1.3652  0.8869
   45MOL   H20717015   5.141   4.414   1.206  1.5909 -0.4909 -2.8642
   45MOL   H20817016   5.279   4.514   1.155 -1.7970  0.9323 -1.3941
   45MOL   H20917017   5.382   4.361   1.565 -0.8959 -0.2448 -0.0509
   45MOL   H21017018   5.538   4.328   1.459 -0.1832  1.8100  2.1811
   45MOL   C21117019   5.134   4.629   1.234  0.2795  0.2834 -0.5376
   45MOL   C21217020   5.016   4.626   1.329 -0.2052 -0.4318 -0.9867
   45MOL   C21317021   4.901   4.571   1.243  0.6012  0.3516  0.5655
   45MOL   C21417022   4.913   4.645   1.114  0.9440  0.7162  1.2080
   45MOL   C21517023   4.837   4.581   0.995 -0.3700  0.5661 -0.0933
   45MOL   C21617024   4.683   4.552   1.023  0.0183 -0.3903 -0.2581
   45MOL   C21717025   5.068   4.652   1.099 -0.1781 -0.7544  0.3107
   45MOL   H21817026   5.206   4.705   1.264 -0.0512  0.1940  0.4921
   45MOL   H21917027   5.037   4.572   1.421 -2.2186 -2.2289 -1.5425
   45MOL   H22017028   4.983   4.724   1.363  2.4175  0.2586 -0.3592
   45MOL   H22117029   4.890   4.462   1.237 -0.8716  0.6163 -2.5829
   45MOL   H22217030   4.807   4.604   1.289 -1.1245 -1.8070 -1.2818
   45MOL   H22317031   4.876   4.747   1.127 -2.0312  0.3231 -3.0678
   45MOL   H22417032   4.887   4.497   0.948  0.5309  1.5472 -0.9030
   45MOL   H22517033   4.835   4.650   0.911  0.6937  1.5997  0.7220
   45MOL   H22617034   4.672   4.499   1.117  1.4923  0.8433  0.6580
   45MOL   H22717035   4.624   4.643   1.036  1.7696  1.1817 -2.6108
   45MOL   H22817036   5.091   4.754   1.067 -1.4244  0.1225  2.0857
   45MOL   H22917037   5.092   4.579   1.022  1.8829 -1.3419  1.4720
   45MOL   C23017038   4.625   4.472   0.910  0.4560  0.5968  0.4348
   45MOL   C23117039   4.474   4.452   0.910  1.2450 -0.2284  0.4079
   45MOL   C23217040   4.464   4.341   0.812  0.2648  0.8679 -1.1708
   45MOL   C23317041   4.580   4.246   0.823 -0.4422 -0.0471 -0.5290
   45MOL   C23417042   4.627   4.182   0.695 -0.3719  0.0848  0.6511
   45MOL   C23517043   4.526   4.092   0.617 -0.1875 -0.6572  0.4641
   45MOL   C23617044   4.680   4.330   0.910  0.3598 -0.3706  0.2539
   45MOL   H23717045   4.651   4.518   0.815  2.6097 -1.2605  0.0707
   45MOL   H23817046   4.451   4.404   1.006  0.8802  1.0647  0.9728
   45MOL   H23917047   4.404   4.533   0.893  1.5099  0.4789  2.4749
   45MOL   H24017048   4.461   4.401   0.721 -0.1664  0.8155 -1.1944
   45MOL   H24117049   4.365   4.295   0.818  1.0040 -0.8012 -1.5461
   45MOL   H24217050   4.543   4.168   0.889  1.0690  0.2582  0.7134
   45MOL   H24317051   4.717   4.123   0.713  0.2801  1.3727  1.7250
   45MOL   H24417052   4.668   4.260   0.631 -1.3747  0.0307 -0.0614
   45MOL   H24517053   4.500   4.004   0.674 -0.6220  0.8034  2.5762
   45MOL   H24617054   4.431   4.145   0.624  0.3736  0.3503  0.6057
   45MOL   H24717055   4.784   4.324   0.877  1.4420  1.2733  3.1702
   45MOL   H24817056   4.680   4.295   1.013  0.8888 -1.6209 -0.1470
   45MOL   C24917057   4.578   4.056   0.473 -0.2873 -0.0707  0.3173
   45MOL   C25017058   4.474   3.969   0.411 -0.0273 -0.8670  0.3035
   45MOL   C25117059   4.512   3.979   0.264 -0.4013  0.6649 -0.3334
   45MOL   C25217060   4.518   4.130   0.241 -0.0560  0.2640  0.1656
   45MOL   C25317061   4.585   4.178   0.112 -0.5281  0.8184 -0.4371
   45MOL   C25417062   4.516   4.309   0.070  0.4598 -0.2287  0.2774
   45MOL   C25517063   4.584   4.175   0.377 -0.4540 -0.4210 -0.0869
   45MOL   H25617064   4.676   4.008   0.476  0.6795  1.8376  0.2548
   45MOL   H25717065   4.485   3.870   0.455 -1.0267 -0.7003  0.9651
   45MOL   H25817066   4.368   3.994   0.421 -0.9163 -3.4306 -2.0276
   45MOL   H25917067   4.444   3.930   0.195  0.0780 -2.1829  1.1314
   45MOL   H26017068   4.614   3.943   0.249  0.0132  0.5014  2.5072
   45MOL   H26117069   4.417   4.168   0.248  0.1520  1.2983 -2.1003
   45MOL   H26217070   4.585   4.106   0.031  0.8104  0.8405 -0.4815
   45MOL   H26317071   4.688   4.212   0.128 -1.1752  2.7823 -0.2714
   45MOL   H26417072   4.534   4.388   0.143 -2.4594 -0.6559  1.5252
   45MOL   H26517073   4.410   4.284   0.064  0.1636  1.2780 -1.1268
   45MOL   H26617074   4.529   4.261   0.416  2.1798  0.8363  1.0224
   45MOL   H26717075   4.689   4.203   0.367 -1.0590  2.3063  0.6404
   45MOL   C26817076   4.559   4.350   7.570  0.0109 -0.2627  0.1517
   45MOL   C26917077   4.683   4.427   7.558  0.3661 -0.1089  0.2946
   45MOL   C27017078   4.671   4.521   7.438  0.4461  0.6814 -0.2234
   45MOL   C27117079   4.523   4.514   7.392 -0.1847  0.9411 -0.3369
   45MOL   C27217080   4.465   4.655   7.370  0.5039 -0.6327  0.2506
   45MOL   C27317081   4.317   4.667   7.318 -0.1175 -0.5791  0.4696
   45MOL   C27417082   4.454   4.432   7.502  0.0624  0.5368 -0.3085
   45MOL   H27517083   4.577   4.259   7.513  1.3875  0.1543 -0.0865
   45MOL   H27617084   4.700   4.486   0.001  0.7098 -0.1843  0.2822
   45MOL   H27717085   4.770   4.361   7.544 -0.7434 -1.8942  1.6263
   45MOL   H27817086   4.697   4.624   7.464  2.3018  0.0877  0.3289
   45MOL   H27917087   4.738   4.493   7.357 -1.0979 -2.0216 -0.6382
   45MOL   H28017088   4.531   4.452   7.302 -0.3620  1.1927 -0.5247
   45MOL   H28117089   4.522   4.699   7.288  0.5031 -1.9428 -0.4647
   45MOL   H28217090   4.480   4.714   7.461 -0.1082  1.3349 -0.9107
   45MOL   H28317091   4.312   4.622   7.218 -1.6222 -1.0158  0.7278
   45MOL   H28417092   4.243   4.613   7.377 -2.0927 -0.8372 -2.1439
   45MOL   H28517093   4.413   4.497   7.580 -2.2837 -1.3670  0.1159
   45MOL   H28617094   4.366   4.373   7.477 -1.3912  1.9882  1.2206
   45MOL   C28717095   4.263   4.812   7.301  0.0492  0.3180  0.1837
   45MOL   C28817096   4.161   4.833   7.188 -0.1031 -0.6072 -0.7097
   45MOL   C28917097   4.035   4.773   7.253 -0.7832  0.1892 -0.3901
   45MOL   C29017098   4.025   4.838   7.390 -0.3190  0.4806  0.7833
   45MOL   C29117099   3.939   4.767   7.489  0.2540  0.4224 -0.7621
   45MOL   C29217100   3.903   4.856   7.613 -0.8456 -0.0631  0.2428
   45MOL   C29317101   4.182   4.848   7.426  0.2516 -0.6250  0.7394
   45MOL   H29417102   4.353   4.873   7.298 -0.5719  1.2259 -0.4638
   45MOL   H29517103   4.128   4.937   7.181  2.2048  0.0408 -2.5818
   45MOL   H29617104   4.170   4.790   7.088 -1.0848 -3.1578  0.2329
   45MOL   H29717105   4.033   4.664   7.253 -0.6638  0.1891 -1.0212
   45MOL   H29817106   3.951   4.821   7.202  0.5773  0.8161 -2.0914
   45MOL   H29917107   3.984   4.938   7.377 -1.5525 -0.1634 -0.4073
   45MOL   H30017108   3.977   4.667   7.510  1.2472  1.0181  0.3249
   45MOL   H30117109   3.842   4.737   7.449 -1.5352  2.5232  1.8084
   45MOL   H30217110   3.845   4.936   7.568  2.9991  0.9653 -3.1689
   45MOL   H30317111   3.995   4.901   0.005 -0.9177  0.1593  0.1537
   45MOL   H30417112   4.222   4.787   7.507  1.4423  0.0954  0.6992
   45MOL   H30517113   4.199   4.954   7.448 -1.5011 -0.4588  1.4223
   45MOL   C30617114   3.822   4.786   0.073 -0.1888  0.1620 -0.1026
   45MOL   C30717115   3.913   4.687   0.150 -0.8150 -0.2589 -0.3464
   45MOL   C30817116   3.901   4.723   0.300  0.2262 -0.0913  0.9373
   45MOL   C30917117   3.763   4.794   0.305 -0.2806  0.3037  0.4231
   45MOL   C31017118   3.743   4.883   0.433  0.6837 -0.2318  0.4417
   45MOL   C31117119   3.715   4.798   0.557  0.8178  0.7670 -0.0393
   45MOL   C31217120   3.764   4.884   0.176 -0.4171 -0.4636 -0.0545
   45MOL   H31317121   3.742   4.725   0.032  2.7342 -2.6673 -1.7900
   45MOL   H31417122   3.865   4.589   0.142  2.5619 -2.0281 -0.0007
   45MOL   H31517123   4.016   4.673   0.118 -0.1147  1.6150  0.9632
   45MOL   H31617124   3.903   4.625   0.347  1.0166 -0.9289 -0.7962
   45MOL   H31717125   3.984   4.778   0.342  0.2348 -0.8811  1.9607
   45MOL   H31817126   3.678   4.726   0.296 -0.6509  0.5009  2.2375
   45MOL   H31917127   3.825   4.951   0.453 -0.1164  0.5814  1.0084
   45MOL   H32017128   3.661   4.955   0.426  3.0269  2.5977  1.4050
   45MOL   H32117129   3.791   4.730   0.595 -0.7697 -0.4489  1.0416
   45MOL   H32217130   3.637   4.728   0.528  1.6814 -0.2515  0.0865
   45MOL   H32317131   3.827   4.972   0.193 -0.7375 -0.0501 -0.9842
   45MOL   H32417132   3.662   4.906   0.146  0.1561  1.4960 -0.6400
   45MOL   C32517133   3.669   4.883   0.676  0.2750  0.0206 -0.0078
   45MOL   C32617134   3.611   4.801   0.792  0.5980  0.5055 -0.8391
   45MOL   C32717135   3.617   4.912   0.903  0.1383 -0.2738  0.2521
   45MOL   C32817136   3.755   4.965   0.892  0.5974  0.6623 -0.4234
   45MOL   C32917137   3.789   5.094   0.961 -0.1636  0.0484  0.2377
   45MOL   C33017138   3.940   5.141   0.936 -0.9475 -0.1086  0.0705
   45MOL   C33117139   3.788   4.966   0.742 -0.3141 -0.3638 -0.4437
   45MOL   H33217140   3.593   4.956   0.649  0.2915  0.1820  0.3799
   45MOL   H33317141   3.664   4.711   0.820 -0.1146  1.0168  2.3812
   45MOL   H33417142   3.506   4.775   0.774  0.3540  0.9014 -0.0154
   45MOL   H33517143   3.543   4.990   0.883  1.2793  0.4960 -1.1000
   45MOL   H33617144   3.608   4.876   1.005  1.4319  0.8647  0.7790
   45MOL   H33717145   3.818   4.892   0.942  1.1691  2.1743  1.1270
   45MOL   H33817146   3.722   5.176   0.935  1.3630  1.4498  0.7321
   45MOL   H33917147   3.782   5.075   1.068 -0.7504  2.1789  0.6056
   45MOL   H34017148   4.002   5.055   0.958 -0.4150  0.1008 -0.6089
   45MOL   H34117149   3.956   5.171   0.832 -0.8154 -1.1907 -0.2301
   45MOL   H34217150   3.883   4.920   0.714 -1.1043 -0.6593 -2.7503
   45MOL   H34317151   3.793   5.067   0.701 -3.4801  0.3061  0.6902
   45MOL   C34417152   3.971   5.262   1.018  0.1815 -0.2046 -0.2014
   45MOL   C34517153   3.890   5.394   0.997 -0.2815 -0.4365 -0.3945
   45MOL   C34617154   3.982   5.515   0.988  0.5577  0.2358  0.6469
   45MOL   C34717155   4.115   5.451   0.942 -0.4386  0.2291  0.4690
   45MOL   C34817156   4.238   5.540   0.972  0.0569 -0.2367  0.5429
   45MOL   C34917157   4.362   5.467   0.926  0.0594  0.5146 -0.9715
   45MOL   C35017158   4.116   5.314   1.007 -0.1619 -0.0067  0.4084
   45MOL   H35117159   3.965   5.225   1.121 -0.3956 -1.3089 -0.6284
   45MOL   H35217160   3.812   5.411   1.072 -2.2433 -2.3563 -1.9499
   45MOL   H35317161   3.838   5.383   0.902 -1.6904  1.6618  0.1048
   45MOL   H35417162   3.938   5.592   0.924  0.0609  0.5421  1.3591
   45MOL   H35517163   4.001   5.553   1.088  1.2286  1.1000  0.2067
   45MOL   H35617164   4.101   5.439   0.834 -0.5593  0.6585  0.4364
   45MOL   H35717165   4.227   5.625   0.905  0.6693 -0.2574  0.4145
   45MOL   H35817166   4.243   5.580   1.073  0.3147  0.6794  0.1734
   45MOL   H35917167   4.338   5.419   0.831  0.2336 -1.2121 -0.1815
   45MOL   H36017168   4.379   5.379   0.989  0.8193 -0.2967 -2.2995
   45MOL   H36117169   4.180   5.242   0.956 -0.6684  0.7561 -1.3597
   45MOL   H36217170   4.158   5.316   1.107 -1.5478 -1.7498  1.0498
   45MOL   C36317171   4.484   5.550   0.910  0.3889 -1.0090  0.7507
   45MOL   C36417172   4.486   5.639   0.776  0.7540 -0.3351  0.0242
   45MOL   C36517173   4.634   5.669   0.763 -0.0237  0.0567  0.5349
   45MOL   C36617174   4.717   5.581   0.858 -0.6606  0.7758 -0.1148
   45MOL   C36717175   4.840   5.505   0.796  0.9789  0.9218  0.4969
   45MOL   C36817176   4.936   5.605   0.733 -0.9754 -0.1755 -0.2324
   45MOL   C36917177   4.614   5.476   0.910  0.1311 -0.5632 -0.0763
   45MOL   H37017178   4.502   5.623   0.988  0.5371 -1.1241  0.8247
   45MOL   H37117179   4.453   5.585   0.687  1.3588  0.7353 -0.8721
   45MOL   H37217180   4.420   5.726   0.776 -0.2958 -1.0954 -1.7544
   45MOL   H37317181   4.658   5.649   0.658 -0.0094  3.7905 -0.2549
   45MOL   H37417182   4.642   5.777   0.774 -3.2519  0.3953 -0.0697
   45MOL   H37517183   4.759   5.637   0.941 -0.1873 -0.6157  0.6086
   45MOL   H37617184   4.877   5.439   0.874 -1.9916 -0.3267  0.9322
   45MOL   H37717185   4.804   5.439   0.717  1.1378  0.8606  0.4770
   45MOL   H37817186   4.886   5.663   0.656 -0.3380  1.6083  0.6737
   45MOL   H37917187   5.017   5.542   0.696 -2.1915 -1.9958  0.1109
   45MOL   H38017188   4.609   5.386   0.848 -1.6428  0.3421 -1.2787
   45MOL   H38117189   4.647   5.443   1.009  2.2918 -0.6416 -0.8061
   45MOL   H38217190   4.978   5.660   0.818 -1.5744 -0.9014  0.5490
   46MOL     C117191   1.087   3.649   2.275 -0.6917  0.7669 -0.2782
   46MOL     C217192   1.022   3.774   2.326 -0.4936  0.4257  0.1859
   46MOL     C317193   0.884   3.733   2.390  0.0848 -0.3173 -0.4885
   46MOL     C417194   0.877   3.584   2.378  0.4881 -0.1389 -0.1146
   46MOL     C517195   0.736   3.518   2.363 -0.4501 -0.3884 -0.2910
   46MOL     C617196   0.651   3.540   2.486  0.3229 -0.6767  1.1853
   46MOL     C717197   0.969   3.556   2.259  1.2434 -0.6961  0.0970
   46MOL     H817198   1.139   3.661   2.180  1.3369  1.3415  0.8766
   46MOL     H917199   0.999   3.823   2.231  0.0676  0.2047 -0.0612
   46MOL    H1017200   1.084   3.833   2.393 -0.7659  2.8802 -1.6550
   46MOL    H1117201   0.876   3.754   2.497  2.7196 -1.6084  0.0213
   46MOL    H1217202   0.806   3.791   2.340  1.1357  3.4293  1.9915
   46MOL    H1317203   0.922   3.543   2.468  2.0661  0.4071 -0.6372
   46MOL    H1417204   0.697   3.559   2.270 -0.2898  2.1252  0.7156
   46MOL    H1517205   0.756   3.411   2.354  1.0826 -0.3131  1.8399
   46MOL    H1617206   0.681   3.475   2.569 -1.9479 -1.6401  1.2955
   46MOL    H1717207   0.672   3.640   2.522 -0.2145 -0.3480  0.5780
   46MOL    H1817208   1.002   3.452   2.246  2.7896 -0.0662 -1.2023
   46MOL    H1917209   0.915   3.579   2.167 -0.3562 -0.1739  1.1581
   46MOL    H2017210   1.159   3.628   2.354 -0.9672  2.1500  0.3669
   46MOL    C2117211   0.500   3.532   2.455 -0.5396  0.0733  0.2651
   46MOL    C2217212   0.422   3.465   2.566 -0.7375  0.1636 -0.1855
   46MOL    C2317213   0.277   3.502   2.545 -0.2767  0.1018 -0.4932
   46MOL    C2417214   0.277   3.629   2.452 -0.3196  0.4366 -0.1022
   46MOL    C2517215   0.202   3.752   2.504 -0.5081  0.1920 -0.0945
   46MOL    C2617216   0.172   3.838   2.383 -0.6439 -0.7936  0.1704
   46MOL    C2717217   0.425   3.663   2.434 -0.3169  0.0918 -0.0553
   46MOL    H2817218   0.477   3.467   2.370  0.2647 -0.4105  0.4061
   46MOL    H2917219   0.445   3.358   2.562 -0.1998  0.3052 -1.0450
   46MOL    H3017220   0.453   3.491   2.667  2.3682 -0.6500 -0.8615
   46MOL    H3117221   0.215   3.428   2.494 -0.2448 -0.1901 -0.1023
   46MOL    H3217222   0.238   3.513   2.646 -2.2557 -2.3340 -0.9473
   46MOL    H3317223   0.242   3.591   2.356  0.1107 -2.8978  0.9670
   46MOL    H3417224   0.260   3.816   2.570  1.5432  1.2956 -2.8738
   46MOL    H3517225   0.110   3.724   2.555 -1.3337  0.8321 -1.2194
   46MOL    H3617226   0.133   3.781   2.299 -2.6810  0.6789  0.0843
   46MOL    H3717227   0.272   3.870   2.352 -0.2641 -0.8822  1.2916
   46MOL    H3817228   0.449   3.722   2.346 -1.5749  0.0189 -0.4433
   46MOL    H3917229   0.450   3.733   2.514  0.7302  0.8867 -1.0564
   46MOL    C4017230   0.081   3.960   2.408  0.5278  0.1665  0.2474
   46MOL    C4117231   0.132   4.051   2.523 -0.4266 -0.1536  0.2729
   46MOL    C4217232   0.078   4.191   2.484 -0.0728  0.1661 -0.2059
   46MOL    C4317233   0.046   4.190   2.335 -0.3140 -0.1601  0.5957
   46MOL    C4417234   7.553   4.246   2.311  0.4914 -0.0041 -0.1090
   46MOL    C4517235   7.548   4.398   2.326  0.0679  0.2454 -0.1417
   46MOL    C4617236   0.070   4.046   2.287 -0.0381  0.5080 -0.1637
   46MOL    H4717237   7.625   3.933   2.429 -0.0464  0.8058 -1.6297
   46MOL    H4817238   0.240   4.042   2.512 -0.7733 -1.5910 -2.2833
   46MOL    H4917239   0.115   4.023   2.627  0.2292  0.0858  0.4484
   46MOL    H5017240   0.003   4.233   2.550  0.2040 -0.4331  0.4973
   46MOL    H5117241   0.160   4.259   2.508 -0.0316 -0.3755  1.2534
   46MOL    H5217242   0.117   4.250   2.279 -0.6820 -0.9172 -0.6993
   46MOL    H5317243   7.516   4.229   2.210 -0.2403 -1.6370  0.4194
   46MOL    H5417244   7.496   4.181   2.377 -1.2360 -2.1351 -3.5572
   46MOL    H5517245   7.620   4.444   2.259 -0.1126  0.4284 -0.2099
   46MOL    H5617246   7.591   4.425   2.422 -0.5184 -0.5009  0.3410
   46MOL    H5717247   7.635   4.021   2.220 -0.2550  0.9606 -0.0710
   46MOL    H5817248   0.167   4.049   2.238  0.0117 -1.8924 -0.2538
   46MOL    C5917249   7.404   4.453   2.327  0.5326 -0.2809 -0.2576
   46MOL    C6017250   7.334   4.423   2.460  0.1123 -0.1890 -0.5849
   46MOL    C6117251   7.240   4.544   2.485  0.0068  0.5646  0.4428
   46MOL    C6217252   7.318   4.661   2.440  0.3769  0.5284 -0.0480
   46MOL    C6317253   7.229   4.789   2.429 -0.4682  0.0257  0.8993
   46MOL    C6417254   7.296   4.927   2.415 -0.4905  0.4175  1.0534
   46MOL    C6517255   7.396   4.608   2.318 -0.1507 -0.3972 -0.1186
   46MOL    H6617256   7.359   4.400   2.243 -3.1714  0.0292  1.4549
   46MOL    H6717257   7.297   4.321   2.460 -0.0428 -0.1324 -0.4122
   46MOL    H6817258   7.411   4.423   2.536 -0.9558 -0.1220  0.5195
   46MOL    H6917259   7.150   4.543   2.422 -0.2730 -0.6520  0.8551
   46MOL    H7017260   7.212   4.536   2.590 -1.8894  0.5118 -0.0447
   46MOL    H7117261   7.382   4.678   2.526  0.9223 -1.5995 -0.0084
   46MOL    H7217262   7.167   4.804   2.517 -0.0090  0.7883  1.0960
   46MOL    H7317263   7.162   4.775   2.344  0.2058  0.2767  0.3153
   46MOL    H7417264   7.354   4.951   2.504  0.0255  2.7095  0.1286
   46MOL    H7517265   7.370   4.922   2.336 -0.6579  1.2626  0.8470
   46MOL    H7617266   7.329   4.629   2.235 -1.5169  0.2568  1.1283
   46MOL    H7717267   7.492   4.656   2.304 -0.5488  0.2384 -0.6569
   46MOL    C7817268   7.202   5.039   2.389 -0.5265 -1.0523 -0.7898
   46MOL    C7917269   7.082   5.059   2.488 -0.2007 -1.0213  0.1003
   46MOL    C8017270   7.061   5.205   2.501 -0.5671  0.2910 -0.2989
   46MOL    C8117271   7.168   5.276   2.406  0.3399  0.0195 -0.4906
   46MOL    C8217272   7.225   5.408   2.455  0.5357  0.0798 -0.4291
   46MOL    C8317273   7.246   5.514   2.350 -0.3551  0.5234  1.1788
   46MOL    C8417274   7.277   5.174   2.404  0.3750  0.5438  0.3522
   46MOL    H8517275   7.159   5.034   2.289  0.2945  0.0748 -1.2139
   46MOL    H8617276   6.998   5.002   2.449  0.1644 -1.5872  0.1366
   46MOL    H8717277   7.096   5.014   2.586  0.1903  0.0129  0.5352
   46MOL    H8817278   6.956   5.230   2.485 -0.9752 -0.6697  0.8769
   46MOL    H8917279   7.085   5.231   2.604 -2.2302  0.2654  0.1169
   46MOL    H9017280   7.134   5.289   2.303  1.8341 -0.7084 -1.0902
   46MOL    H9117281   7.311   5.387   2.520 -1.8992  0.1439  2.9843
   46MOL    H9217282   7.151   5.453   2.520  2.8051  1.9685  0.9313
   46MOL    H9317283   7.151   5.536   2.301  0.3548 -1.0864 -1.0473
   46MOL    H9417284   7.308   5.473   2.270  0.5076  1.5376  1.3162
   46MOL    H9517285   7.345   5.174   2.490  0.9758 -2.9348 -0.0565
   46MOL    H9617286   7.340   5.195   2.318 -1.9563  0.7312 -1.3316
   46MOL    C9717287   7.297   5.652   2.412  0.8314  0.2167  0.3030
   46MOL    C9817288   7.342   5.747   2.300 -0.2761  0.4926  0.2678
   46MOL    C9917289   7.443   5.843   2.369  0.0393 -0.4752 -0.1034
   46MOL   C10017290   7.482   5.782   2.505  0.3718 -0.3690  0.1025
   46MOL   C10117291   7.634   5.786   2.548 -0.2094  0.0255 -0.0013
   46MOL   C10217292   0.035   5.711   2.667  0.2333  0.0852 -0.2321
   46MOL   C10317293   7.418   5.642   2.502 -0.0061 -0.3236 -0.1126
   46MOL   H10417294   7.213   5.690   2.471 -0.0723 -1.0263 -0.1451
   46MOL   H10517295   7.397   5.693   2.223 -1.5987 -0.2469 -0.1762
   46MOL   H10617296   7.262   5.808   2.258  1.3739  1.5947 -1.3963
   46MOL   H10717297   7.533   5.858   2.309  2.0556 -0.5311  2.7916
   46MOL   H10817298   7.387   5.935   2.386  0.4664 -0.1381 -0.5146
   46MOL   H10917299   7.439   5.831   2.593 -2.0118 -0.0811 -1.1881
   46MOL   H11017300   0.058   5.747   2.475 -0.9365  1.0276 -1.2819
   46MOL   H11117301   0.020   5.890   2.556  0.7174 -0.1266 -1.6713
   46MOL   H11217302   0.029   5.773   2.756  1.3807  0.2974 -0.2971
   46MOL   H11317303   7.617   5.624   2.678 -1.1673  0.9692 -1.3948
   46MOL   H11417304   7.482   5.566   2.457 -1.6811 -0.4766 -2.2902
   46MOL   H11517305   7.383   5.615   2.602 -3.0613  3.3784 -0.0765
   46MOL   C11617306   0.175   5.654   2.667  0.2441  0.3059  0.6895
   46MOL   C11717307   0.287   5.752   2.711  0.5275 -0.0421 -0.3135
   46MOL   C11817308   0.378   5.673   2.809 -0.0454 -0.5059  0.2565
   46MOL   C11917309   0.340   5.523   2.791 -0.0167  0.0177 -0.3263
   46MOL   C12017310   0.370   5.424   2.900  0.5744  0.3247 -0.0026
   46MOL   C12117311   0.321   5.279   2.872 -0.7034 -0.7638  0.1998
   46MOL   C12217312   0.193   5.531   2.759  0.6841  0.1601 -0.0775
   46MOL   H12317313   0.203   5.622   2.567  0.3533  2.6322 -0.0658
   46MOL   H12417314   0.248   5.838   2.766  0.2932 -1.7362  2.2309
   46MOL   H12517315   0.337   5.795   2.623 -0.0679 -0.2166 -0.7367
   46MOL   H12617316   0.356   5.700   2.912 -1.6137  2.2076 -0.7408
   46MOL   H12717317   0.486   5.689   2.797 -0.3170 -0.0356 -1.7600
   46MOL   H12817318   0.389   5.483   2.703  0.7656  0.2417  0.0039
   46MOL   H12917319   0.327   5.454   2.996 -0.9201 -0.6953 -0.3402
   46MOL   H13017320   0.479   5.417   2.905  0.5821  0.2640 -0.2601
   46MOL   H13117321   0.366   5.251   2.777  0.5896  2.6839 -0.2744
   46MOL   H13217322   0.212   5.279   2.867 -0.6585 -0.5532 -0.8881
   46MOL   H13317323   0.148   5.440   2.718  0.1372  0.4666 -0.1583
   46MOL   H13417324   0.149   5.563   2.853  1.2642 -1.6618  0.8335
   46MOL   C13517325   0.378   5.184   2.980  0.0016 -0.3157 -0.3870
   46MOL   C13617326   0.328   5.222   3.121  0.3886  0.3466 -0.1720
   46MOL   C13717327   0.270   5.094   3.179  0.9914 -0.7592 -0.0768
   46MOL   C13817328   0.225   5.009   3.063  0.2928  0.7649 -0.1682
   46MOL   C13917329   0.189   4.861   3.091  0.3597  0.0955  0.4712
   46MOL   C14017330   0.086   4.858   3.195 -0.1938  0.0474 -0.3703
   46MOL   C14117331   0.327   5.036   2.957  0.1071  0.1353  0.5383
   46MOL   H14217332   0.486   5.192   2.973  0.2168 -0.7059  2.0734
   46MOL   H14317333   0.402   5.263   3.190  1.7500 -0.3985 -1.1680
   46MOL   H14417334   0.243   5.289   3.109  0.3192  0.1754 -0.6600
   46MOL   H14517335   0.340   5.037   3.239 -0.1149 -1.0659  0.9357
   46MOL   H14617336   0.180   5.116   3.236  1.4660 -0.3884  0.5346
   46MOL   H14717337   0.133   5.051   3.022 -1.5998 -1.6854  1.4064
   46MOL   H14817338   0.272   4.802   3.129  0.5221 -0.3602 -0.5684
   46MOL   H14917339   0.149   4.808   3.005  0.6559 -0.2984  0.5743
   46MOL   H15017340   0.132   4.897   3.286  1.2507  0.0094 -1.0579
   46MOL   H15117341   0.015   4.930   3.156  0.9969  0.3762 -1.9736
   46MOL   H15217342   0.278   5.034   2.860 -1.5596  0.2749  1.3610
   46MOL   H15317343   0.414   4.970   2.962  0.5155  0.5770 -0.7177
   46MOL   C15417344   0.019   4.723   3.217  0.4827 -0.7401 -0.7450
   46MOL   C15517345   7.539   4.738   3.301 -0.1617  0.7056 -0.5328
   46MOL   C15617346   7.553   4.637   3.419 -0.3459 -0.2177 -0.0066
   46MOL   C15717347   0.015   4.542   3.374 -0.1538  0.2023  0.5245
   46MOL   C15817348   0.084   4.460   3.486 -0.4451  0.4588 -0.3684
   46MOL   C15917349   0.001   4.351   3.550  0.4765  0.4371 -0.5987
   46MOL   C16017350   0.106   4.632   3.297 -0.3079 -0.1048 -0.4468
   46MOL   H16117351   7.633   4.689   3.118  1.7925  1.8176 -2.1240
   46MOL   H16217352   7.522   4.840   3.334 -0.1787  0.3337  0.5999
   46MOL   H16317353   7.451   4.721   3.238  0.5838  1.3561 -1.7742
   46MOL   H16417354   7.566   4.703   3.505 -1.7552 -0.4390  0.3971
   46MOL   H16517355   7.459   4.584   3.435 -0.3167 -0.5857 -1.0324
   46MOL   H16617356   7.616   4.471   3.306 -1.3462  1.8723 -0.4349
   46MOL   H16717357   0.103   4.542   3.555  1.4156  1.5387 -2.1141
   46MOL   H16817358   0.180   4.426   3.448  0.1883  1.4853  0.2971
   46MOL   H16917359   0.034   4.362   3.654 -3.1729  0.3141  0.6318
   46MOL   H17017360   7.544   4.380   3.560 -0.1782 -1.9983 -0.1083
   46MOL   H17117361   0.169   4.572   3.232  0.1037  1.3013 -1.3543
   46MOL   H17217362   0.168   4.678   3.374 -0.5738 -0.5711  0.0539
   46MOL   C17317363   0.010   4.211   3.494  0.2476 -0.5508 -0.4259
   46MOL   C17417364   7.573   4.111   3.584 -0.1409 -0.5043 -0.3065
   46MOL   C17517365   7.503   4.024   3.483  0.4808 -0.7866  0.2414
   46MOL   C17617366   7.563   4.060   3.340  0.8494  0.2995  0.7365
   46MOL   C17717367   7.461   4.023   3.222 -0.5449 -0.5354 -0.0816
   46MOL   C17817368   7.519   4.063   3.086  0.6337 -0.8073 -0.4696
   46MOL   C17917369   7.596   4.207   3.354  0.2806 -0.1265 -0.3410
   46MOL   H18017370   0.114   4.180   3.490  0.7725  1.1402 -0.0797
   46MOL   H18117371   7.501   4.176   3.635 -0.5042  3.0257 -4.9574
   46MOL   H18217372   7.634   4.055   3.655  1.1191  1.3514  0.1274
   46MOL   H18317373   7.529   3.922   3.510  1.8376  0.0274  2.1714
   46MOL   H18417374   7.395   4.036   3.489  0.2707 -3.0658  1.7212
   46MOL   H18517375   0.007   4.001   3.342  1.8854  1.9205  2.4498
   46MOL   H18617376   7.368   4.076   3.244 -0.7874 -1.0928  0.2508
   46MOL   H18717377   7.435   3.918   3.224  0.5638 -0.9390 -3.4056
   46MOL   H18817378   7.617   4.018   3.067  0.0481 -2.5459  0.4980
   46MOL   H18917379   7.533   4.170   3.073  2.9980 -0.9695  0.5046
   46MOL   H19017380   7.501   4.261   3.353 -0.1010 -0.6727  2.5982
   46MOL   H19117381   0.020   4.243   3.281  1.7417  1.3991  1.7766
   46MOL   C19217382   7.447   4.018   2.958 -0.0739 -0.9766 -0.6493
   46MOL   C19317383   7.529   4.039   2.834 -0.1549  0.8306  0.0691
   46MOL   C19417384   7.434   4.061   2.717 -0.1138  0.3380 -0.5951
   46MOL   C19517385   7.311   4.128   2.784  0.3972  0.4253 -0.6528
   46MOL   C19617386   7.179   4.095   2.714  0.2327 -0.3606  0.0509
   46MOL   C19717387   7.069   4.187   2.755 -0.1106  0.5968 -0.8247
   46MOL   C19817388   7.314   4.096   2.939 -0.2983 -0.0534 -0.5155
   46MOL   H19917389   7.418   3.913   2.959  0.0206 -1.0463 -2.6190
   46MOL   H20017390   7.588   4.129   2.850  0.8757  0.1024  0.3666
   46MOL   H20117391   7.587   3.949   2.815 -1.7121 -0.3018  0.5493
   46MOL   H20217392   7.406   3.964   2.674 -0.5826  0.1686  0.0902
   46MOL   H20317393   7.477   4.121   2.637 -1.2709 -0.4476 -1.8390
   46MOL   H20417394   7.318   4.236   2.780  0.5507  0.3941 -1.2895
   46MOL   H20517395   7.152   3.990   2.718 -1.6557  0.1277  0.5998
   46MOL   H20617396   7.197   4.101   2.607  0.8320  1.0160  0.2132
   46MOL   H20717397   7.103   4.289   2.741  1.6784  0.2049  0.4851
   46MOL   H20817398   7.047   4.174   2.861 -1.4618  0.8359 -1.0650
   46MOL   H20917399   7.225   4.054   2.985  0.4489 -1.7740 -0.5701
   46MOL   H21017400   7.321   4.184   3.003 -0.3696 -0.5136  0.1263
   46MOL   C21117401   6.938   4.157   2.676 -0.1925  0.3186 -0.0131
   46MOL   C21217402   6.939   4.176   2.524  0.2139 -0.1204 -0.3035
   46MOL   C21317403   6.800   4.246   2.493 -0.2682 -0.1483  0.0339
   46MOL   C21417404   6.718   4.235   2.623 -0.5976 -0.2694 -0.2594
   46MOL   C21517405   6.611   4.354   2.640 -0.2743  0.2310  0.2222
   46MOL   C21617406   6.491   4.329   2.559  0.4470  0.1853 -0.0715
   46MOL   C21717407   6.817   4.235   2.730  0.1573  0.3223  0.0087
   46MOL   H21817408   6.916   4.051   2.689 -0.5315  0.3078 -0.6420
   46MOL   H21917409   7.023   4.244   2.506 -0.9875  1.2803 -0.6300
   46MOL   H22017410   6.949   4.083   2.466 -1.5741  0.1339 -1.0351
   46MOL   H22117411   6.829   4.349   2.471 -2.1568  0.0963 -1.4103
   46MOL   H22217412   6.754   4.196   2.408 -0.4270 -1.5996  0.9629
   46MOL   H22317413   6.673   4.136   2.619 -0.6194 -0.3140  0.8404
   46MOL   H22417414   6.644   4.452   2.605 -1.5849  1.0199  1.1738
   46MOL   H22517415   6.596   4.373   2.746 -1.6804  0.2645  0.0352
   46MOL   H22617416   6.531   4.297   2.463 -0.0853  0.3538 -0.3527
   46MOL   H22717417   6.446   4.239   2.600  0.9983  0.2722  0.7490
   46MOL   H22817418   6.787   4.190   2.825  1.2498  2.5016  1.4308
   46MOL   H22917419   6.860   4.334   2.747  1.1826  0.3472 -2.5272
   46MOL   C23017420   6.382   4.432   2.556  0.1597  0.0284 -0.2562
   46MOL   C23117421   6.398   4.572   2.484  0.2984  0.6414  0.5317
   46MOL   C23217422   6.350   4.678   2.584  0.9056  0.0847  0.2415
   46MOL   C23317423   6.239   4.604   2.672 -0.1985 -0.4139 -0.3978
   46MOL   C23417424   6.099   4.602   2.629 -0.2039  0.1738 -0.7336
   46MOL   C23517425   6.029   4.735   2.624  0.3943  0.0313  0.5971
   46MOL   C23617426   6.297   4.466   2.684 -0.0344  0.2018  0.2027
   46MOL   H23717427   6.319   4.384   2.482  0.4722 -0.4554 -0.2130
   46MOL   H23817428   6.503   4.587   2.461  0.3152 -0.8551 -0.4784
   46MOL   H23917429   6.342   4.580   2.390 -3.0790  0.5246  2.4738
   46MOL   H24017430   6.312   4.769   2.539  0.0796 -1.1410 -1.6228
   46MOL   H24117431   6.437   4.714   2.638  1.1381  0.3229 -0.2906
   46MOL   H24217432   6.244   4.654   2.769 -1.3187  0.3738 -0.7359
   46MOL   H24317433   6.040   4.531   2.687  0.7337  1.1992  1.4979
   46MOL   H24417434   6.081   4.574   2.525  0.8512 -3.6550  0.0056
   46MOL   H24517435   6.029   4.773   2.726  0.7968  1.9870 -0.1088
   46MOL   H24617436   6.094   4.795   2.560  0.7079  0.7999  1.6191
   46MOL   H24717437   6.235   4.379   2.707 -1.1029  0.8093 -0.3070
   46MOL   H24817438   6.373   4.469   2.761 -0.0949  1.1357  0.2348
   46MOL   C24917439   5.888   4.726   2.559  0.4277  0.2150 -0.1014
   46MOL   C25017440   5.786   4.637   2.637  0.6968 -0.1445 -0.2484
   46MOL   C25117441   5.651   4.680   2.579  0.0763  0.5292  0.5223
   46MOL   C25217442   5.673   4.826   2.536  0.1671 -1.0783 -0.3724
   46MOL   C25317443   5.584   4.872   2.424  0.1849 -0.6747 -0.7260
   46MOL   C25417444   5.558   5.025   2.417 -0.0261 -0.1454 -0.1750
   46MOL   C25517445   5.818   4.858   2.524  0.3452  0.7397  0.8165
   46MOL   H25617446   5.904   4.692   2.457 -0.7786 -1.9592  0.3878
   46MOL   H25717447   5.802   4.530   2.624 -1.5552 -0.6063  0.6230
   46MOL   H25817448   5.810   4.662   2.741 -0.1431 -0.0412 -0.0786
   46MOL   H25917449   5.577   4.666   2.657  1.3757  1.0545  1.8808
   46MOL   H26017450   5.632   4.616   2.493 -3.1954 -0.2014  1.7183
   46MOL   H26117451   5.631   4.878   2.622  1.1822 -2.1344  0.7905
   46MOL   H26217452   5.491   4.821   2.445 -0.1026  0.2290  0.2613
   46MOL   H26317453   5.623   4.831   2.331 -2.5677  0.0821 -2.2558
   46MOL   H26417454   5.653   5.077   2.408 -1.2335  3.0437  3.6919
   46MOL   H26517455   5.514   5.066   2.508  0.4885 -1.4679  0.6827
   46MOL   H26617456   5.858   4.930   2.595 -0.7511  1.6590  0.5145
   46MOL   H26717457   5.835   4.891   2.421 -0.8977  1.5393  0.8521
   46MOL   C26817458   5.468   5.072   2.300  0.0175  0.2286 -0.3307
   46MOL   C26917459   5.502   5.040   2.154  0.2883 -0.3293 -0.5383
   46MOL   C27017460   5.416   5.137   2.075  0.0655  0.0683  0.5979
   46MOL   C27117461   5.360   5.245   2.168 -0.7041  0.6222 -0.7446
   46MOL   C27217462   5.369   5.393   2.112 -0.2446 -0.0304 -0.6876
   46MOL   C27317463   5.273   5.478   2.190 -0.0683  0.2729  0.1153
   46MOL   C27417464   5.440   5.222   2.304 -0.2023 -0.3471 -0.0161
   46MOL   H27517465   5.373   5.025   2.325  1.6946 -2.1522  1.8571
   46MOL   H27617466   5.609   5.057   2.143  0.7516 -1.6922  1.4462
   46MOL   H27717467   5.454   4.944   2.135 -1.0701  0.3893 -0.8217
   46MOL   H27817468   5.473   5.183   1.994 -0.5134  1.1814  0.8160
   46MOL   H27917469   5.339   5.081   2.022 -0.2641  1.6940 -0.6790
   46MOL   H28017470   5.255   5.232   2.192 -0.6463  1.6273  0.0882
   46MOL   H28117471   5.329   5.409   2.012  2.3998  0.9764 -1.6347
   46MOL   H28217472   5.474   5.423   2.109  0.3267 -1.9820 -0.4406
   46MOL   H28317473   5.166   5.458   2.183  0.5656 -3.3720 -0.1828
   46MOL   H28417474   5.298   5.464   2.295 -0.2120  0.4548  0.1760
   46MOL   H28517475   5.537   5.273   2.302 -0.9484  1.2195  1.8963
   46MOL   H28617476   5.380   5.239   2.393 -0.0142 -1.8763  0.4022
   46MOL   C28717477   5.285   5.627   2.154 -0.3551  0.2259  0.3202
   46MOL   C28817478   5.192   5.713   2.236  0.5016 -0.4468  0.3172
   46MOL   C28917479   5.260   5.848   2.238 -0.2846  0.0870  0.0419
   46MOL   C29017480   5.402   5.833   2.214 -0.2502 -0.0938 -0.4336
   46MOL   C29117481   5.481   5.884   2.333  0.6911 -0.1665 -0.3035
   46MOL   C29217482   5.637   5.880   2.333  0.1263 -0.2837  0.0970
   46MOL   C29317483   5.421   5.678   2.200  0.1133 -0.2499  0.2434
   46MOL   H29417484   5.264   5.644   2.049  0.4859 -0.8828 -0.0342
   46MOL   H29517485   5.091   5.709   2.196  0.1293  0.5202  1.1418
   46MOL   H29617486   5.198   5.677   2.338 -2.1583  1.7318  1.3094
   46MOL   H29717487   5.248   5.902   2.332  3.0271 -0.5809  0.8739
   46MOL   H29817488   5.210   5.897   2.154 -1.1689 -2.0509 -0.7129
   46MOL   H29917489   5.422   5.875   2.115 -1.0455  0.8057 -0.2156
   46MOL   H30017490   5.432   5.853   2.425  1.7271 -1.3243 -0.1350
   46MOL   H30117491   5.465   5.992   2.328 -0.4530 -0.4205 -2.4013
   46MOL   H30217492   5.662   5.934   2.242 -1.4720  0.6999  0.2204
   46MOL   H30317493   5.666   5.775   2.327 -1.5147 -0.7186 -0.4772
   46MOL   H30417494   5.448   5.635   2.297  0.9310 -2.2941 -0.8513
   46MOL   H30517495   5.500   5.667   2.125  2.7285 -2.2175  3.1284
   46MOL   C30617496   5.717   5.942   2.449 -0.1806 -0.5445 -0.3672
   46MOL   C30717497   5.683   5.897   2.593 -0.0443 -0.1584 -0.4760
   46MOL   C30817498   5.812   5.887   2.669 -0.0141  0.4212  0.1910
   46MOL   C30917499   5.929   5.919   2.568  0.6167 -0.3149  0.1609
   46MOL   C31017500   6.043   5.816   2.587  0.0177 -0.0088  0.9378
   46MOL   C31117501   6.167   5.858   2.501 -0.0536 -0.0890 -0.4187
   46MOL   C31217502   5.862   5.900   2.428  0.3747 -0.4700 -0.5673
   46MOL   H31317503   5.709   6.050   2.437 -0.6393 -0.1525  2.8977
   46MOL   H31417504   5.610   5.954   2.650  2.9368  0.4564  2.8717
   46MOL   H31517505   5.632   5.800   2.587  0.7133 -0.5001 -1.5434
   46MOL   H31617506   5.821   5.957   2.753 -1.7405  2.1359 -1.0109
   46MOL   H31717507   5.827   5.794   2.723  1.2235  0.3818 -0.2120
   46MOL   H31817508   5.963   6.022   2.578  0.5237 -0.1688 -0.9471
   46MOL   H31917509   6.064   5.804   2.693  0.6339 -1.1044  0.6990
   46MOL   H32017510   5.995   5.723   2.558  1.1017 -0.5002  0.7121
   46MOL   H32117511   6.209   5.943   2.554 -2.0589  1.4291 -1.1943
   46MOL   H32217512   6.145   5.898   2.402 -0.8117 -1.8323 -0.9720
   46MOL   H32317513   5.867   5.802   2.381  1.2817 -0.3136 -0.8035
   46MOL   H32417514   5.909   5.967   2.356 -2.1992  2.1749  0.1080
   46MOL   C32517515   6.266   5.739   2.479  0.1495 -0.1424 -0.4379
   46MOL   C32617516   6.202   5.611   2.413  0.0643  0.3177 -0.7613
   46MOL   C32717517   6.306   5.551   2.313  0.4623  0.0778 -1.3789
   46MOL   C32817518   6.391   5.676   2.268  0.4177  0.3468  0.8738
   46MOL   C32917519   6.534   5.661   2.212 -0.0925 -0.2415 -0.1418
   46MOL   C33017520   6.604   5.798   2.186  0.0085 -0.0286  0.3948
   46MOL   C33117521   6.382   5.779   2.388  0.6741  0.3763  0.4592
   46MOL   H33217522   6.303   5.716   2.579 -1.3654  0.1204  0.1882
   46MOL   H33317523   6.116   5.635   2.351  0.1814  0.4971 -0.8552
   46MOL   H33417524   6.170   5.536   2.484 -0.0590 -0.0574 -1.2143
   46MOL   H33517525   6.362   5.479   2.373 -1.5661  1.2634  2.0438
   46MOL   H33617526   6.263   5.495   2.230 -0.4524 -0.9580 -0.2285
   46MOL   H33717527   6.324   5.721   2.195  0.9508  0.0067  0.1699
   46MOL   H33817528   6.604   5.609   2.278 -2.1150  0.4539  2.6231
   46MOL   H33917529   6.534   5.601   2.120  1.3756  0.6146 -0.7339
   46MOL   H34017530   6.535   5.880   2.163 -3.5182 -3.3763 -1.4762
   46MOL   H34117531   6.626   5.832   2.288  0.3007 -0.6398  0.5368
   46MOL   H34217532   6.392   5.880   2.348 -1.4965 -0.1230 -1.4548
   46MOL   H34317533   6.469   5.754   2.449  0.4648 -0.0959  0.5702
   46MOL   C34417534   6.730   5.791   2.096 -0.2402  0.8338 -0.3347
   46MOL   C34517535   6.829   5.681   2.132  0.3428 -0.0944 -0.4593
   46MOL   C34617536   6.963   5.752   2.116  0.1450  0.0296  0.2039
   46MOL   C34717537   6.941   5.900   2.147  0.2837  0.9442 -0.1574
   46MOL   C34817538   7.038   6.005   2.087 -0.4038 -0.8119  0.0979
   46MOL   C34917539   7.002   6.152   2.124 -0.4086  0.0733  0.4642
   46MOL   C35017540   6.803   5.929   2.087  0.5499  0.0942 -0.1360
   46MOL   H35117541   6.695   5.766   1.995  1.0867 -0.7148 -0.4310
   46MOL   H35217542   6.820   5.596   2.065  0.7496  0.2720 -0.9842
   46MOL   H35317543   6.807   5.662   2.237  0.5656  2.6131  0.1206
   46MOL   H35417544   7.043   5.717   2.181  0.1744  0.5184  0.4327
   46MOL   H35517545   6.990   5.741   2.011 -0.7783 -0.7735  0.0390
   46MOL   H35617546   6.933   5.907   2.256  3.3205  1.9179  0.0585
   46MOL   H35717547   7.137   5.969   2.115  0.5240  1.6537  0.1244
   46MOL   H35817548   7.053   5.999   1.979  1.4746  0.7426  0.2358
   46MOL   H35917549   6.910   6.180   2.072 -0.7475 -1.1406  0.3939
   46MOL   H36017550   7.083   6.216   2.090 -0.3492 -0.4605 -0.4078
   46MOL   H36117551   6.745   6.000   2.146 -0.7868 -2.0992  1.3256
   46MOL   H36217552   6.820   5.952   1.982  2.1124 -1.9312 -0.3750
   46MOL   C36317553   6.994   6.182   2.274  0.0186  0.3805 -0.0794
   46MOL   C36417554   6.968   6.329   2.311  0.8090 -0.3796  0.1358
   46MOL   C36517555   7.033   6.351   2.444  0.2243 -0.4713  0.8707
   46MOL   C36617556   7.057   6.216   2.499 -0.3162  0.8493 -0.0636
   46MOL   C36717557   7.162   6.213   2.606  0.3011 -0.3595 -0.0862
   46MOL   C36817558   7.201   6.080   2.671 -0.1681 -0.0686  0.6308
   46MOL   C36917559   7.102   6.140   2.371  0.6119 -0.0995 -0.5205
   46MOL   H37017560   6.905   6.123   2.297  0.0156  1.4590  2.9417
   46MOL   H37117561   7.011   6.382   2.226  1.1034 -2.7918 -1.2613
   46MOL   H37217562   6.862   6.347   2.296  1.1789  0.9591 -0.9976
   46MOL   H37317563   7.130   6.394   2.419 -0.5371  0.2364 -0.9752
   46MOL   H37417564   6.970   6.419   2.501  0.6372  0.5897  0.0706
   46MOL   H37517565   6.967   6.175   2.545 -0.3811  0.9347 -0.1164
   46MOL   H37617566   7.246   6.270   2.568 -0.7088 -0.4749 -2.6211
   46MOL   H37717567   7.129   6.276   2.688 -0.9472 -0.8111 -0.2329
   46MOL   H37817568   7.258   6.018   2.603 -1.5302 -1.2401  0.5481
   46MOL   H37917569   7.126   6.019   2.722  0.7934  0.0780  2.2668
   46MOL   H38017570   7.203   6.174   2.346 -0.1443  2.1269 -0.7448
   46MOL   H38117571   7.103   6.032   2.384  0.7758 -0.0507 -0.1277
   46MOL   H38217572   7.272   6.101   2.751  0.6190 -1.4661  0.3138
   47MOL     C117573   0.254   7.344   2.563 -0.5030  0.2245  0.7784
   47MOL     C217574   0.130   7.290   2.625 -0.7748  0.0666 -0.3207
   47MOL     C317575   0.159   7.265   2.772  0.4863  0.2291 -0.3864
   47MOL     C417576   0.247   7.385   2.805 -0.0261  0.2715 -0.5350
   47MOL     C517577   0.341   7.360   2.921 -0.2016 -0.0578  0.3520
   47MOL     C617578   0.262   7.320   3.048 -0.4252 -0.0146 -0.2160
   47MOL     C717579   0.316   7.435   2.674  0.2692  0.0569  0.2064
   47MOL     H817580   0.321   7.271   2.518  1.0413  1.5145  0.9424
   47MOL     H917581   0.109   7.194   2.579 -0.6188 -0.3258  0.4177
   47MOL    H1017582   0.038   7.350   2.628  1.1066  2.9959  1.0815
   47MOL    H1117583   0.078   7.255   2.844  2.4674 -0.5985  1.7600
   47MOL    H1217584   0.228   7.181   2.781  1.0176  0.4363 -2.1990
   47MOL    H1317585   0.192   7.470   2.844  3.3737  0.9462  3.1445
   47MOL    H1417586   0.417   7.289   2.888 -0.0233  0.6193 -0.7220
   47MOL    H1517587   0.399   7.451   2.940  2.2006 -1.3825 -0.4857
   47MOL    H1617588   0.200   7.407   3.068  1.1963  0.8512  1.2360
   47MOL    H1717589   0.196   7.235   3.031 -0.2989 -0.4361  1.3029
   47MOL    H1817590   0.287   7.538   2.655 -1.9708 -0.6235 -0.1847
   47MOL    H1917591   0.425   7.430   2.683  0.8344  4.9260 -2.0565
   47MOL    H2017592   0.225   7.401   2.475  2.3637  1.5277  0.6092
   47MOL    C2117593   0.352   7.283   3.175  0.1496 -0.7979  0.1850
   47MOL    C2217594   0.281   7.291   3.311 -0.0910  0.0526 -0.7148
   47MOL    C2317595   0.356   7.186   3.396  0.3075  0.7518 -0.5087
   47MOL    C2417596   0.468   7.118   3.317  0.3637 -0.0059  0.0880
   47MOL    C2517597   0.494   6.969   3.329  0.4785  0.5231  0.2442
   47MOL    C2617598   0.561   6.931   3.463  0.8498  0.4707 -0.5260
   47MOL    C2717599   0.419   7.144   3.174 -0.3035 -0.2802 -0.0777
   47MOL    H2817600   0.428   7.361   3.176 -0.9475  0.2826  0.5276
   47MOL    H2917601   0.291   7.395   3.342  0.2073  0.0609 -0.8322
   47MOL    H3017602   0.175   7.266   3.306 -0.5967  2.2237 -1.6658
   47MOL    H3117603   0.394   7.225   3.491 -3.0031  0.0006  1.2053
   47MOL    H3217604   0.284   7.108   3.418 -0.2190  1.9667  2.3284
   47MOL    H3317605   0.554   7.183   3.331 -1.2410  1.8310  1.7486
   47MOL    H3417606   0.556   6.937   3.245 -0.2670  0.6494 -0.3660
   47MOL    H3517607   0.396   6.928   3.301  0.6431  0.1534  0.2044
   47MOL    H3617608   0.529   6.831   3.494 -1.7059  1.1845 -0.7448
   47MOL    H3717609   0.533   6.995   3.546 -0.5175 -0.7400 -0.0223
   47MOL    H3817610   0.507   7.156   3.111 -0.6796  1.0581 -0.3664
   47MOL    H3917611   0.365   7.062   3.127  2.3034 -2.4120  0.5595
   47MOL    C4017612   0.713   6.930   3.451  0.3094  0.0294  0.6011
   47MOL    C4117613   0.781   7.062   3.470  0.5598  0.2573  0.3064
   47MOL    C4217614   0.924   7.023   3.507  0.8406  0.3756  0.0836
   47MOL    C4317615   0.914   6.906   3.602  0.0911  0.0970  0.2426
   47MOL    C4417616   1.040   6.811   3.589  0.3240 -0.0627 -0.5830
   47MOL    C4517617   1.040   6.699   3.700  0.0076 -0.6177 -0.3933
   47MOL    C4617618   0.776   6.849   3.565  0.2762 -0.8427  0.3371
   47MOL    H4717619   0.748   6.900   3.352  0.3459  0.6287  0.4321
   47MOL    H4817620   0.727   7.120   3.545  0.0346 -0.6317  0.6192
   47MOL    H4917621   0.787   7.128   3.383 -0.1062  0.0621  0.1156
   47MOL    H5017622   0.989   7.013   3.420  3.3555  1.6845  1.7398
   47MOL    H5117623   0.962   7.105   3.568 -1.6426  1.4260  0.2575
   47MOL    H5217624   0.897   6.938   3.705  0.4176  3.2306 -0.6271
   47MOL    H5317625   1.026   6.762   3.493 -0.6056 -2.3360  0.6664
   47MOL    H5417626   1.132   6.870   3.588  0.6101 -0.4244  1.6547
   47MOL    H5517627   0.952   6.635   3.701 -0.2547 -0.2635 -0.8198
   47MOL    H5617628   1.046   6.750   3.796 -2.3922 -0.7969 -0.1314
   47MOL    H5717629   0.778   6.741   3.561  2.5458 -0.7537 -2.5666
   47MOL    H5817630   0.718   6.864   3.657 -1.2583  2.0141 -1.0226
   47MOL    C5917631   1.157   6.600   3.684 -0.4512  0.0933  0.1189
   47MOL    C6017632   1.189   6.496   3.803 -0.0253 -0.5450  0.0172
   47MOL    C6117633   1.259   6.380   3.738 -0.1310  0.1142 -0.1152
   47MOL    C6217634   1.192   6.366   3.604  0.6275 -0.3344 -0.0816
   47MOL    C6317635   1.263   6.288   3.490 -0.0155 -0.5253 -0.2280
   47MOL    C6417636   1.157   6.260   3.372 -0.9021  0.3612  0.1633
   47MOL    C6517637   1.142   6.506   3.568 -0.5956  0.5833 -0.5757
   47MOL    H6617638   1.249   6.658   3.675 -1.3765  1.4831 -0.5495
   47MOL    H6717639   1.237   6.543   3.889  1.2130 -0.8130 -0.5167
   47MOL    H6817640   1.092   6.457   3.837 -1.0773 -0.0959 -2.3703
   47MOL    H6917641   1.364   6.406   3.725 -0.0246 -0.0574  0.3955
   47MOL    H7017642   1.256   6.288   3.795 -0.6490  1.5043  2.1654
   47MOL    H7117643   1.109   6.300   3.630  0.1945 -0.2616 -1.2381
   47MOL    H7217644   1.300   6.194   3.530 -0.5626 -1.1929 -1.2957
   47MOL    H7317645   1.354   6.341   3.461  1.8465 -2.8212  1.2943
   47MOL    H7417646   1.057   6.233   3.406 -2.3035 -0.1521 -4.0571
   47MOL    H7517647   1.146   6.359   3.329 -0.4777  1.0210  1.5433
   47MOL    H7617648   1.196   6.536   3.478 -1.5304  3.3764 -0.2559
   47MOL    H7717649   1.041   6.501   3.527 -0.6745  1.2996 -0.4702
   47MOL    C7817650   1.205   6.154   3.279 -0.4281  0.5899  0.0855
   47MOL    C7917651   1.111   6.144   3.163 -0.1875  0.0526  0.0613
   47MOL    C8017652   1.193   6.104   3.044  0.0738 -1.3833 -0.4439
   47MOL    C8117653   1.325   6.062   3.096  0.4263 -0.1807 -0.3918
   47MOL    C8217654   1.451   6.067   2.996  0.7818 -0.3976 -0.2609
   47MOL    C8317655   1.574   6.011   3.069  0.1408 -0.3491 -0.3955
   47MOL    C8417656   1.343   6.158   3.217 -0.4307 -0.6933 -0.5164
   47MOL    H8517657   1.200   6.061   3.336  0.0356  0.6796  0.2732
   47MOL    H8617658   1.026   6.078   3.173 -0.7873  0.8254  0.0826
   47MOL    H8717659   1.076   6.244   3.139  0.5717  0.6819  1.5028
   47MOL    H8817660   1.143   6.016   3.002 -1.5843 -0.9531  0.5967
   47MOL    H8917661   1.203   6.183   2.970 -2.1258 -0.4755  0.1736
   47MOL    H9017662   1.320   5.961   3.138 -0.6656 -0.3501 -0.9001
   47MOL    H9117663   1.470   6.171   2.969 -1.1739  0.7510  2.5255
   47MOL    H9217664   1.425   6.019   2.902 -1.1594  0.9812 -0.4514
   47MOL    H9317665   1.540   5.916   3.110  0.2533  0.8211  2.5500
   47MOL    H9417666   1.593   6.075   3.155  1.0895  1.7139 -2.1024
   47MOL    H9517667   1.367   6.258   3.183  1.3386 -0.8408  0.2361
   47MOL    H9617668   1.419   6.121   3.287  0.2906 -0.3208 -1.1056
   47MOL    C9717669   1.697   5.991   2.972 -0.1199  0.6604  0.5428
   47MOL    C9817670   1.692   5.846   2.902 -0.2813 -0.1450  0.7447
   47MOL    C9917671   1.761   5.754   3.000  0.6085 -0.5724 -0.9922
   47MOL   C10017672   1.876   5.841   3.044  0.9574  0.2143  0.3203
   47MOL   C10117673   1.936   5.808   3.181  0.1734  0.3167 -0.2451
   47MOL   C10217674   2.076   5.864   3.186 -0.4249  0.0030  0.2116
   47MOL   C10317675   1.827   5.992   3.039 -0.2191  0.1000  0.3821
   47MOL   H10417676   1.697   6.064   2.890  0.0360  2.4180  2.0788
   47MOL   H10517677   1.594   5.809   2.873  0.4356 -0.9771 -0.6618
   47MOL   H10617678   1.752   5.837   2.811  1.2087 -1.0207  1.7905
   47MOL   H10717679   1.691   5.738   3.082 -1.2194 -1.7825 -2.7395
   47MOL   H10817680   1.789   5.656   2.962 -0.0141 -1.4818  0.8239
   47MOL   H10917681   1.953   5.837   2.967 -0.8403  1.2542 -1.5947
   47MOL   H11017682   1.872   5.845   3.261  0.6361  1.4083 -0.3736
   47MOL   H11117683   1.947   5.702   3.204  0.2388  0.7563  1.8055
   47MOL   H11217684   2.139   5.833   3.102  1.5668  1.0620  1.2780
   47MOL   H11317685   2.071   5.971   3.170  0.0571 -0.0172 -0.1010
   47MOL   H11417686   1.823   6.040   3.138 -1.4872  1.2259 -0.2039
   47MOL   H11517687   1.897   6.059   2.989  1.1986 -0.2435  1.8401
   47MOL   C11617688   2.162   5.827   3.310  0.3692  0.3428 -0.3726
   47MOL   C11717689   2.300   5.899   3.310 -0.2457 -0.1987  0.7513
   47MOL   C11817690   2.325   5.919   3.455  0.0483  0.3831 -0.1932
   47MOL   C11917691   2.199   5.866   3.537 -0.4302 -0.2047 -0.3999
   47MOL   C12017692   2.185   5.936   3.670  0.6882 -0.6345  0.1073
   47MOL   C12117693   2.064   5.878   3.743 -0.0548 -0.5869  0.3102
   47MOL   C12217694   2.087   5.876   3.435 -0.0295  0.4508 -0.1799
   47MOL   H12317695   2.175   5.719   3.320  1.2628  0.4431 -0.3528
   47MOL   H12417696   2.296   5.993   3.255  1.6687  1.1577  2.8625
   47MOL   H12517697   2.379   5.839   3.265 -0.6079 -0.9758  1.1262
   47MOL   H12617698   2.337   6.027   3.470  0.9769  0.0662  1.4917
   47MOL   H12717699   2.415   5.868   3.488 -0.3983  1.0302  2.1859
   47MOL   H12817700   2.212   5.762   3.566  2.0307  0.2041  0.0527
   47MOL   H12917701   2.188   6.045   3.664 -1.0390 -0.5487  0.5874
   47MOL   H13017702   2.282   5.918   3.718  1.6273  0.4180 -1.3442
   47MOL   H13117703   2.083   5.772   3.760  0.4267 -0.8296 -1.6047
   47MOL   H13217704   1.967   5.897   3.697 -0.2977  2.2246  1.8390
   47MOL   H13317705   2.001   5.812   3.454 -0.1728  0.1768 -1.6975
   47MOL   H13417706   2.058   5.978   3.412  2.6007  1.6970  1.8033
   47MOL   C13517707   2.045   5.934   3.884  0.1341  0.0066  0.4960
   47MOL   C13617708   1.947   5.858   3.973  0.6983  0.6071  0.1234
   47MOL   C13717709   1.973   5.916   4.109 -0.2676  0.3709  0.3123
   47MOL   C13817710   2.117   5.967   4.117  0.0147 -0.0978  0.6541
   47MOL   C13917711   2.142   6.093   4.205  0.8799  0.4980 -0.1437
   47MOL   C14017712   2.292   6.115   4.230 -1.0782 -0.1311  0.2931
   47MOL   C14117713   2.168   5.975   3.969 -0.1938 -0.1636 -0.2229
   47MOL   H14217714   2.008   6.036   3.872  3.2809  1.3052  1.4293
   47MOL   H14317715   1.844   5.870   3.940  1.0710 -0.3676 -1.4908
   47MOL   H14417716   1.985   5.756   3.968  0.6610  0.6341 -0.9884
   47MOL   H14517717   1.903   6.000   4.105  0.7147  1.1780 -0.2489
   47MOL   H14617718   1.943   5.845   4.186 -0.3437  0.0029 -0.0520
   47MOL   H14717719   2.168   5.893   4.179  0.9733 -0.0726 -0.1019
   47MOL   H14817720   2.084   6.093   4.298  1.3582  1.0155  0.1602
   47MOL   H14917721   2.103   6.185   4.162 -0.6435 -0.7958 -1.5868
   47MOL   H15017722   2.334   6.018   4.257  2.4671  0.9917 -0.8730
   47MOL   H15117723   2.339   6.128   4.133 -2.7123 -0.8667 -0.6223
   47MOL   H15217724   2.261   5.919   3.958  0.5865  0.9276  0.6754
   47MOL   H15317725   2.198   6.075   3.939  1.3578 -0.6878 -0.4368
   47MOL   C15417726   2.334   6.225   4.326  0.1731 -0.3319  0.5410
   47MOL   C15517727   2.310   6.373   4.279 -0.0006 -0.6091  0.7036
   47MOL   C15617728   2.450   6.437   4.284  0.0265 -0.1835  0.0414
   47MOL   C15717729   2.523   6.361   4.387  0.0716  0.4274 -0.0261
   47MOL   C15817730   2.671   6.379   4.401  0.4985  0.2667  0.1546
   47MOL   C15917731   2.723   6.330   4.534  0.0233  0.4254  0.3510
   47MOL   C16017732   2.485   6.214   4.354 -0.4477  0.3386 -0.1890
   47MOL   H16117733   2.298   6.212   4.428  2.6062 -0.7291  1.3752
   47MOL   H16217734   2.268   6.363   4.179  1.3536 -3.1417  0.3280
   47MOL   H16317735   2.245   6.416   4.355 -3.5891 -0.5964 -2.2485
   47MOL   H16417736   2.500   6.428   4.187 -0.4864  0.8501 -0.3239
   47MOL   H16517737   2.445   6.542   4.311  2.9639  0.4742 -1.7344
   47MOL   H16617738   2.479   6.382   4.484 -1.1741 -1.9594 -0.0250
   47MOL   H16717739   2.686   6.487   4.406 -2.3459  0.9301 -3.5426
   47MOL   H16817740   2.730   6.343   4.317  2.0757 -0.3068  1.5021
   47MOL   H16917741   2.680   6.390   4.613  2.2672  3.0347 -0.3317
   47MOL   H17017742   2.707   6.222   4.545  3.7364 -0.3677 -1.2107
   47MOL   H17117743   2.501   6.142   4.434 -1.9120 -0.1834 -0.3506
   47MOL   H17217744   2.544   6.166   4.274  1.8735  1.3445  0.8676
   47MOL   C17317745   2.874   6.362   4.551  0.0635 -0.5087 -0.6489
   47MOL   C17417746   2.889   6.522   4.573  0.5520  0.2673  0.4335
   47MOL   C17517747   2.944   6.540   4.712  0.1659  0.3774 -0.3824
   47MOL   C17617748   3.022   6.411   4.737  0.2808  0.1581  0.2444
   47MOL   C17717749   3.042   6.385   4.882  0.7583 -0.7275 -0.0191
   47MOL   C17817750   3.142   6.482   4.942  0.2272 -0.2518 -0.3366
   47MOL   C17917751   2.939   6.303   4.677  0.3023  0.7822  0.3627
   47MOL   H18017752   2.926   6.344   4.457  0.0446  0.3030 -0.8161
   47MOL   H18117753   2.799   6.584   4.573 -0.2778 -0.9090 -1.2955
   47MOL   H18217754   2.948   6.567   4.492 -1.2487  1.2049 -0.4021
   47MOL   H18317755   3.011   6.626   4.716  1.5759 -0.6848 -0.5791
   47MOL   H18417756   2.861   6.552   4.782  1.5394 -1.9556  1.7367
   47MOL   H18517757   3.118   6.399   4.686  0.5285 -1.4363  1.0581
   47MOL   H18617758   3.082   6.284   4.895  0.3676 -1.0587 -1.3150
   47MOL   H18717759   2.949   6.389   4.938  0.7143  1.6671 -0.2251
   47MOL   H18817760   3.103   6.582   4.927  0.8351  0.2317  1.1489
   47MOL   H18917761   3.233   6.473   4.883  1.8256 -0.8406  2.1403
   47MOL   H19017762   2.869   6.260   4.750 -0.0698 -0.4221 -0.6744
   47MOL   H19117763   2.996   6.212   4.657 -1.3987  0.1767 -1.9514
   47MOL   C19217764   3.181   6.468   5.095 -0.4893  0.1554  0.3947
   47MOL   C19317765   3.053   6.511   5.177 -0.7035 -0.7595  0.0492
   47MOL   C19417766   3.099   6.539   5.316 -0.0379  0.2395  0.0165
   47MOL   C19517767   3.227   6.618   5.276 -0.0898  0.4896 -0.7614
   47MOL   C19617768   3.326   6.637   5.389 -0.3288  0.2410 -0.3667
   47MOL   C19717769   3.425   6.763   5.374 -0.6138 -0.0348 -0.4121
   47MOL   C19817770   3.294   6.550   5.151 -0.4051 -0.7165  0.1062
   47MOL   H19917771   3.221   6.370   5.121  0.5709 -0.3788 -2.9293
   47MOL   H20017772   3.003   6.595   5.130 -1.9007 -1.4222  0.1225
   47MOL   H20117773   2.978   6.431   5.179  0.7249 -2.1586 -0.9526
   47MOL   H20217774   3.119   6.452   5.378 -0.4595  0.7255  0.8328
   47MOL   H20317775   3.025   6.594   5.374  0.9755 -0.3535  1.8939
   47MOL   H20417776   3.202   6.722   5.253 -2.6432  0.1237  0.1863
   47MOL   H20517777   3.377   6.544   5.409 -0.7253  0.3993  1.4834
   47MOL   H20617778   3.259   6.657   5.473 -0.0167  0.5865 -0.1983
   47MOL   H20717779   3.374   6.852   5.339  2.8257  0.9065 -3.2738
   47MOL   H20817780   3.494   6.733   5.296 -1.8024  0.9155 -1.8437
   47MOL   H20917781   3.381   6.488   5.174 -0.1843  0.2429  1.9653
   47MOL   H21017782   3.335   6.631   5.092 -0.5989  0.5815  1.7074
   47MOL   C21117783   3.506   6.794   5.499  0.3268 -0.1759 -0.1533
   47MOL   C21217784   3.415   6.852   5.615  0.0078  0.0175 -0.5189
   47MOL   C21317785   3.517   6.949   5.689  0.4453 -0.2312  0.3950
   47MOL   C21417786   3.648   6.949   5.617 -0.0829 -0.3164  0.3147
   47MOL   C21517787   3.725   7.080   5.617 -0.5815 -0.1954  1.2496
   47MOL   C21617788   3.777   7.119   5.752  0.3055 -0.1379 -0.7271
   47MOL   C21717789   3.607   6.908   5.474  0.0496  0.2495  0.2263
   47MOL   H21817790   3.551   6.701   5.534 -1.0039 -0.3146  1.2124
   47MOL   H21917791   3.329   6.904   5.573 -1.7000 -1.9062  0.4581
   47MOL   H22017792   3.373   6.775   5.680  0.4023  1.0095  0.9271
   47MOL   H22117793   3.464   7.044   5.679  1.8788  0.5592  0.2303
   47MOL   H22217794   3.535   6.936   5.796 -0.5704 -0.0687  0.5956
   47MOL   H22317795   3.717   6.873   5.655 -0.0862 -0.2783  0.3977
   47MOL   H22417796   3.660   7.153   5.569 -1.4154 -2.6087 -1.4176
   47MOL   H22517797   3.808   7.065   5.548 -0.0099 -1.1034  2.1157
   47MOL   H22617798   3.695   7.120   5.825  2.0787  1.3896  1.3345
   47MOL   H22717799   3.834   7.031   5.781  0.0519 -0.5357 -1.4292
   47MOL   H22817800   3.690   6.876   5.412 -0.1194 -1.2111  0.7168
   47MOL   H22917801   3.549   6.990   5.433  0.5775 -0.3214 -1.6778
   47MOL   C23017802   3.880   7.239   5.747  0.3773 -0.0960 -0.0807
   47MOL   C23117803   3.955   7.265   5.882  0.3540 -0.2658  0.1852
   47MOL   C23217804   3.976   7.416   5.884  0.0441  0.4244 -0.6002
   47MOL   C23317805   3.904   7.485   5.768  0.2100 -0.3033 -0.1535
   47MOL   C23417806   4.000   7.545   5.667  0.0530 -0.1269 -0.1185
   47MOL   C23517807   3.929   7.612   5.551 -0.1523 -0.1013  0.3768
   47MOL   C23617808   3.816   7.374   5.715  0.4867  0.2138  0.1580
   47MOL   H23717809   3.956   7.231   5.670 -1.0055  2.2962 -1.7592
   47MOL   H23817810   3.913   7.226   5.975  2.7596 -1.1014  0.9820
   47MOL   H23917811   4.055   7.222   5.869  0.0422 -0.5159 -1.4528
   47MOL   H24017812   4.082   7.440   5.882  0.3210 -0.3910  1.9219
   47MOL   H24117813   3.950   7.441   5.987 -0.4068  0.5588 -0.7437
   47MOL   H24217814   3.840   7.569   5.798  0.8695  0.1133  0.0842
   47MOL   H24317815   4.072   7.474   5.629 -0.0181 -0.9266  1.1903
   47MOL   H24417816   4.058   7.621   5.719 -0.0940  1.0826 -1.6955
   47MOL   H24517817   3.894   7.537   5.481  0.9481 -1.5200  1.3007
   47MOL   H24617818   3.844   0.029   5.574  0.7459  1.1692  0.2316
   47MOL   H24717819   3.778   7.387   5.613  1.5822 -0.6731 -0.3718
   47MOL   H24817820   3.725   7.383   5.775 -1.6844  0.9537 -3.0942
   47MOL   C24917821   4.031   0.061   5.472 -0.4949 -0.4501 -0.6216
   47MOL   C25017822   4.140   7.636   5.394  0.0031 -0.1407  0.3923
   47MOL   C25117823   4.180   0.092   5.284  0.6907  0.2427  0.4778
   47MOL   C25217824   4.073   0.197   5.267 -0.4337  0.3238 -1.2454
   47MOL   C25317825   4.136   0.336   5.287  0.8324  0.0683  0.5544
   47MOL   C25417826   4.027   0.441   5.259 -0.3724 -0.2503  0.2384
   47MOL   C25517827   3.965   0.156   5.370  0.1984  1.0211  0.8018
   47MOL   H25617828   4.073   0.120   5.553  0.1839 -2.7924  0.7903
   47MOL   H25717829   4.230   7.620   5.453  0.4351  0.0205 -0.2259
   47MOL   H25817830   4.108   7.536   5.365  1.0096 -0.9520  1.9967
   47MOL   H25917831   4.177   0.032   5.193 -3.3491  0.7791  0.1518
   47MOL   H26017832   4.278   0.138   5.285  0.8748 -0.1504  1.0908
   47MOL   H26117833   4.033   0.187   5.166 -1.2107  1.1215 -1.0210
   47MOL   H26217834   4.217   0.341   5.214 -1.6458 -4.5999 -2.7711
   47MOL   H26317835   4.176   0.344   5.388 -1.7886 -0.5472  1.6818
   47MOL   H26417836   3.933   0.418   5.310 -0.8079 -2.5777 -1.5330
   47MOL   H26517837   3.996   0.439   5.155 -1.6252 -2.7957  0.6264
   47MOL   H26617838   3.878   0.099   5.337  0.7505 -0.2989  1.5707
   47MOL   H26717839   3.931   0.242   5.427 -0.0727  2.4901 -1.5296
   47MOL   C26817840   4.071   0.587   5.315 -0.8417  0.4860  0.2274
   47MOL   C26917841   3.977   0.707   5.303 -0.1819  0.3485  0.0057
   47MOL   C27017842   4.060   0.834   5.264  0.0367  0.2613  0.5128
   47MOL   C27117843   4.205   0.784   5.273 -0.0613  0.4345  0.1124
   47MOL   C27217844   4.299   0.859   5.169  0.1462  0.3338  0.1940
   47MOL   C27317845   4.450   0.809   5.163 -0.1675  0.3387  0.1061
   47MOL   C27417846   4.204   0.634   5.252 -0.2859  0.8989  0.0057
   47MOL   H27517847   4.079   0.565   5.422  1.4285  1.4149  0.2563
   47MOL   H27617848   3.898   0.686   5.230  1.2659  0.3543 -1.5755
   47MOL   H27717849   3.921   0.719   5.396  1.0086 -2.5391  1.1550
   47MOL   H27817850   4.031   0.875   5.168 -1.5974  1.2550  1.3976
   47MOL   H27917851   4.051   0.916   5.336  0.9813  0.1363  0.7778
   47MOL   H28017852   4.235   0.797   5.377 -3.2911  0.4630  1.0777
   47MOL   H28117853   4.295   0.964   5.197  0.0713  0.2462  0.5083
   47MOL   H28217854   4.246   0.851   5.074 -2.6413  2.6936  1.4831
   47MOL   H28317855   4.507   0.850   5.246 -0.6315  0.9962  0.1057
   47MOL   H28417856   4.464   0.703   5.183 -1.0450  0.2081  0.0310
   47MOL   H28517857   4.217   0.616   5.145  0.5811  3.7802 -0.4208
   47MOL   H28617858   4.290   0.585   5.297 -0.4607  1.5187  1.0257
   47MOL   C28717859   4.507   0.837   5.022  0.1039 -0.6610  0.1916
   47MOL   C28817860   4.532   0.991   4.998 -0.2722 -0.6875 -0.2876
   47MOL   C28917861   4.667   0.992   4.927 -0.3282 -0.5428  0.5213
   47MOL   C29017862   4.709   0.846   4.891 -0.3032  0.5505 -0.2898
   47MOL   C29117863   4.863   0.812   4.888 -0.1592  0.2324 -0.4769
   47MOL   C29217864   4.924   0.880   4.767  0.2116 -0.3369 -0.0788
   47MOL   C29317865   4.633   0.753   4.985 -0.5014 -0.5484 -0.3461
   47MOL   H29417866   4.431   0.801   4.953 -1.4972 -1.2892  2.2562
   47MOL   H29517867   4.450   1.031   4.939  0.9725 -0.7165 -2.0685
   47MOL   H29617868   4.547   1.048   5.090  1.7173 -1.4980 -0.0919
   47MOL   H29717869   4.746   1.024   4.995  0.6437  0.9995 -1.2918
   47MOL   H29817870   4.678   1.066   4.848 -0.7683  0.1049  1.0596
   47MOL   H29917871   4.675   0.819   4.791 -1.0589 -0.1496  0.1439
   47MOL   H30017872   4.868   0.703   4.877 -0.9458  0.0778  0.6013
   47MOL   H30117873   4.910   0.846   4.980 -0.9313 -0.9234  0.3666
   47MOL   H30217874   4.897   0.986   4.759  0.2596 -0.4142 -1.3444
   47MOL   H30317875   4.888   0.834   4.675  0.3700  2.5991 -1.6651
   47MOL   H30417876   4.697   0.739   5.072 -0.5359 -0.6559 -0.3380
   47MOL   H30517877   4.598   0.661   4.938  0.3712 -1.0485 -0.0208
   47MOL   C30617878   5.078   0.878   4.771  0.4582  0.5559 -0.5607
   47MOL   C30717879   5.150   0.874   4.642 -0.2271 -0.0707  0.3227
   47MOL   C30817880   5.286   0.945   4.650  0.1655  0.7131 -0.2793
   47MOL   C30917881   5.291   0.993   4.799 -0.0608 -0.0693  0.6039
   47MOL   C31017882   5.340   1.132   4.806  0.0295  0.1939 -0.5457
   47MOL   C31117883   5.487   1.135   4.787 -0.2808  0.8687 -0.2808
   47MOL   C31217884   5.144   0.985   4.855 -0.2395 -0.2024 -0.0892
   47MOL   H31317885   5.097   0.781   4.817 -1.8275  0.5635  0.4302
   47MOL   H31417886   5.165   0.771   4.609  0.7808  0.0529  0.3787
   47MOL   H31517887   5.101   0.920   4.556  2.2509 -1.8296 -2.1289
   47MOL   H31617888   5.374   0.883   4.635 -0.8511 -0.6678 -0.6143
   47MOL   H31717889   5.298   1.023   4.575  2.6924  2.7198  2.0926
   47MOL   H31817890   5.343   0.920   4.860 -0.8340  0.5723  2.0570
   47MOL   H31917891   5.277   1.197   4.746 -2.2052 -0.5838  0.8538
   47MOL   H32017892   5.319   1.167   4.907 -0.3442 -3.9821  0.9484
   47MOL   H32117893   5.515   1.089   4.692  0.9141  0.0650  0.4527
   47MOL   H32217894   5.518   1.073   4.870 -1.3879 -1.2663 -1.4310
   47MOL   H32317895   5.086   1.077   4.860  1.3925  0.7951  1.2611
   47MOL   H32417896   5.154   0.945   4.955 -1.8287 -0.6195 -0.0950
   47MOL   C32517897   5.554   1.275   4.805 -0.1292  0.1071  0.4312
   47MOL   C32617898   5.554   1.335   4.943 -0.0831  0.0989 -0.2667
   47MOL   C32717899   5.653   1.452   4.943  0.5498  0.0242 -0.1145
   47MOL   C32817900   5.754   1.417   4.829  0.5742 -0.7268  1.4210
   47MOL   C32917901   5.782   1.536   4.734  0.0008  0.4215  0.2653
   47MOL   C33017902   5.863   1.654   4.807 -0.1326 -0.1490 -0.8594
   47MOL   C33117903   5.698   1.288   4.758 -0.7766 -0.4103 -0.6226
   47MOL   H33217904   5.493   1.341   4.743 -1.0272 -1.1125 -0.0151
   47MOL   H33317905   5.552   1.262   5.024 -1.8993 -1.6139 -1.7840
   47MOL   H33417906   5.453   1.374   4.958  0.5263  1.1712  1.1283
   47MOL   H33517907   5.600   1.545   4.923 -1.4455 -1.3514 -1.4493
   47MOL   H33617908   5.705   1.461   5.038 -0.0711 -0.5587  0.2809
   47MOL   H33717909   5.850   1.387   4.872  0.8465  1.3070  2.3013
   47MOL   H33817910   5.845   1.498   4.654 -0.4692  0.2929 -0.0440
   47MOL   H33917911   5.687   1.572   4.695 -1.1749  0.0198  2.6250
   47MOL   H34017912   5.798   1.710   4.875  0.9871 -0.2231  0.3098
   47MOL   H34117913   5.928   1.613   4.885 -1.7649  0.3476  0.8152
   47MOL   H34217914   5.751   1.198   4.788  2.3151  1.4306 -0.2922
   47MOL   H34317915   5.707   1.292   4.650  1.3342 -2.0487 -0.5331
   47MOL   C34417916   5.948   1.749   4.717  0.6717  0.1757 -0.0126
   47MOL   C34517917   6.013   1.871   4.784  0.5494  0.4513 -0.7983
   47MOL   C34617918   6.070   1.959   4.673  0.3772 -0.5980  0.5884
   47MOL   C34717919   5.965   1.940   4.560 -0.2238  0.7923 -0.2546
   47MOL   C34817920   6.037   1.943   4.425  0.3873  0.9494 -0.7571
   47MOL   C34917921   6.126   1.817   4.401 -0.2509 -0.1134 -0.3613
   47MOL   C35017922   5.877   1.808   4.591  0.3056  0.5194 -0.8529
   47MOL   H35117923   6.035   1.694   4.682  1.2783  0.7327  0.6164
   47MOL   H35217924   6.099   1.835   4.841 -0.0560  0.0989 -0.0868
   47MOL   H35317925   5.943   1.918   4.853  0.5518  1.5241 -1.5123
   47MOL   H35417926   6.065   2.065   4.699  0.1083 -0.7966  1.3441
   47MOL   H35517927   6.171   1.931   4.643  0.1050  1.0482 -2.1434
   47MOL   H35617928   5.887   2.017   4.558 -0.1632  0.9288  1.4393
   47MOL   H35717929   5.960   1.934   4.348  0.6248 -0.2081 -0.8757
   47MOL   H35817930   6.100   2.029   4.406  0.1136  1.8532  2.2755
   47MOL   H35917931   6.072   1.728   4.433 -1.3025  0.7840  0.3923
   47MOL   H36017932   6.217   1.823   4.461 -0.0877 -0.0224 -0.6179
   47MOL   H36117933   5.780   1.844   4.627  0.1945 -0.0326 -0.5942
   47MOL   H36217934   5.868   1.737   4.508  2.1863  0.0081 -0.6302
   47MOL   C36317935   6.178   1.812   4.258  0.4783  0.1914  0.2433
   47MOL   C36417936   6.288   1.706   4.251  0.1070 -0.4527  0.0601
   47MOL   C36517937   6.370   1.750   4.125 -0.0189  0.1497  0.3426
   47MOL   C36617938   6.304   1.878   4.076  0.4034  0.0233  0.4362
   47MOL   C36717939   6.391   1.974   3.994 -0.2022 -0.1787 -0.6298
   47MOL   C36817940   6.428   1.901   3.864 -0.8843 -0.2748 -0.1500
   47MOL   C36917941   6.245   1.936   4.206 -0.4410 -0.2755  0.2306
   47MOL   H37017942   6.086   1.784   4.206  0.8612  1.3579 -1.0841
   47MOL   H37117943   6.347   1.701   4.343  0.7603  0.2811 -0.3159
   47MOL   H37217944   6.249   1.606   4.230  0.9536 -1.6292  3.7283
   47MOL   H37317945   6.468   1.762   4.172  0.2405 -2.4872  0.5360
   47MOL   H37417946   6.373   1.672   4.049  2.8646 -0.5861  1.1353
   47MOL   H37517947   6.218   1.843   4.019 -0.4746 -1.0901  2.3945
   47MOL   H37617948   6.336   2.067   3.981 -1.1619 -0.9999 -2.6873
   47MOL   H37717949   6.483   2.000   4.048 -1.0213  1.1889  0.1364
   47MOL   H37817950   6.480   1.805   3.876 -0.2370  0.3446  2.1386
   47MOL   H37917951   6.505   1.952   3.806 -1.8318 -0.1237 -1.2843
   47MOL   H38017952   6.327   1.980   4.263  0.6285 -3.0311  0.9303
   47MOL   H38117953   6.185   2.022   4.176 -0.1608 -0.7660 -1.8537
   47MOL   H38217954   6.340   1.891   3.800 -2.4865  0.5702  1.8877
   48MOL     C117955   7.193   5.844   2.958  0.9053 -0.1773 -0.0671
   48MOL     C217956   7.240   5.738   2.857 -0.0684 -0.6344  0.9781
   48MOL     C317957   7.371   5.689   2.931  0.5183 -0.1812  0.5326
   48MOL     C417958   7.359   5.715   3.082 -0.4132 -0.1483 -0.0234
   48MOL     C517959   7.473   5.797   3.140 -0.2665 -0.7142 -0.0125
   48MOL     C617960   7.613   5.733   3.117  0.0262  0.6408 -0.4376
   48MOL     C717961   7.218   5.773   3.092 -0.2741 -0.1254  0.4230
   48MOL     H817962   7.251   5.936   2.945 -0.9050  1.2076  1.3218
   48MOL     H917963   7.269   5.791   2.767 -0.9345 -0.7086  0.6472
   48MOL    H1017964   7.162   5.663   2.839 -1.0295  0.9248 -1.6711
   48MOL    H1117965   7.393   5.583   2.917  0.8088 -0.2829  1.7357
   48MOL    H1217966   7.454   5.748   2.894  1.0092 -0.2187  1.5447
   48MOL    H1317967   7.357   5.617   3.130 -0.1271  0.2831  0.8903
   48MOL    H1417968   7.459   5.895   3.095 -4.6589 -1.3189 -0.2189
   48MOL    H1517969   7.459   5.821   3.246 -1.8975 -1.8793  0.0634
   48MOL    H1617970   7.615   5.627   3.142 -0.7175  0.5743 -0.6422
   48MOL    H1717971   7.633   5.740   3.010 -0.1384 -1.2755 -0.6254
   48MOL    H1817972   7.140   5.696   3.093 -0.9188  0.5419  1.3138
   48MOL    H1917973   7.209   5.836   3.180 -1.6227 -0.7635  0.7625
   48MOL    H2017974   7.087   5.867   2.952  1.0984  1.8624  3.0309
   48MOL    C2117975   0.075   5.812   3.183  0.3075  0.0046 -0.0057
   48MOL    C2217976   0.076   5.797   3.341  0.1012 -0.0698 -0.5519
   48MOL    C2317977   0.218   5.747   3.375 -0.2059  0.4339  0.5419
   48MOL    C2417978   0.307   5.806   3.266 -0.1064 -0.6254 -0.5159
   48MOL    C2517979   0.444   5.747   3.265  0.1752  0.1682 -0.5209
   48MOL    C2617980   0.543   5.826   3.188 -0.2315 -0.6883  0.1316
   48MOL    C2717981   0.220   5.785   3.139  0.1917 -0.7781 -0.6746
   48MOL    H2817982   0.064   5.918   3.159 -0.8135  0.0737  0.7857
   48MOL    H2917983   0.050   5.894   3.384 -0.1230 -0.6440  0.6290
   48MOL    H3017984   7.645   5.734   3.384  0.6398  0.2043  0.8370
   48MOL    H3117985   0.252   5.784   3.472  0.5944  0.3634  0.2917
   48MOL    H3217986   0.217   5.638   3.371  1.1322  0.4813 -2.8134
   48MOL    H3317987   0.320   5.912   3.289 -1.9235 -0.7056  1.0851
   48MOL    H3417988   0.438   5.641   3.239  0.1919 -0.3032  1.3779
   48MOL    H3517989   0.482   5.755   3.366 -1.3897  0.8971  0.0252
   48MOL    H3617990   0.546   5.929   3.225  0.5417 -1.0528  1.0741
   48MOL    H3717991   0.498   5.839   3.089  0.3570  0.6949  0.0260
   48MOL    H3817992   0.258   5.838   3.052  1.8491 -1.2720 -0.2746
   48MOL    H3917993   0.227   5.679   3.112 -0.1657 -0.7359 -0.9339
   48MOL    C4017994   0.683   5.756   3.177 -0.8067  0.3255 -0.3902
   48MOL    C4117995   0.689   5.640   3.074 -0.1481 -0.1165 -0.1935
   48MOL    C4217996   0.773   5.694   2.949  0.3655 -0.5323 -0.5562
   48MOL    C4317997   0.780   5.848   2.968 -0.0851  0.7303 -0.2791
   48MOL    C4417998   0.899   5.905   2.888  0.5788  0.5141  0.0227
   48MOL    C4517999   0.902   5.860   2.737 -0.0335 -0.7299  0.4263
   48MOL    C4618000   0.776   5.867   3.117  0.5930  1.0468 -0.2484
   48MOL    H4718001   0.718   5.715   3.271 -0.0810 -0.6265 -1.0661
   48MOL    H4818002   0.586   5.623   3.044 -0.0374  1.5732 -1.6120
   48MOL    H4918003   0.736   5.553   3.120 -2.2791 -1.5780 -0.7441
   48MOL    H5018004   0.869   5.642   2.955  0.2770 -0.8291 -1.6428
   48MOL    H5118005   0.731   5.675   2.850 -1.1207  0.2878 -0.0850
   48MOL    H5218006   0.686   5.884   2.926 -1.8923 -1.8308  1.4754
   48MOL    H5318007   0.902   6.014   2.882  1.1953  0.6249  2.0793
   48MOL    H5418008   0.991   5.872   2.935  0.3535  0.9969  0.8115
   48MOL    H5518009   0.806   5.890   2.694 -0.2974  0.1808  1.6236
   48MOL    H5618010   0.920   5.753   2.732  1.8289 -0.4342  0.5120
   48MOL    H5718011   0.878   5.848   3.150  1.2470  3.7364 -0.5684
   48MOL    H5818012   0.745   5.969   3.144 -0.8051  0.4608  0.4162
   48MOL    C5918013   1.018   5.918   2.653 -0.2793 -0.1942 -0.0703
   48MOL    C6018014   1.168   5.901   2.706 -0.0037  0.4164 -0.0950
   48MOL    C6118015   1.249   5.937   2.583 -0.0134 -0.4598  0.6635
   48MOL    C6218016   1.164   5.903   2.455 -0.1132 -0.3740 -0.7051
   48MOL    C6318017   1.172   6.017   2.351  0.5568 -0.3819  1.1131
   48MOL    C6418018   1.133   5.983   2.206  0.2397 -0.5523  0.2959
   48MOL    C6518019   1.017   5.869   2.508  0.6710 -0.3165  0.9740
   48MOL    H6618020   0.996   6.024   2.639 -0.1706  0.1518  2.1653
   48MOL    H6718021   1.183   5.965   2.793  0.3662 -0.6414  0.6236
   48MOL    H6818022   1.177   5.796   2.732  0.9820  0.0628 -1.7693
   48MOL    H6918023   1.272   6.043   2.593  0.0082 -0.4438  0.4478
   48MOL    H7018024   1.349   5.891   2.586 -0.3251 -1.1036  1.6188
   48MOL    H7118025   1.196   5.805   2.420 -1.3352 -0.2321 -2.2786
   48MOL    H7218026   1.279   6.038   2.356  0.7763 -1.4476  1.0715
   48MOL    H7318027   1.115   6.105   2.381 -0.7784  0.0890 -2.6170
   48MOL    H7418028   1.170   6.071   2.153 -1.4209  0.8923  1.4613
   48MOL    H7518029   1.171   5.887   2.172  0.5439 -1.0398  1.9798
   48MOL    H7618030   0.939   5.908   2.442  1.7558  1.6969  0.8290
   48MOL    H7718031   1.011   5.760   2.504 -0.0094 -0.2408 -0.2499
   48MOL    C7818032   0.984   5.974   2.180 -0.2456 -0.6400  0.1292
   48MOL    C7918033   0.894   6.077   2.240 -0.0122 -1.1844 -0.1756
   48MOL    C8018034   0.762   6.051   2.176 -0.0584  0.1836  0.0529
   48MOL    C8118035   0.796   5.996   2.038  0.2860 -0.0036 -0.0302
   48MOL    C8218036   0.733   6.064   1.915 -0.6935  0.3948  0.2031
   48MOL    C8318037   0.578   6.062   1.908  0.5340 -0.1791  0.0065
   48MOL    C8418038   0.948   5.984   2.031 -0.3961 -0.6489  0.2220
   48MOL    H8518039   0.948   5.877   2.216  3.2580 -1.3416  1.8758
   48MOL    H8618040   0.888   6.077   2.348  0.7576  0.4087 -0.1247
   48MOL    H8718041   0.934   6.172   2.206 -1.0968 -0.3213  0.9451
   48MOL    H8818042   0.698   5.982   2.231 -2.3372  2.0952 -0.0753
   48MOL    H8918043   0.709   6.146   2.166  1.0880  0.6463 -1.8892
   48MOL    H9018044   0.753   5.896   2.035  4.0667 -1.6878 -0.9833
   48MOL    H9118045   0.767   6.002   1.831  0.4062  1.2032  0.0523
   48MOL    H9218046   0.769   6.165   1.897  0.9049 -0.1019  0.5586
   48MOL    H9318047   0.529   6.095   1.999 -0.6026  0.2089 -0.7461
   48MOL    H9418048   0.532   5.967   1.880 -1.5815  0.8368  0.0183
   48MOL    H9518049   0.988   6.069   1.977 -0.6809 -1.5499 -1.4260
   48MOL    H9618050   0.971   5.887   1.988  0.7854 -0.1840 -0.1967
   48MOL    C9718051   0.536   6.146   1.785 -0.6597  0.1986  0.5771
   48MOL    C9818052   0.577   6.293   1.794  0.5638  0.1194  0.4912
   48MOL    C9918053   0.464   6.374   1.730 -0.2321 -0.2115  0.0425
   48MOL   C10018054   0.343   6.280   1.704  0.7361 -0.0402  0.1161
   48MOL   C10118055   0.199   6.337   1.730 -0.0146 -0.8689 -0.3294
   48MOL   C10218056   0.184   6.473   1.662 -0.1611  0.1729  0.2798
   48MOL   C10318057   0.381   6.154   1.781  0.1044  0.0930 -0.5267
   48MOL   H10418058   0.578   6.123   1.687 -1.6485  0.0185  0.1928
   48MOL   H10518059   0.585   6.321   1.900  2.1395  0.5563  0.2749
   48MOL   H10618060   0.676   6.307   1.751  0.4976 -0.9491 -0.0352
   48MOL   H10718061   0.432   6.445   1.806  1.3732 -0.6917  1.1876
   48MOL   H10818062   0.509   6.418   1.641  0.5448  0.6360  0.8518
   48MOL   H10918063   0.346   6.257   1.598  2.1593  0.1506  0.1009
   48MOL   H11018064   0.125   6.261   1.706  0.2079 -0.8929 -0.9640
   48MOL   H11118065   0.192   6.345   1.838  2.6575 -0.4238 -0.1389
   48MOL   H11218066   0.232   6.545   1.727  0.8120 -0.7553  0.6006
   48MOL   H11318067   0.247   6.472   1.573  0.7303 -1.4744  0.9100
   48MOL   H11418068   0.346   6.177   1.882  1.4271 -1.1894  0.2459
   48MOL   H11518069   0.329   6.062   1.756 -0.4599  0.2081  0.1879
   48MOL   C11618070   0.045   6.517   1.635 -0.3410  0.6460 -0.7076
   48MOL   C11718071   0.013   6.649   1.565  0.4939 -0.2211  0.2636
   48MOL   C11818072   7.589   6.615   1.439  0.1722 -0.1275  0.9507
   48MOL   C11918073   7.512   6.484   1.467 -0.3688  0.1135 -0.1132
   48MOL   C12018074   7.449   6.414   1.351  1.0126 -0.1097 -0.4574
   48MOL   C12118075   7.330   6.503   1.305  0.4312  0.1308  0.2299
   48MOL   C12218076   7.613   6.410   1.553 -0.3865 -0.0899 -1.1439
   48MOL   H12318077   7.647   6.520   1.734 -0.8401  2.6338 -0.9601
   48MOL   H12418078   0.104   6.704   1.542  0.1989 -0.0992 -0.6253
   48MOL   H12518079   7.606   6.713   1.635 -2.5178  0.6741 -2.7628
   48MOL   H12618080   0.017   6.607   1.360  0.1675  0.3896  0.8937
   48MOL   H12718081   7.519   6.693   1.410  0.9151  0.4795  0.7704
   48MOL   H12818082   7.433   6.517   1.535  0.8488  0.3735  1.1991
   48MOL   H12918083   7.409   6.318   1.383 -0.6823  0.1842 -1.6336
   48MOL   H13018084   7.512   6.396   1.264  2.0601 -1.2966  0.5303
   48MOL   H13118085   7.369   6.602   1.279  3.8955 -0.0701  4.0840
   48MOL   H13218086   7.270   6.532   1.391 -1.7864  0.2166 -1.3095
   48MOL   H13318087   7.568   6.337   1.621 -0.3886  2.0026  1.2027
   48MOL   H13418088   0.035   6.368   1.480 -0.4102 -1.1698 -0.5594
   48MOL   C13518089   7.252   6.438   1.192  0.0076  0.5597  0.0087
   48MOL   C13618090   7.178   6.309   1.241  0.7190 -0.0647  0.4822
   48MOL   C13718091   7.035   6.329   1.189  0.4930 -0.3643  0.8030
   48MOL   C13818092   7.032   6.435   1.078 -0.1757  0.2467 -0.2533
   48MOL   C13918093   7.059   6.365   0.938  0.1331 -0.1990 -0.7694
   48MOL   C14018094   7.021   6.465   0.827  0.4448 -0.1312  0.2951
   48MOL   C14118095   7.145   6.531   1.125  0.1007 -0.3948  0.5098
   48MOL   H14218096   7.335   6.420   1.123 -1.4222  1.7262 -2.0631
   48MOL   H14318097   7.220   6.218   1.197 -2.1629 -0.6768 -1.1096
   48MOL   H14418098   7.171   6.294   1.349 -1.5601  3.2611  0.8548
   48MOL   H14518099   6.995   6.236   1.151 -2.3061  0.9262  0.4793
   48MOL   H14618100   6.969   6.365   1.268 -0.6866  0.2026 -0.4225
   48MOL   H14718101   6.936   6.487   1.075 -0.7144 -0.6494  0.9825
   48MOL   H14818102   6.990   6.281   0.944 -0.3485  0.3203  1.6664
   48MOL   H14918103   7.160   6.323   0.936 -0.2056 -1.3305  2.4501
   48MOL   H15018104   6.922   6.505   0.853 -0.0693 -0.4006 -1.2116
   48MOL   H15118105   7.088   6.551   0.817  0.9743 -0.5395  0.3495
   48MOL   H15218106   7.108   6.606   1.195 -2.0037 -0.3472 -0.6359
   48MOL   H15318107   7.181   6.588   1.039  3.4771  1.0346  2.7247
   48MOL   C15418108   7.026   6.399   0.689  0.1538 -0.8809  0.7448
   48MOL   C15518109   7.169   6.357   0.644 -0.3813  0.0355 -0.2631
   48MOL   C15618110   7.180   6.395   0.498  0.7333  0.2015 -0.1633
   48MOL   C15718111   7.045   6.433   0.446 -0.0223 -0.3875  0.0603
   48MOL   C15818112   7.051   6.530   0.321  0.5323 -0.3873 -0.7761
   48MOL   C15918113   6.909   6.580   0.264  0.1025  0.0900  0.1087
   48MOL   C16018114   6.984   6.491   0.572 -0.1074 -0.0497 -0.1308
   48MOL   H16118115   6.951   6.320   0.686 -0.5870 -0.2336  1.8224
   48MOL   H16218116   7.238   6.411   0.709  0.6387  0.1720 -1.4510
   48MOL   H16318117   7.174   6.250   0.665 -3.1637  0.3143  2.0956
   48MOL   H16418118   7.258   6.471   0.497  0.7938  0.1817  1.6043
   48MOL   H16518119   7.212   6.313   0.434  0.5803  0.8401 -1.0744
   48MOL   H16618120   6.994   6.341   0.418 -0.3334  0.0635 -0.8698
   48MOL   H16718121   7.093   6.466   0.243  3.4669  0.0835  0.3626
   48MOL   H16818122   7.116   6.617   0.332 -1.3498  0.7843  1.7637
   48MOL   H16918123   6.879   6.516   0.181  3.2618  0.8547 -1.6972
   48MOL   H17018124   6.830   6.567   0.338  0.8016  0.7998  0.9884
   48MOL   H17118125   6.875   6.495   0.563  0.1670  2.3417 -3.2263
   48MOL   H17218126   7.025   6.590   0.592  1.0985 -0.2566 -1.5252
   48MOL   C17318127   6.910   6.724   0.224 -0.3296 -0.0304 -0.1601
   48MOL   C17418128   6.797   6.771   0.135 -0.2048 -0.3999 -0.3672
   48MOL   C17518129   6.808   6.926   0.146 -0.0537  0.0882  0.3121
   48MOL   C17618130   6.881   6.956   0.282 -0.6546  0.0510  0.8650
   48MOL   C17718131   6.801   7.046   0.377  0.1016 -0.7962 -0.5122
   48MOL   C17818132   6.858   7.063   0.519  0.4833 -0.3048  0.4014
   48MOL   C17918133   6.905   6.818   0.341 -0.7623 -0.2545 -0.1598
   48MOL   H18018134   7.003   6.745   0.172 -0.1195  0.8843  0.5845
   48MOL   H18118135   6.698   6.738   0.168 -0.7074 -0.5114 -1.9145
   48MOL   H18218136   6.797   6.739   0.030  1.8888 -1.5340 -0.0542
   48MOL   H18318137   6.874   6.957   0.065  0.1908 -1.7686 -0.2180
   48MOL   H18418138   6.712   6.971   0.119 -1.1835 -1.8737  0.9912
   48MOL   H18518139   6.976   7.003   0.258  0.1614 -2.0713 -0.1624
   48MOL   H18618140   6.704   6.997   0.371 -0.3710 -0.4111  2.9882
   48MOL   H18718141   6.789   7.143   0.329  0.1537 -0.2642  0.5316
   48MOL   H18818142   6.949   7.122   0.516 -0.9467  1.9835  0.7362
   48MOL   H18918143   6.894   6.971   0.566 -1.4893  0.0044  2.6734
   48MOL   H19018144   6.824   6.795   0.411  0.5811  0.7071  1.7233
   48MOL   H19118145   6.989   6.814   0.410 -1.7986 -0.5133  1.1021
   48MOL   C19218146   6.747   7.117   0.610 -0.1809  0.1576  0.3572
   48MOL   C19318147   6.714   7.264   0.582  0.2101  1.1354 -0.4626
   48MOL   C19418148   6.814   7.346   0.672  0.4672  0.4022  0.4586
   48MOL   C19518149   6.842   7.256   0.797 -0.2374  0.0745 -0.1111
   48MOL   C19618150   6.796   7.318   0.934 -0.1749 -0.4810  0.2301
   48MOL   C19718151   6.820   7.230   1.057 -0.7361  0.0460  0.4046
   48MOL   C19818152   6.790   7.112   0.760  0.2297 -1.0582  0.1909
   48MOL   H19918153   6.660   7.052   0.605 -0.7965  1.1499 -2.3701
   48MOL   H20018154   6.713   7.292   0.477  1.2904 -1.5940 -1.2362
   48MOL   H20118155   6.622   7.297   0.629 -0.2762 -1.3588  0.3814
   48MOL   H20218156   6.768   7.444   0.689 -0.3256 -0.4465  3.3922
   48MOL   H20318157   6.908   7.354   0.617  0.2205 -0.4525 -0.0949
   48MOL   H20418158   6.950   7.249   0.793 -0.3298 -2.8370  0.6428
   48MOL   H20518159   6.693   7.349   0.921 -0.3131 -1.5020 -1.3343
   48MOL   H20618160   6.856   7.409   0.938 -1.9212  0.9303 -3.2291
   48MOL   H20718161   6.924   7.203   1.072 -0.8967 -1.0455 -0.4310
   48MOL   H20818162   6.769   7.137   1.031  4.1049 -2.1567 -1.7111
   48MOL   H20918163   6.700   7.087   0.815 -0.0144 -1.7648 -0.5189
   48MOL   H21018164   6.866   7.035   0.767  0.7218 -0.6667 -0.6834
   48MOL   C21118165   6.760   7.287   1.186  0.1504 -0.0872  0.3902
   48MOL   C21218166   6.789   7.196   1.310 -0.4031 -0.5355 -0.6514
   48MOL   C21318167   6.653   7.167   1.367  0.0137 -0.3913  0.4732
   48MOL   C21418168   6.560   7.276   1.319  0.2270 -0.8170 -1.0238
   48MOL   C21518169   6.408   7.237   1.322 -0.4961 -0.1231  0.4274
   48MOL   C21618170   6.308   7.351   1.278  0.0363  0.2062  0.0965
   48MOL   C21718171   6.607   7.293   1.176 -0.5623 -0.1901 -0.3428
   48MOL   H21818172   6.804   7.385   1.204  1.8525 -0.3213 -2.1926
   48MOL   H21918173   6.834   7.108   1.265 -0.4262  0.4018 -2.5760
   48MOL   H22018174   6.855   7.246   1.381 -1.3591 -0.5490  0.2596
   48MOL   H22118175   6.619   7.069   1.332 -0.3576 -0.4844  1.0949
   48MOL   H22218176   6.659   7.164   1.475 -0.2107 -0.3360  0.4878
   48MOL   H22318177   6.584   7.364   1.378 -1.0662 -0.6628 -0.7047
   48MOL   H22418178   6.374   7.192   1.415 -1.6667 -1.4452 -0.6177
   48MOL   H22518179   6.397   7.156   1.250 -1.5864  0.2430  0.1745
   48MOL   H22618180   6.324   7.451   1.319 -0.8272 -0.1259  1.2560
   48MOL   H22718181   6.329   7.362   1.172 -1.5100 -1.8831 -0.4614
   48MOL   H22818182   6.588   7.393   1.136  0.2478 -0.3778 -1.2125
   48MOL   H22918183   6.566   7.212   1.116  0.7756  0.3118 -1.9788
   48MOL   C23018184   6.159   7.308   1.312 -0.1516  0.6534  0.8628
   48MOL   C23118185   6.047   7.391   1.250  0.7053  0.3510 -0.7049
   48MOL   C23218186   5.933   7.321   1.318  0.4566 -0.0470 -0.2367
   48MOL   C23318187   5.969   7.327   1.468  0.4597  0.1893 -0.4008
   48MOL   C23418188   5.898   7.220   1.551 -0.3735 -0.2000 -0.0232
   48MOL   C23518189   5.941   7.216   1.701 -0.2204 -0.3778  0.1327
   48MOL   C23618190   6.124   7.302   1.463 -0.4198  0.3297  0.3858
   48MOL   H23718191   6.143   7.209   1.271  2.8112  0.1615  0.7874
   48MOL   H23818192   6.057   7.498   1.267 -3.7091  0.6422  0.5718
   48MOL   H23918193   6.057   7.380   1.142  0.4560  2.1345 -0.9283
   48MOL   H24018194   5.931   7.215   1.293 -0.2057 -0.0933 -0.0046
   48MOL   H24118195   5.836   7.363   1.291  0.9800  2.4615  1.6640
   48MOL   H24218196   5.961   7.429   1.505  2.4319 -0.3093  1.5169
   48MOL   H24318197   5.933   7.123   1.514 -0.4302  1.4581 -4.7550
   48MOL   H24418198   5.789   7.228   1.544 -0.3359 -0.2819 -0.8286
   48MOL   H24518199   5.935   7.111   1.730 -0.5612 -0.4350 -0.1385
   48MOL   H24618200   6.046   7.239   1.715 -0.1599 -0.7670  0.3140
   48MOL   H24718201   6.147   7.205   1.506 -4.0389  0.1409  2.0811
   48MOL   H24818202   6.161   7.380   1.530 -0.3703  0.2564  0.4447
   48MOL   C24918203   5.842   7.290   1.797 -1.1586 -0.4453  1.2030
   48MOL   C25018204   5.876   7.259   1.946 -0.0584 -0.0765 -0.4473
   48MOL   C25118205   5.786   7.363   2.015  0.0144 -0.0912  0.2677
   48MOL   C25218206   5.792   7.488   1.927 -0.1264  0.4042  1.0930
   48MOL   C25318207   5.654   7.561   1.919 -0.6832  0.2349 -0.2063
   48MOL   C25418208   5.608   7.609   2.060 -0.0962 -0.1162  0.5561
   48MOL   C25518209   5.839   7.444   1.790  0.0864  0.5455 -0.1760
   48MOL   H25618210   5.742   7.254   1.774 -0.6247 -0.8957 -0.4721
   48MOL   H25718211   5.834   7.163   1.976  0.0866  0.3630  1.1821
   48MOL   H25818212   5.982   7.277   1.964 -0.1697  0.5367 -0.4011
   48MOL   H25918213   5.837   7.390   2.108 -1.0841  0.9484  0.5882
   48MOL   H26018214   5.686   7.322   2.027 -1.0863  2.3183 -0.4600
   48MOL   H26118215   5.866   7.554   1.973  0.1898  0.0377  1.1072
   48MOL   H26218216   5.581   7.487   1.886  1.6578 -0.9131 -2.9740
   48MOL   H26318217   5.657   7.630   1.835  0.0075 -0.0974 -0.4509
   48MOL   H26418218   5.680   0.035   2.097 -0.8226 -0.3468  2.4826
   48MOL   H26518219   5.605   7.520   2.122 -0.6183  0.9032  2.0252
   48MOL   H26618220   5.940   7.476   1.766 -0.0757  2.2844  1.2660
   48MOL   H26718221   5.781   7.486   1.708 -2.4962 -0.6434  0.9891
   48MOL   C26818222   5.468   0.029   2.053 -0.0807  0.1107 -0.4262
   48MOL   C26918223   5.436   0.123   2.177  0.1786  0.6929 -0.1818
   48MOL   C27018224   5.305   0.067   2.241  0.0578 -0.6267  0.0744
   48MOL   C27118225   5.231   0.007   2.121 -0.1785  0.2655  0.1805
   48MOL   C27218226   5.113   7.565   2.171  0.2487 -0.1942 -0.0547
   48MOL   C27318227   5.052   7.491   2.055 -0.0904  0.3937 -0.0990
   48MOL   C27418228   5.350   7.581   2.042  0.1129 -0.7437  0.7904
   48MOL   H27518229   5.460   0.094   1.967  2.9985  1.3022  0.1211
   48MOL   H27618230   5.514   0.120   2.253  0.4160  0.7044 -0.4263
   48MOL   H27718231   5.413   0.225   2.148 -1.2979  0.4392  0.0419
   48MOL   H27818232   5.317   7.639   2.319 -1.7121 -0.5166  0.4792
   48MOL   H27918233   5.255   0.153   2.286  2.2898 -0.6167  2.6825
   48MOL   H28018234   5.207   0.089   2.054  0.1504 -0.4760 -0.8708
   48MOL   H28118235   5.037   7.618   2.229  1.2370  0.3106  0.7896
   48MOL   H28218236   5.153   7.487   2.236 -0.0668  0.4786  0.9528
   48MOL   H28318237   4.977   7.566   2.029 -0.1174  0.0552 -1.0189
   48MOL   H28418238   5.109   7.458   1.969 -0.0794  1.5752 -0.5624
   48MOL   H28518239   5.355   7.476   2.073  0.3668 -0.6493  1.0620
   48MOL   H28618240   5.325   7.571   1.936  1.0377 -1.0003  0.5853
   48MOL   C28718241   4.972   7.365   2.102  0.3340  0.2732  0.7430
   48MOL   C28818242   4.909   7.290   1.983 -0.1736 -0.2964 -0.6127
   48MOL   C28918243   4.929   7.140   2.018  0.3391  0.2063  0.5147
   48MOL   C29018244   4.989   7.130   2.160 -0.1750 -0.8809  0.0990
   48MOL   C29118245   5.086   7.014   2.189  0.3073 -0.1795  0.6163
   48MOL   C29218246   5.006   6.883   2.233  0.2688 -0.7411 -0.1699
   48MOL   C29318247   5.068   7.263   2.161 -0.5343 -0.5597  0.1258
   48MOL   H29418248   4.909   7.389   2.188  0.2481  0.1322  0.7195
   48MOL   H29518249   4.805   7.322   1.972 -0.2680 -0.6307 -0.6720
   48MOL   H29618250   4.960   7.312   1.889  0.6990  0.9120  0.1375
   48MOL   H29718251   4.991   7.094   1.940  0.6339  0.8475  0.3713
   48MOL   H29818252   4.831   7.094   2.029  0.1833  0.1921 -0.9190
   48MOL   H29918253   4.914   7.149   2.236 -2.2357  1.4449 -2.3890
   48MOL   H30018254   5.142   7.037   2.279  1.2071  2.8442 -0.6512
   48MOL   H30118255   5.155   6.995   2.107  1.0947  0.5280  1.1119
   48MOL   H30218256   4.961   6.834   2.147 -1.3597 -1.3858  1.0235
   48MOL   H30318257   4.926   6.906   2.303 -0.7886 -0.6325 -1.3935
   48MOL   H30418258   5.157   7.260   2.099  0.3864  2.6717  1.1482
   48MOL   H30518259   5.098   7.282   2.264  0.4334  1.9700 -0.5874
   48MOL   C30618260   5.099   6.785   2.304 -0.4655 -0.2882  0.1147
   48MOL   C30718261   5.038   6.657   2.368 -0.0219  0.0332 -0.0784
   48MOL   C30818262   5.134   6.543   2.341 -0.3788  0.2213 -0.0518
   48MOL   C30918263   5.262   6.615   2.301 -0.6073  0.0568 -0.4968
   48MOL   C31018264   5.362   6.517   2.234 -0.2187  0.1171 -0.1278
   48MOL   C31118265   5.484   6.586   2.169  0.4613  0.4429  0.2304
   48MOL   C31218266   5.210   6.731   2.216  0.1125  0.2491 -0.3241
   48MOL   H31318267   5.143   6.839   2.387 -2.3990 -1.6610  2.0904
   48MOL   H31418268   5.033   6.682   2.474 -0.3537 -0.0965 -0.0642
   48MOL   H31518269   4.940   6.637   2.325  0.1373 -1.9390  0.4045
   48MOL   H31618270   5.170   6.489   2.428 -1.2604 -1.2495 -0.5882
   48MOL   H31718271   5.106   6.478   2.259  3.5509 -1.2640 -0.2932
   48MOL   H31818272   5.317   6.659   2.385 -0.6766 -1.0971  0.1627
   48MOL   H31918273   5.400   6.443   2.304  0.6360 -0.1681 -0.8836
   48MOL   H32018274   5.310   6.468   2.152 -0.0002  0.8743 -0.7196
   48MOL   H32118275   5.534   6.633   2.253 -0.1677 -0.7214  1.2569
   48MOL   H32218276   5.443   6.671   2.114  1.9819  1.6387  0.9312
   48MOL   H32318277   5.167   6.690   2.125  0.4481  0.0664 -0.3994
   48MOL   H32418278   5.293   6.799   2.196 -0.4458  1.3057  0.8683
   48MOL   C32518279   5.582   6.494   2.088  0.8698  0.3361  0.1084
   48MOL   C32618280   5.669   6.421   2.194 -0.7283 -0.1517  0.3272
   48MOL   C32718281   5.676   6.282   2.142  0.2259  0.2703  0.7821
   48MOL   C32818282   5.542   6.250   2.066 -0.3001 -0.1744  0.7228
   48MOL   C32918283   5.552   6.130   1.971  0.1386 -0.0086  0.4758
   48MOL   C33018284   5.418   6.109   1.898 -0.5316  0.1873 -0.5179
   48MOL   C33118285   5.520   6.378   1.995  0.1032  0.5608 -0.2278
   48MOL   H33218286   5.649   6.558   2.030 -1.2777  1.7858 -0.8521
   48MOL   H33318287   5.608   6.411   2.284 -1.2591  0.7609  0.0750
   48MOL   H33418288   5.762   6.467   2.229 -0.8102  0.3518 -0.1127
   48MOL   H33518289   5.763   6.261   2.079 -0.3152 -1.9470  0.7386
   48MOL   H33618290   5.694   6.214   2.226 -2.4212  1.2618  2.1926
   48MOL   H33718291   5.464   6.232   2.140  1.0481  1.1734  2.5008
   48MOL   H33818292   5.628   6.133   1.894 -0.2351  0.2816  0.1145
   48MOL   H33918293   5.579   6.043   2.031 -0.8651 -0.5119  0.2077
   48MOL   H34018294   5.341   6.068   1.963 -0.4206  1.0195  0.1466
   48MOL   H34118295   5.384   6.199   1.847 -0.1044  1.5229  1.4884
   48MOL   H34218296   5.414   6.393   1.975 -0.1490  1.5214  1.6687
   48MOL   H34318297   5.566   6.370   1.896  2.8958 -0.2114  1.0686
   48MOL   C34418298   5.418   5.988   1.790  0.1723  0.6752  0.4181
   48MOL   C34518299   5.282   5.908   1.767  0.2227 -0.7097  0.1641
   48MOL   C34618300   5.321   5.763   1.726  0.2696 -0.2772  0.1605
   48MOL   C34718301   5.469   5.749   1.754  0.0814  0.1801 -0.1533
   48MOL   C34818302   5.555   5.732   1.624  0.2764 -0.4767  0.3021
   48MOL   C34918303   5.690   5.657   1.653  0.9378  0.7343 -0.2604
   48MOL   C35018304   5.510   5.878   1.828  0.2398 -0.3494  0.2146
   48MOL   H35118305   5.458   6.028   1.697  0.5029  1.8985  1.0789
   48MOL   H35218306   5.215   5.952   1.694  0.0556 -1.5720 -0.2071
   48MOL   H35318307   5.226   5.895   1.860 -1.0467 -2.6909 -0.8275
   48MOL   H35418308   5.262   5.686   1.775  0.5254 -2.0439 -2.1964
   48MOL   H35518309   5.302   5.744   1.620  1.9013  1.3352 -0.4547
   48MOL   H35618310   5.486   5.656   1.808 -0.4750 -0.4523 -1.0419
   48MOL   H35718311   5.497   5.673   1.552  0.4770 -0.8089  0.4150
   48MOL   H35818312   5.572   5.828   1.575  0.7639 -1.4089 -1.3859
   48MOL   H35918313   5.676   5.560   1.700 -0.8686  0.7549 -0.7085
   48MOL   H36018314   5.739   5.720   1.727  1.7522  0.0838 -0.2356
   48MOL   H36118315   5.505   5.856   1.935 -0.3597  0.7973  0.4214
   48MOL   H36218316   5.616   5.890   1.805 -0.1841  1.3572 -0.9219
   48MOL   C36318317   5.784   5.633   1.532  0.4408 -0.0386 -0.8952
   48MOL   C36418318   5.926   5.583   1.569 -0.8350  0.5618  0.2176
   48MOL   C36518319   6.022   5.671   1.484 -0.0891 -0.2807 -0.7712
   48MOL   C36618320   5.947   5.771   1.396  0.5702 -0.0091 -0.1988
   48MOL   C36718321   6.014   5.912   1.372  1.0924 -0.6450 -0.0368
   48MOL   C36818322   6.148   5.910   1.304 -0.3159 -0.3050 -0.3359
   48MOL   C36918323   5.816   5.770   1.467  0.8576  0.2820 -0.2758
   48MOL   H37018324   5.736   5.571   1.456  0.8455  1.7481 -2.6612
   48MOL   H37118325   5.933   5.598   1.676  0.1303 -0.8066  0.3558
   48MOL   H37218326   5.944   5.478   1.547 -2.0199  0.7215 -1.7281
   48MOL   H37318327   6.088   5.730   1.548 -0.4982 -0.8667  0.1855
   48MOL   H37418328   6.095   5.616   1.424  1.7319  0.3754  0.7613
   48MOL   H37518329   5.934   5.728   1.296 -1.7693  0.2387 -0.0116
   48MOL   H37618330   5.948   5.974   1.311  0.5517 -0.5182  0.6759
   48MOL   H37718331   6.017   5.957   1.471 -0.3820  0.1746 -0.3484
   48MOL   H37818332   6.165   6.009   1.263 -1.5522  0.2204  0.4079
   48MOL   H37918333   6.149   5.838   1.221 -2.4366  0.1998 -0.8289
   48MOL   H38018334   5.804   5.841   1.549  1.3711 -1.7527  1.6306
   48MOL   H38118335   5.741   5.790   1.392  0.7047 -0.8177 -0.4294
   48MOL   H38218336   6.238   5.878   1.357  0.1687 -1.1000 -1.6008
   49MOL     C118337   5.258   4.629   5.871 -0.6118  0.3815 -0.6715
   49MOL     C218338   5.152   4.692   5.960  0.1424  0.5919 -0.0322
   49MOL     C318339   5.040   4.732   5.864  0.0388  0.1535  0.2558
   49MOL     C418340   5.096   4.728   5.727 -0.1617  0.5384  0.4531
   49MOL     C518341   5.071   4.854   5.648 -0.1338  0.6055  0.4736
   49MOL     C618342   5.140   4.854   5.511  0.4764  0.1721 -0.1635
   49MOL     C718343   5.239   4.695   5.737 -0.1071 -0.1993  0.0696
   49MOL     H818344   5.364   4.639   5.894 -0.5277 -1.7654 -0.0196
   49MOL     H918345   5.197   4.780   6.007  0.5013  0.4771 -0.1638
   49MOL    H1018346   5.111   4.625   6.036 -0.1925  2.1585  1.2007
   49MOL    H1118347   4.960   4.658   5.872  0.8968 -0.6107  1.9571
   49MOL    H1218348   5.010   4.831   5.899  1.6313  1.4661 -2.0024
   49MOL    H1318349   5.052   4.649   5.666  2.5916  0.5899 -1.6965
   49MOL    H1418350   4.965   4.870   5.630  0.1149  1.2709 -0.4097
   49MOL    H1518351   5.103   4.938   5.710  1.1436 -0.8626  1.8657
   49MOL    H1618352   5.248   4.847   5.524  0.1898 -0.9355  2.0080
   49MOL    H1718353   5.123   4.755   5.469 -0.1093 -0.4003  1.3968
   49MOL    H1818354   5.262   4.626   5.656 -0.0916  1.0075 -0.9648
   49MOL    H1918355   5.306   4.780   5.724 -0.0059 -0.7157 -3.4260
   49MOL    H2018356   5.232   4.525   5.853  0.4994  0.3615 -2.2624
   49MOL    C2118357   5.110   4.981   5.421  0.7967  0.5691  0.0141
   49MOL    C2218358   4.982   4.968   5.339  0.6343  0.1046  0.0532
   49MOL    C2318359   4.912   5.101   5.328 -0.4709  0.4781 -0.4501
   49MOL    C2418360   5.008   5.200   5.400  0.6151  0.0194 -0.9109
   49MOL    C2518361   4.934   5.310   5.469 -0.7694  0.2804  0.2572
   49MOL    C2618362   5.011   5.443   5.493 -0.3401  0.9043 -0.2306
   49MOL    C2718363   5.090   5.115   5.497 -0.2206  0.2172  0.0273
   49MOL    H2818364   5.201   4.983   5.360  1.7265 -0.0279  1.3468
   49MOL    H2918365   5.010   4.935   5.238  1.8883  0.1013  0.3904
   49MOL    H3018366   4.917   4.887   5.373  0.8415 -0.1063 -0.0498
   49MOL    H3118367   4.905   5.127   5.222 -1.7992 -1.5242 -0.8731
   49MOL    H3218368   4.815   5.095   5.376  0.1063 -0.6711  0.5995
   49MOL    H3318369   5.081   5.229   5.324  2.4078 -0.1678  0.7076
   49MOL    H3418370   4.896   5.282   5.567 -0.5956  0.6717  0.4372
   49MOL    H3518371   4.850   5.345   5.410 -0.3530  0.2855 -0.3452
   49MOL    H3618372   5.062   5.486   5.406 -2.4783  1.1541 -1.3948
   49MOL    H3718373   5.098   5.416   5.552 -0.7132 -0.5748 -0.3414
   49MOL    H3818374   5.182   5.167   5.523 -1.7512  2.2511  1.5527
   49MOL    H3918375   5.030   5.095   5.586  0.1008 -2.0603 -0.2339
   49MOL    C4018376   4.916   5.535   5.569  0.2884  0.1271  1.1711
   49MOL    C4118377   4.873   5.481   5.706 -0.3103 -0.3715 -0.0957
   49MOL    C4218378   4.818   5.599   5.773  0.2331  0.3599 -0.2585
   49MOL    C4318379   4.921   5.707   5.743 -0.1201  0.2609 -0.1420
   49MOL    C4418380   4.869   5.855   5.757  1.2236  0.0878 -0.8139
   49MOL    C4518381   4.976   5.961   5.701  0.3331 -0.3522 -0.6942
   49MOL    C4618382   4.984   5.667   5.610 -0.0694  0.3675 -0.4548
   49MOL    H4718383   4.823   5.546   5.515 -0.0092  0.9138  1.8216
   49MOL    H4818384   4.956   5.438   5.763  0.2882  1.3438  0.3523
   49MOL    H4918385   4.788   5.413   5.701 -1.0113  0.4496  0.5028
   49MOL    H5018386   4.718   5.634   5.746 -0.3210  0.8679  2.2980
   49MOL    H5118387   4.811   5.575   5.879 -0.3071 -2.5307 -0.9215
   49MOL    H5218388   5.004   5.694   5.812 -1.6071 -0.1968  1.6050
   49MOL    H5318389   4.776   5.862   5.701  1.0018  0.1422 -0.4441
   49MOL    H5418390   4.831   5.873   5.858 -0.5925 -0.4362 -1.3830
   49MOL    H5518391   5.004   5.963   5.595  1.4505 -1.8694 -0.4556
   49MOL    H5618392   5.071   5.931   5.746 -1.4196 -0.7906  2.8746
   49MOL    H5718393   4.970   5.737   5.527  2.3612  1.1631 -0.2171
   49MOL    H5818394   5.091   5.651   5.618  0.0250 -0.8094 -3.3515
   49MOL    C5918395   4.948   6.100   5.757  0.2173 -0.7291 -0.3954
   49MOL    C6018396   5.056   6.200   5.748 -0.3819 -0.9672 -0.7016
   49MOL    C6118397   4.985   6.333   5.793  0.2873  0.0708  0.2404
   49MOL    C6218398   4.837   6.324   5.727 -0.3709  0.0104 -0.1333
   49MOL    C6318399   4.719   6.378   5.803 -0.3337  1.4153  0.2442
   49MOL    C6418400   4.729   6.531   5.834 -0.3218  0.8649  0.2192
   49MOL    C6518401   4.828   6.175   5.686 -0.2972  0.9298 -0.2624
   49MOL    H6618402   4.923   6.096   5.863  1.0122  1.6754 -0.0884
   49MOL    H6718403   5.139   6.173   5.813 -0.8391  0.0228  0.3163
   49MOL    H6818404   5.095   6.216   5.648  0.6006 -1.2389 -0.3709
   49MOL    H6918405   4.978   6.326   5.902 -0.3881  0.8107  0.2499
   49MOL    H7018406   5.033   6.425   5.761  0.9839 -0.2824  0.2565
   49MOL    H7118407   4.854   6.378   5.634 -0.7735 -0.2650 -0.3681
   49MOL    H7218408   4.699   6.331   5.899  2.2878  1.7284  0.9659
   49MOL    H7318409   4.629   6.356   5.745 -1.0094  0.6254  1.5635
   49MOL    H7418410   4.655   6.577   5.899 -1.1443 -0.1007 -0.0033
   49MOL    H7518411   4.820   6.540   5.893  0.6145  0.5566 -1.1430
   49MOL    H7618412   4.728   6.137   5.705 -0.5972  0.7227 -2.1777
   49MOL    H7718413   4.829   6.173   5.577 -3.8378  0.0029 -0.3326
   49MOL    C7818414   4.723   6.620   5.712 -0.0359  0.9732 -0.3132
   49MOL    C7918415   4.596   6.601   5.625 -1.2745 -0.6994  0.4402
   49MOL    C8018416   4.602   6.726   5.534 -0.2724 -0.1368 -0.4085
   49MOL    C8118417   4.669   6.836   5.621  0.4774 -0.4014 -0.9249
   49MOL    C8218418   4.591   6.967   5.641 -0.3566 -0.3846  0.6915
   49MOL    C8318419   4.675   7.080   5.702 -0.3706 -0.3378  0.1063
   49MOL    C8418420   4.718   6.770   5.745 -0.3952  0.2089  0.4235
   49MOL    H8518421   4.813   6.600   5.654  0.1213 -2.7701  1.1051
   49MOL    H8618422   4.597   6.504   5.575 -1.1344 -0.0818 -0.7669
   49MOL    H8718423   4.507   6.602   5.688 -1.6271 -0.1174 -0.0581
   49MOL    H8818424   4.660   6.700   5.446 -1.8748 -0.7847 -1.2910
   49MOL    H8918425   4.506   6.752   5.491  0.2379  2.2101 -0.1908
   49MOL    H9018426   4.758   6.869   5.568  1.8342 -0.8118  1.0369
   49MOL    H9118427   4.502   6.943   5.698  1.3835 -0.0246  3.6318
   49MOL    H9218428   4.548   6.994   5.544  2.9612  0.1201 -0.6962
   49MOL    H9318429   4.756   7.114   5.637 -1.5442 -0.2963 -1.3516
   49MOL    H9418430   4.718   7.047   5.797  0.6258  2.1155  0.5369
   49MOL    H9518431   4.655   6.801   5.829 -0.9962 -0.9163  0.3976
   49MOL    H9618432   4.820   6.797   5.773 -0.7536  1.4122  0.6072
   49MOL    C9718433   4.580   7.202   5.731  0.0334  0.0159  0.1026
   49MOL    C9818434   4.659   7.331   5.754 -0.4902 -0.6129 -0.1057
   49MOL    C9918435   4.595   7.383   5.890  0.2812  0.4096 -0.1724
   49MOL   C10018436   4.460   7.319   5.905 -0.0453  0.0553  0.5815
   49MOL   C10118437   4.413   7.336   6.048  0.4418 -0.1201  0.0702
   49MOL   C10218438   4.417   7.477   6.095  0.0863 -0.3814 -0.7261
   49MOL   C10318439   4.483   7.174   5.849  0.2998 -0.5413 -0.7695
   49MOL   H10418440   4.521   7.231   5.644  2.7429  0.3966 -1.6719
   49MOL   H10518441   4.767   7.319   5.756 -0.4007  0.2699  0.7778
   49MOL   H10618442   4.634   7.402   5.675  0.6704  0.0494  0.1113
   49MOL   H10718443   4.666   7.354   5.968  0.0470  0.5369  0.0887
   49MOL   H10818444   4.611   7.490   5.876  1.4899  0.2547 -0.1024
   49MOL   H10918445   4.395   7.375   5.838 -0.9472 -0.5179  0.9773
   49MOL   H11018446   4.322   7.280   6.069  0.1120  0.4654  0.2256
   49MOL   H11118447   4.486   7.275   6.102  1.1074  0.0007 -0.6870
   49MOL   H11218448   4.524   7.495   6.098  0.3126 -1.9797  2.5991
   49MOL   H11318449   4.369   7.551   6.030 -0.5248  0.0772  0.2351
   49MOL   H11418450   4.540   7.120   5.924  1.5304 -0.6095 -1.7380
   49MOL   H11518451   4.396   7.119   5.812 -0.8429  0.6906  0.0074
   49MOL   C11618452   4.348   7.493   6.237  0.4478  0.2316  0.4127
   49MOL   C11718453   4.374   7.631   6.298  0.7831  0.0085  0.5718
   49MOL   C11818454   4.234   0.050   6.325 -0.1577  0.3264 -0.1857
   49MOL   C11918455   4.136   7.581   6.323 -0.6938 -0.4348  0.1076
   49MOL   C12018456   3.993   7.615   6.300  0.6792 -0.9117  0.5467
   49MOL   C12118457   3.965   0.045   6.163  0.2978 -0.2448  0.4862
   49MOL   C12218458   4.203   7.470   6.235 -0.7033  0.4781 -0.1000
   49MOL   H12318459   4.388   7.422   6.310  0.1791  1.1889  1.5140
   49MOL   H12418460   4.422   0.051   6.227 -1.8116 -0.5460 -1.7852
   49MOL   H12518461   4.436   7.632   6.387 -1.8028  2.9485  2.4633
   49MOL   H12618462   4.220   0.116   6.240 -1.7221  0.6297  0.2977
   49MOL   H12718463   4.223   0.128   6.401 -1.7084  0.2698 -0.3481
   49MOL   H12818464   4.142   7.548   6.427  1.8982 -0.2545  0.0345
   49MOL   H12918465   3.956   0.034   6.377 -0.1907  0.0574 -0.6797
   49MOL   H13018466   3.948   7.516   6.297  0.6376 -0.8709 -0.8102
   49MOL   H13118467   4.023   0.002   6.081  0.1979  0.0566  0.2597
   49MOL   H13218468   3.985   0.151   6.170  1.4160 -0.4592  0.6015
   49MOL   H13318469   4.172   7.375   6.278  0.3698  0.3148  0.3319
   49MOL   H13418470   4.152   7.493   6.141  1.5067  1.2415 -1.1406
   49MOL   C13518471   3.817   0.038   6.127  0.3278 -0.3813  0.0496
   49MOL   C13618472   3.743   0.116   6.234 -0.7723 -0.1044 -0.3366
   49MOL   C13718473   3.636   0.202   6.168 -0.3296  0.4434 -0.1937
   49MOL   C13818474   3.693   0.231   6.028 -0.2578 -0.4525  0.0819
   49MOL   C13918475   3.585   0.259   5.923 -0.2407  0.3762 -0.0294
   49MOL   C14018476   3.639   0.284   5.782 -0.0096 -0.1529 -0.1019
   49MOL   C14118477   3.780   0.109   5.995 -0.3725 -0.5070 -0.0570
   49MOL   H14218478   3.788   7.581   6.109  1.7100 -0.7997  0.2417
   49MOL   H14318479   3.699   0.040   6.298  0.7475  1.0779  2.1691
   49MOL   H14418480   3.797   0.171   6.311 -0.0767 -1.6894  0.3399
   49MOL   H14518481   3.556   0.129   6.152 -0.5080  0.9603 -1.7279
   49MOL   H14618482   3.597   0.278   6.234 -1.0214 -0.6959  0.7342
   49MOL   H14718483   3.751   0.324   6.031  1.6943 -1.6031 -0.6005
   49MOL   H14818484   3.532   0.350   5.949 -0.5815  0.5806 -1.3767
   49MOL   H14918485   3.515   0.176   5.934 -2.0187  1.9835  0.8976
   49MOL   H15018486   3.695   0.378   5.790 -0.9049  0.5113 -1.3282
   49MOL   H15118487   3.708   0.205   5.752 -0.0843 -0.0988 -0.4174
   49MOL   H15218488   3.857   0.151   5.930 -0.7784  1.6992  0.8320
   49MOL   H15318489   3.712   0.043   5.942 -0.3724 -0.2058 -0.4305
   49MOL   C15418490   3.529   0.298   5.667  0.3253  0.4196 -0.0685
   49MOL   C15518491   3.471   0.164   5.622  0.3055 -0.0405  0.1411
   49MOL   C15618492   3.419   0.189   5.477 -0.1520 -0.0514  0.3296
   49MOL   C15718493   3.517   0.290   5.408  0.5718  0.4674 -0.3053
   49MOL   C15818494   3.608   0.226   5.305  0.1227 -0.1243  0.0598
   49MOL   C15918495   3.545   0.204   5.169 -0.4859 -0.3067 -0.1504
   49MOL   C16018496   3.584   0.357   5.531  0.3194  0.2786 -0.2620
   49MOL   H16118497   3.449   0.365   5.697  0.3314 -0.1732  1.3403
   49MOL   H16218498   3.551   0.091   5.610  0.7181  0.6012 -1.0961
   49MOL   H16318499   3.394   0.119   5.686  0.9410 -0.2529  0.7633
   49MOL   H16418500   3.390   0.091   5.439 -0.5708 -1.3901  3.9465
   49MOL   H16518501   3.328   0.247   5.489 -0.2579  0.2277 -1.5468
   49MOL   H16618502   3.457   0.369   5.364 -0.1657  0.7708  1.2333
   49MOL   H16718503   3.675   0.149   5.341  2.7982  2.2193  0.2501
   49MOL   H16818504   3.674   0.311   5.286  1.4278 -1.2925 -0.6318
   49MOL   H16918505   3.486   0.113   5.160  1.4100 -1.4696 -1.1579
   49MOL   H17018506   3.471   0.280   5.146 -0.1608 -0.2956 -1.1915
   49MOL   H17118507   3.583   0.466   5.534  2.3072  0.2648  4.2972
   49MOL   H17218508   3.689   0.333   5.519  0.5377  1.3124 -0.4181
   49MOL   C17318509   3.648   0.182   5.061  0.6541 -0.4550 -0.3312
   49MOL   C17418510   3.592   0.150   4.924 -0.3002 -0.6078  0.5475
   49MOL   C17518511   3.724   0.154   4.830  0.1446 -0.3922 -1.1735
   49MOL   C17618512   3.816   0.257   4.901 -0.3055  0.2456  0.2880
   49MOL   C17718513   3.872   0.376   4.822  0.5499  0.2455  0.1642
   49MOL   C17818514   3.987   0.326   4.723 -0.1372  0.2046  0.3315
   49MOL   C17918515   3.739   0.300   5.031  0.2436 -0.7088  0.2390
   49MOL   H18018516   3.701   0.092   5.092 -1.2543 -1.4799  0.0270
   49MOL   H18118517   3.515   0.220   4.891  1.0113  0.8571  0.5371
   49MOL   H18218518   3.553   0.048   4.924 -1.3428 -0.2155  0.6073
   49MOL   H18318519   3.780   0.062   4.812 -0.8947 -0.9077 -1.9065
   49MOL   H18418520   3.706   0.188   4.728 -0.8506 -3.7458 -2.2118
   49MOL   H18518521   3.901   0.201   4.938 -0.2445 -2.0784 -3.1304
   49MOL   H18618522   3.911   0.453   4.888  0.1510  0.1422  0.5232
   49MOL   H18718523   3.791   0.432   4.774  0.9634  0.7003 -0.0076
   49MOL   H18818524   4.001   0.412   4.657 -0.4538  0.4290  0.5510
   49MOL   H18918525   3.956   0.246   4.656 -1.3023  0.4308  0.5791
   49MOL   H19018526   3.680   0.389   5.011 -0.3612 -1.3101 -0.6252
   49MOL   H19118527   3.799   0.318   5.121 -2.3411 -1.8663  2.2465
   49MOL   C19218528   4.124   0.296   4.781  0.9060  0.0508 -0.5322
   49MOL   C19318529   4.195   0.406   4.862  0.9350 -0.3296 -0.4335
   49MOL   C19418530   4.349   0.363   4.857 -0.1729 -0.8468 -0.1061
   49MOL   C19518531   4.365   0.314   4.711  0.7004  0.9285  0.2059
   49MOL   C19618532   4.484   0.222   4.687  0.5384  0.1636  0.4424
   49MOL   C19718533   4.490   0.182   4.538  0.1200  0.0875 -0.1283
   49MOL   C19818534   4.223   0.255   4.670 -0.1004 -0.2653  0.0969
   49MOL   H19918535   4.121   0.208   4.845  2.8881  0.1163 -0.3202
   49MOL   H20018536   4.177   0.501   4.811 -2.6781 -0.3365  0.7298
   49MOL   H20118537   4.164   0.412   4.966 -0.9891 -2.2528 -0.8782
   49MOL   H20218538   4.365   0.285   4.932  0.4842  1.5340  2.3112
   49MOL   H20318539   4.416   0.448   4.870 -1.2372 -0.5540  3.9841
   49MOL   H20418540   4.397   0.394   4.645 -2.2742  0.8853 -1.3681
   49MOL   H20518541   4.491   0.140   4.759 -0.6873  0.1380  0.5373
   49MOL   H20618542   4.576   0.279   4.702 -1.0315  2.9134 -0.0629
   49MOL   H20718543   4.508   0.272   4.480  1.1293  0.7453  1.1816
   49MOL   H20818544   4.391   0.150   4.509 -0.0038 -0.2550  0.6470
   49MOL   H20918545   4.232   0.148   4.657 -0.2125 -0.2623 -0.0146
   49MOL   H21018546   4.198   0.293   4.570  0.4744 -0.6881 -0.2110
   49MOL   C21118547   4.592   0.076   4.510  0.3050 -0.3021  0.4453
   49MOL   C21218548   4.740   0.132   4.532  0.1100  0.7688  0.1639
   49MOL   C21318549   4.814   0.023   4.449  0.2795  0.5448  0.3327
   49MOL   C21418550   4.720   7.584   4.364  0.0593 -1.0061  0.4406
   49MOL   C21518551   4.767   7.551   4.229 -0.0570  0.1045 -0.3201
   49MOL   C21618552   4.680   7.426   4.174  0.5146 -0.3011 -0.1091
   49MOL   C21718553   4.585   0.009   4.372 -0.4373  0.3875  0.7276
   49MOL   H21818554   4.567   0.001   4.586 -2.5385 -0.1300 -0.2627
   49MOL   H21918555   4.761   0.225   4.478  3.5202 -1.0588 -1.8753
   49MOL   H22018556   4.780   0.150   4.631  0.7050  3.1935 -0.4885
   49MOL   H22118557   4.898   0.056   4.388  1.2208  0.9737  1.8270
   49MOL   H22218558   4.863   7.608   4.524 -0.0289 -0.8627 -0.6280
   49MOL   H22318559   4.719   7.491   4.421  1.2472 -1.8626 -0.9255
   49MOL   H22418560   4.871   7.522   4.241 -0.4474 -0.8597  0.8546
   49MOL   H22518561   4.759   7.644   4.172  2.3378  0.7555  0.3595
   49MOL   H22618562   4.671   7.336   4.236 -1.7208 -0.2376 -0.2786
   49MOL   H22718563   4.582   7.473   4.171  0.2273 -0.8003  1.0627
   49MOL   H22818564   4.504   7.584   4.362 -2.6893  2.8218  0.8719
   49MOL   H22918565   4.567   0.086   4.298 -0.1001  1.1222  1.4087
   49MOL   C23018566   4.716   7.387   4.030  0.8377  0.1449  0.3152
   49MOL   C23118567   4.857   7.331   4.020 -0.0313  0.0468 -0.6885
   49MOL   C23218568   4.915   7.391   3.893 -0.0117  0.1204  0.2091
   49MOL   C23318569   4.792   7.450   3.819  0.0347  0.3849  0.0983
   49MOL   C23418570   4.726   7.342   3.730  0.1051  0.1084 -0.4805
   49MOL   C23518571   4.630   7.412   3.637  0.0681 -0.3026  0.4029
   49MOL   C23618572   4.703   7.500   3.929 -0.2482  0.1980 -0.4360
   49MOL   H23718573   4.651   7.303   4.008 -0.1517  0.9629  0.0740
   49MOL   H23818574   4.924   7.367   4.098 -0.7496 -2.4199  1.1304
   49MOL   H23918575   4.856   7.222   4.014  4.4651  0.0295 -4.0262
   49MOL   H24018576   4.963   7.316   3.830  2.1219  2.0741 -0.5363
   49MOL   H24118577   4.985   7.469   3.924  2.7435 -2.4030  0.5056
   49MOL   H24218578   4.814   7.543   3.766  3.5836  0.1450  1.0478
   49MOL   H24318579   4.682   7.260   3.788  0.7027  0.9603  1.2351
   49MOL   H24418580   4.807   7.304   3.669  1.3162 -0.1160  1.2394
   49MOL   H24518581   4.541   7.429   3.698 -0.1630  1.8167 -0.4838
   49MOL   H24618582   4.660   7.512   3.607 -0.4758 -0.5689 -1.0381
   49MOL   H24718583   4.599   7.508   3.896  0.0672 -0.8306 -1.7120
   49MOL   H24818584   4.733   7.602   3.954 -1.2292  0.2366  0.6400
   49MOL   C24918585   4.586   7.324   3.515  0.1798 -0.4825 -0.0381
   49MOL   C25018586   4.469   7.392   3.431  0.4759  0.8204  0.7125
   49MOL   C25118587   4.471   7.314   3.304  0.1621  0.1764  0.1793
   49MOL   C25218588   4.619   7.301   3.271  0.3404 -0.2761 -0.9935
   49MOL   C25318589   4.642   7.177   3.180  0.3265  0.7250  0.1116
   49MOL   C25418590   4.571   7.182   3.046  0.1624  0.1038 -0.5430
   49MOL   C25518591   4.694   7.293   3.407 -0.8258  0.2320 -0.0882
   49MOL   H25618592   4.558   7.230   3.562 -1.7858  0.1448  0.0860
   49MOL   H25718593   4.374   7.377   3.484  0.8483 -0.1776  1.1003
   49MOL   H25818594   4.488   7.498   3.413 -2.5751  1.2161 -0.5109
   49MOL   H25918595   4.424   7.374   3.226 -0.1147 -3.4346 -2.6126
   49MOL   H26018596   4.414   7.221   3.305  1.6851 -0.7802  0.0864
   49MOL   H26118597   4.657   7.391   3.223 -1.6742  0.2426 -1.6566
   49MOL   H26218598   4.601   7.092   3.235 -1.8940  1.0017 -1.0428
   49MOL   H26318599   4.745   7.143   3.169 -0.0975 -0.6845  0.3416
   49MOL   H26418600   4.636   7.235   2.977  1.1886 -2.3722 -1.5458
   49MOL   H26518601   4.473   7.230   3.048 -0.2344 -0.6512  3.0035
   49MOL   H26618602   4.777   7.363   3.403 -1.3786  0.9093  0.3242
   49MOL   H26718603   4.736   7.197   3.437  0.3590  1.0009  0.7595
   49MOL   C26818604   4.551   7.039   2.980  0.4315 -0.0209  0.3205
   49MOL   C26918605   4.684   6.961   2.944  0.5672 -0.6593 -0.3167
   49MOL   C27018606   4.675   6.922   2.794 -0.2393  0.3932  0.2416
   49MOL   C27118607   4.526   6.936   2.757 -0.3175  0.1655  0.3100
   49MOL   C27218608   4.505   6.964   2.609  0.3833  0.5704  0.3966
   49MOL   C27318609   4.597   6.889   2.511 -0.6130  0.6566 -0.0680
   49MOL   C27418610   4.471   7.046   2.851 -0.1793  0.2127 -1.1091
   49MOL   H27518611   4.499   6.982   3.056  0.4831  0.6013  0.8270
   49MOL   H27618612   4.779   7.012   2.961 -0.3244  0.5042  1.3288
   49MOL   H27718613   4.687   6.866   2.997  1.0977 -1.4177 -1.6741
   49MOL   H27818614   4.729   7.002   2.743 -2.9153  1.1645 -1.4749
   49MOL   H27918615   4.725   6.826   2.776 -1.3654 -0.0242 -0.6827
   49MOL   H28018616   4.464   6.850   2.782 -0.1998 -0.8008 -2.5427
   49MOL   H28118617   4.523   7.071   2.598 -0.9970  0.7370 -0.4225
   49MOL   H28218618   4.400   6.944   2.590  0.5568 -0.2212  0.2296
   49MOL   H28318619   4.682   6.955   2.494 -1.8091  2.6277  1.3755
   49MOL   H28418620   4.631   6.794   2.551 -0.4010  0.4897 -0.6359
   49MOL   H28518621   4.485   7.145   2.808 -0.4843 -0.5779 -3.0776
   49MOL   H28618622   4.368   7.039   2.888  0.0210  0.6844 -0.4692
   49MOL   C28718623   4.532   6.855   2.379 -0.3893 -0.5703 -0.4393
   49MOL   C28818624   4.473   6.986   2.325  0.2721 -0.1164 -0.1987
   49MOL   C28918625   4.486   6.980   2.174 -0.0320 -0.1536 -0.3806
   49MOL   C29018626   4.557   6.850   2.138  0.1165  0.5877  0.1715
   49MOL   C29118627   4.646   6.846   2.010 -0.0167  0.4552  0.0617
   49MOL   C29218628   4.694   6.700   1.968  0.2575 -0.1770 -0.0772
   49MOL   C29318629   4.626   6.804   2.272 -0.6547  0.4037  0.1615
   49MOL   H29418630   4.456   6.778   2.390 -1.2217  0.4921  1.6915
   49MOL   H29518631   4.370   6.987   2.362  0.3132  1.8589 -0.1188
   49MOL   H29618632   4.530   7.072   2.358  0.5986 -0.2842 -0.3150
   49MOL   H29718633   4.553   7.061   2.145  1.6331 -1.0352  0.9526
   49MOL   H29818634   4.391   7.003   2.127 -0.1483  2.3140  0.9736
   49MOL   H29918635   4.473   6.783   2.119  1.5551 -0.7462 -1.6961
   49MOL   H30018636   4.732   6.912   2.026  1.9063 -1.3007 -2.5150
   49MOL   H30118637   4.586   6.880   1.926  0.8931  1.4587 -0.1948
   49MOL   H30218638   4.768   6.664   2.040 -1.2655  0.6172  1.9607
   49MOL   H30318639   4.756   6.701   1.879  2.2017  0.9476  1.2388
   49MOL   H30418640   4.729   6.836   2.284  0.2547 -1.4482 -2.3560
   49MOL   H30518641   4.625   6.695   2.263 -2.7509  0.2274  2.0106
   49MOL   C30618642   4.582   6.597   1.938  0.3620 -0.1397 -0.1924
   49MOL   C30718643   4.633   6.505   1.821 -0.4122 -0.8325 -0.4598
   49MOL   C30818644   4.548   6.377   1.833  0.5492  0.6961 -1.1881
   49MOL   C30918645   4.467   6.391   1.967 -0.2430 -0.7273  0.6496
   49MOL   C31018646   4.436   6.259   2.039 -0.7572 -0.4231  0.0139
   49MOL   C31118647   4.334   6.269   2.151  0.0829 -0.1759  0.0597
   49MOL   C31218648   4.535   6.503   2.046 -0.3826 -0.6217  0.0211
   49MOL   H31318649   4.494   6.652   1.905  0.3130  0.9980  1.7756
   49MOL   H31418650   4.611   6.553   1.725  2.6089  1.7313  0.0612
   49MOL   H31518651   4.738   6.477   1.830  0.0135  1.0629  0.8730
   49MOL   H31618652   4.478   6.378   1.749 -1.4185  0.7100  0.4213
   49MOL   H31718653   4.609   6.287   1.824  1.7845  1.3985 -0.0475
   49MOL   H31818654   4.374   6.432   1.928  1.0644  2.4323  0.6815
   49MOL   H31918655   4.414   6.174   1.975  1.8455 -0.6343 -0.6680
   49MOL   H32018656   4.535   6.226   2.072  0.8450  2.8457 -1.2356
   49MOL   H32118657   4.245   6.320   2.115  1.4791  0.1888 -2.9909
   49MOL   H32218658   4.374   6.331   2.231  2.3042 -2.6493  0.9384
   49MOL   H32318659   4.620   6.464   2.103  0.0289  0.4899  0.1729
   49MOL   H32418660   4.464   6.530   2.125  0.5055  2.1183 -0.1024
   49MOL   C32518661   4.296   6.134   2.224 -0.8547 -0.3703  0.1425
   49MOL   C32618662   4.218   6.039   2.132 -0.1947  0.4071 -0.5325
   49MOL   C32718663   4.275   5.893   2.160  0.1425  0.5101  0.6258
   49MOL   C32818664   4.417   5.917   2.210  0.3271  0.4810 -0.1014
   49MOL   C32918665   4.485   5.798   2.282  0.2334 -0.6757  0.0472
   49MOL   C33018666   4.633   5.813   2.300 -0.3534 -0.6789 -0.1709
   49MOL   C33118667   4.409   6.045   2.291  1.1032  0.1690 -0.1958
   49MOL   H33218668   4.222   6.151   2.302 -0.1280  0.7598  0.6036
   49MOL   H33318669   4.229   6.048   2.024  0.3413 -0.0423 -0.5165
   49MOL   H33418670   4.111   6.051   2.148 -0.2139  0.3413 -0.6099
   49MOL   H33518671   4.210   5.853   2.238  2.8498 -1.3733  2.0046
   49MOL   H33618672   4.272   5.825   2.075 -1.3671  1.3310  0.0101
   49MOL   H33718673   4.473   5.932   2.117 -1.1000 -1.8529 -1.4009
   49MOL   H33818674   4.442   5.787   2.382 -1.3171  0.2137 -0.5053
   49MOL   H33918675   4.465   5.712   2.219  1.5643  0.9406 -2.6680
   49MOL   H34018676   4.692   5.805   2.208 -1.3188 -1.8696 -0.6993
   49MOL   H34118677   4.665   5.913   2.329 -0.0379 -0.5233 -1.0219
   49MOL   H34218678   4.505   6.096   2.298  1.9794 -1.0375 -2.9359
   49MOL   H34318679   4.363   6.017   2.386  1.0095  1.9679  0.3080
   49MOL   C34418680   4.685   5.719   2.404 -0.3340 -0.4090 -0.1626
   49MOL   C34518681   4.834   5.739   2.441 -0.6295 -1.0220  1.1963
   49MOL   C34618682   4.889   5.609   2.487  0.3636 -0.9410 -0.4883
   49MOL   C34718683   4.805   5.504   2.431  0.4070  0.1038 -0.6786
   49MOL   C34818684   4.764   5.386   2.517  0.1363  0.3263 -0.2143
   49MOL   C34918685   4.677   5.426   2.642 -0.1293 -0.4387 -0.2730
   49MOL   C35018686   4.685   5.570   2.368  0.6939  0.4682  0.2511
   49MOL   H35118687   4.636   5.732   2.500 -1.5099  2.7159 -1.1324
   49MOL   H35218688   4.842   5.818   2.515 -2.7779  1.8415 -1.5108
   49MOL   H35318689   4.878   5.762   2.343 -1.2979  0.4532  1.2331
   49MOL   H35418690   4.995   5.585   2.482 -0.1339 -3.5296  0.5313
   49MOL   H35518691   4.870   5.615   2.594 -0.1252  1.2738 -0.6753
   49MOL   H35618692   4.869   5.465   2.352  1.4987  1.7059 -0.6124
   49MOL   H35718693   4.701   5.316   2.464  0.6893 -0.5709  0.3035
   49MOL   H35818694   4.859   5.344   2.550  0.6761 -0.0018 -2.1545
   49MOL   H35918695   4.579   5.378   2.639 -0.9260  1.2256 -2.2615
   49MOL   H36018696   4.652   5.530   2.624 -0.4982 -0.3008  0.9616
   49MOL   H36118697   4.694   5.561   2.259 -1.1377  0.3838  0.0938
   49MOL   H36218698   4.584   5.532   2.378 -0.0038  2.1643 -0.2593
   49MOL   C36318699   4.749   5.422   2.774 -0.0738  0.1659 -0.2777
   49MOL   C36418700   4.785   5.281   2.828 -1.0429  0.5987  0.0223
   49MOL   C36518701   4.725   5.266   2.964  0.2368  0.2849  0.4391
   49MOL   C36618702   4.699   5.403   3.014  0.0484  0.0958 -0.8030
   49MOL   C36718703   4.597   5.415   3.127 -0.0044  1.0029  0.2134
   49MOL   C36818704   4.592   5.300   3.235 -0.7423  0.0111 -0.4607
   49MOL   C36918705   4.666   5.481   2.890  0.8929 -0.0414 -0.8137
   49MOL   H37018706   4.846   5.470   2.763  1.4206 -1.9400  2.9745
   49MOL   H37118707   4.748   5.202   2.763  1.4015 -0.6590  0.0942
   49MOL   H37218708   4.892   5.270   2.846 -1.2822 -1.3344  0.3111
   49MOL   H37318709   4.630   5.214   2.954  1.6327 -2.3744  0.8169
   49MOL   H37418710   4.784   5.204   3.031  2.0216  0.4182 -0.9765
   49MOL   H37518711   4.796   5.438   3.048 -0.6592  2.2582 -0.9482
   49MOL   H37618712   4.621   5.513   3.168  1.0450  0.5946  0.5944
   49MOL   H37718713   4.501   5.422   3.074 -0.3210  1.1382  0.8031
   49MOL   H37818714   4.514   5.317   3.309  1.5991  0.2878  2.0326
   49MOL   H37918715   4.682   5.269   3.289 -1.1353 -0.5528 -0.1296
   49MOL   H38018716   4.558   5.472   2.876  0.4423  1.0181  1.7185
   49MOL   H38118717   4.686   5.587   2.909  1.2342 -0.4257  1.0325
   49MOL   H38218718   4.551   5.214   3.183 -0.1044 -0.1182 -0.7598
   50MOL     C118719   6.241   1.562   1.970 -0.2652 -0.1455  0.6759
   50MOL     C218720   6.312   1.691   1.962 -0.2076 -0.1438  0.7920
   50MOL     C318721   6.464   1.650   1.964  0.6714 -0.1366  0.1949
   50MOL     C418722   6.477   1.509   1.900  0.0370  0.2683 -0.2804
   50MOL     C518723   6.596   1.429   1.954 -0.6501  0.0795 -0.7711
   50MOL     C618724   6.616   1.303   1.872 -0.1015  0.4318  0.3550
   50MOL     C718725   6.332   1.450   1.926  0.3388 -0.3347 -0.5813
   50MOL     H818726   6.206   1.548   2.073 -0.5168  1.1006  0.7739
   50MOL     H918727   6.283   1.762   2.039  0.2196 -0.5026  1.2838
   50MOL    H1018728   6.286   1.741   1.868  1.9036  0.8439  0.7067
   50MOL    H1118729   6.520   1.733   1.920  0.5860  0.3251  0.9539
   50MOL    H1218730   6.495   1.658   2.068 -2.6982  1.0040  1.1787
   50MOL    H1318731   6.479   1.512   1.791  1.5122 -0.6148 -0.2944
   50MOL    H1418732   6.681   1.497   1.958 -1.6114  1.2422  0.7782
   50MOL    H1518733   6.585   1.399   2.058  3.0994  0.7937 -0.0884
   50MOL    H1618734   6.531   1.238   1.891  1.6879 -1.3651  2.5135
   50MOL    H1718735   6.605   1.337   1.769 -0.4570  1.6405  0.7844
   50MOL    H1818736   6.289   1.397   1.841  1.7364 -3.0599  0.3651
   50MOL    H1918737   6.320   1.381   2.009  1.0662  2.6619  2.0863
   50MOL    H2018738   6.148   1.569   1.914 -1.2328 -0.3615  2.2036
   50MOL    C2118739   6.746   1.230   1.909 -0.2709 -0.0738  0.3827
   50MOL    C2218740   6.760   1.109   1.817 -0.6552  0.7168 -0.4590
   50MOL    C2318741   6.906   1.074   1.817  0.0408 -0.8567  0.0742
   50MOL    C2418742   6.987   1.190   1.871  0.1784 -0.0711  0.0734
   50MOL    C2518743   7.101   1.223   1.780 -0.0528 -0.3207  1.2104
   50MOL    C2618744   7.219   1.125   1.789 -0.9965 -0.5266 -0.0464
   50MOL    C2718745   6.876   1.307   1.884 -0.1285  0.0832 -0.0247
   50MOL    H2818746   6.742   1.195   2.012 -0.7620 -2.4910 -0.4341
   50MOL    H2918747   6.706   1.023   1.856 -0.8641  0.4934 -1.2348
   50MOL    H3018748   6.721   1.133   1.718 -3.5026  1.0657  0.6931
   50MOL    H3118749   6.931   0.989   1.880 -0.9222 -1.4294 -0.3045
   50MOL    H3218750   6.928   1.050   1.712  1.0114 -0.4762  0.1876
   50MOL    H3318751   7.023   1.179   1.973 -2.0435 -0.0658  0.8859
   50MOL    H3418752   7.144   1.321   1.799 -2.0610  0.9069 -0.3826
   50MOL    H3518753   7.063   1.216   1.679  0.3011 -2.6859  1.2162
   50MOL    H3618754   7.183   1.022   1.782 -0.4906 -0.7429  0.4530
   50MOL    H3718755   7.270   1.140   1.884 -1.8472  2.5588 -0.0131
   50MOL    H3818756   6.903   1.364   1.972 -0.6099 -1.4690  1.1563
   50MOL    H3918757   6.873   1.367   1.793 -1.0238 -3.2130 -2.2661
   50MOL    C4018758   7.337   1.166   1.693  0.7354  0.4392  0.7363
   50MOL    C4118759   7.471   1.097   1.727  0.6936  0.0174  0.8315
   50MOL    C4218760   7.540   1.068   1.591  0.4124  0.4176  0.4444
   50MOL    C4318761   7.418   1.022   1.513 -0.2035 -0.0645  0.6952
   50MOL    C4418762   7.436   1.012   1.362  0.4206 -0.3776  0.1297
   50MOL    C4518763   7.506   0.889   1.309 -0.4331 -0.2261  0.2921
   50MOL    C4618764   7.306   1.124   1.544  0.4922  0.2817 -0.4783
   50MOL    H4718765   7.347   1.275   1.694 -0.6071  0.5737  0.2628
   50MOL    H4818766   7.466   0.998   1.773  1.6324  0.4037  1.7955
   50MOL    H4918767   7.531   1.166   1.785  1.4495  1.0054 -1.0608
   50MOL    H5018768   7.587   1.158   1.552  1.5482 -0.7353 -0.9464
   50MOL    H5118769   7.624   0.999   1.580  0.2193  0.1481  0.6379
   50MOL    H5218770   7.378   0.933   1.561  1.0691 -0.5917  0.7687
   50MOL    H5318771   7.334   1.017   1.326  0.1266 -0.2669  0.9699
   50MOL    H5418772   7.484   1.104   1.327  3.2361 -0.7819  2.7202
   50MOL    H5518773   7.446   0.803   1.341  1.2151 -1.2709  0.6610
   50MOL    H5618774   7.596   0.895   1.370 -0.5824 -1.1754  0.6177
   50MOL    H5718775   7.304   1.207   1.473 -1.4265 -0.3888 -1.2508
   50MOL    H5818776   7.211   1.072   1.534  1.1763 -0.8546 -1.2173
   50MOL    C5918777   7.516   0.889   1.159  0.2271  0.4280  0.0130
   50MOL    C6018778   7.609   0.997   1.104 -0.3770  0.6531  0.1231
   50MOL    C6118779   0.055   0.936   1.002 -0.5396  0.3871 -0.3504
   50MOL    C6218780   0.067   0.791   1.050 -0.1997 -0.3225 -0.5279
   50MOL    C6318781   0.126   0.704   0.944  0.3858 -0.1812 -0.7219
   50MOL    C6418782   0.192   0.575   1.002 -0.0667  0.3859  0.1212
   50MOL    C6518783   7.573   0.754   1.105  0.1836  0.1453 -0.0434
   50MOL    H6618784   7.419   0.915   1.115 -0.0586 -0.1636  0.2867
   50MOL    H6718785   7.547   1.070   1.052 -1.1991 -1.1671 -1.4783
   50MOL    H6818786   0.019   1.055   1.176  2.3717  0.4873 -1.8308
   50MOL    H6918787   0.008   0.941   0.904 -0.0090 -0.6131 -0.6592
   50MOL    H7018788   0.144   0.998   1.004  0.0686 -0.5060  0.9147
   50MOL    H7118789   0.139   0.786   1.132 -0.0251  2.7027 -0.4676
   50MOL    H7218790   0.207   0.761   0.899  0.2165  1.2253  0.7217
   50MOL    H7318791   0.047   0.668   0.878  0.6194 -2.6922  0.2730
   50MOL    H7418792   0.117   0.529   1.068  0.2371 -1.5868 -0.8894
   50MOL    H7518793   0.220   0.504   0.924  1.9924  1.3119 -0.0048
   50MOL    H7618794   7.501   0.725   1.029  0.8617  0.6035 -0.8740
   50MOL    H7718795   7.593   0.676   1.178  2.3954 -0.4681 -1.2463
   50MOL    C7818796   0.320   0.607   1.080  0.1127 -0.1754  0.1480
   50MOL    C7918797   0.302   0.618   1.236 -0.1295 -0.2678 -0.8364
   50MOL    C8018798   0.438   0.563   1.287  0.5473 -0.4214  0.3474
   50MOL    C8118799   0.530   0.520   1.173 -0.5831 -0.0295 -0.5943
   50MOL    C8218800   0.618   0.390   1.199 -0.8485  0.6474  0.2271
   50MOL    C8318801   0.707   0.351   1.072 -0.0335  0.2217 -0.2032
   50MOL    C8418802   0.425   0.501   1.062  0.0623 -0.7569  0.1213
   50MOL    H8518803   0.359   0.699   1.037 -1.1748 -0.6759 -2.1668
   50MOL    H8618804   0.290   0.722   1.268  1.4247 -0.2836 -0.1466
   50MOL    H8718805   0.228   0.551   1.279  1.2755 -2.2493 -1.4262
   50MOL    H8818806   0.482   0.637   1.355 -1.2581 -0.0842  1.1787
   50MOL    H8918807   0.414   0.482   1.356  1.5091 -1.0157 -0.0080
   50MOL    H9018808   0.598   0.601   1.148  1.8101 -1.6694  0.4355
   50MOL    H9118809   0.553   0.308   1.229 -0.0699 -0.3300 -0.7218
   50MOL    H9218810   0.689   0.396   1.281  2.2864 -1.2393 -2.2333
   50MOL    H9318811   0.778   0.432   1.052  0.5155  0.6369  3.1490
   50MOL    H9418812   0.631   0.349   0.993 -1.7646 -1.8472  1.4723
   50MOL    H9518813   0.388   0.398   1.070  2.3431 -1.5492  0.9023
   50MOL    H9618814   0.469   0.511   0.963  0.9411  0.6016  0.6537
   50MOL    C9718815   0.782   0.219   1.094  0.1673  0.5268  0.4769
   50MOL    C9818816   0.883   0.205   1.208 -0.6160 -0.0931 -0.3293
   50MOL    C9918817   0.980   0.094   1.160 -0.1535  0.5084 -0.0481
   50MOL   C10018818   0.934   0.052   1.022  0.6252 -0.3521 -0.1704
   50MOL   C10118819   1.042   7.638   0.929 -0.0682  0.7647  0.1326
   50MOL   C10218820   0.991   7.586   0.791 -0.0047 -0.1344 -1.0673
   50MOL   C10318821   0.859   0.167   0.970  0.8103 -0.0909 -0.0532
   50MOL   H10418822   0.695   0.157   1.118 -0.1455  0.8466  0.1749
   50MOL   H10518823   0.939   0.298   1.221  2.5581 -1.9648 -0.1569
   50MOL   H10618824   0.840   0.179   1.305  2.2673  0.9259  1.2782
   50MOL   H10718825   1.080   0.133   1.141 -0.8542  2.3069 -0.1113
   50MOL   H10818826   0.990   0.013   1.232  1.1004  0.8596  0.1809
   50MOL   H10918827   0.858   7.626   1.050  1.6017 -0.2048  3.1261
   50MOL   H11018828   1.127   0.059   0.924  1.0076 -0.6381 -1.2435
   50MOL   H11118829   1.064   7.549   0.989 -0.5030  1.6139  1.5909
   50MOL   H11218830   0.942   7.490   0.806  0.4480  0.0442  2.0558
   50MOL   H11318831   0.929   0.008   0.735 -0.2636 -0.6830 -1.4601
   50MOL   H11418832   0.923   0.246   0.929  2.3586 -0.2877  1.9190
   50MOL   H11518833   0.796   0.135   0.887 -0.1240  0.5545  0.4053
   50MOL   C11618834   1.108   7.554   0.693  0.1131 -0.6004  0.2468
   50MOL   C11718835   1.061   7.515   0.555  0.0549 -0.1439  0.1240
   50MOL   C11818836   1.188   7.533   0.473 -0.4013  0.0416  0.1557
   50MOL   C11918837   1.299   7.600   0.562  0.5258 -0.0717  0.4359
   50MOL   C12018838   1.387   0.041   0.479 -0.4021  0.0149  0.9100
   50MOL   C12118839   1.481   7.623   0.379 -0.3540  0.1341  0.0221
   50MOL   C12218840   1.210   0.024   0.664  0.0875  0.3451  0.1944
   50MOL   H12318841   1.171   7.486   0.750  0.6874  1.2551  1.9141
   50MOL   H12418842   0.986   7.592   0.539  0.1466 -0.0201  0.2867
   50MOL   H12518843   1.020   7.414   0.556  0.5435 -0.3466 -0.0867
   50MOL   H12618844   1.170   7.594   0.384  3.2211 -1.0201 -1.4097
   50MOL   H12718845   1.211   7.434   0.433  1.9165  0.4074  0.4997
   50MOL   H12818846   1.356   7.522   0.613  0.5290 -0.2479  0.1690
   50MOL   H12918847   1.447   0.102   0.546 -0.2534 -0.5810  1.3265
   50MOL   H13018848   1.333   0.119   0.426  0.6181  0.2303  0.1831
   50MOL   H13118849   1.418   7.575   0.304  1.6016 -0.1396 -1.4880
   50MOL   H13218850   1.534   7.545   0.433  0.3329  0.9427  0.5484
   50MOL   H13318851   1.271   0.046   0.752  0.8131 -1.7195  0.2443
   50MOL   H13418852   1.171   0.117   0.623 -0.5718 -0.0377 -0.0488
   50MOL   C13518853   1.574   0.079   0.314 -0.6497 -0.6395  0.0921
   50MOL   C13618854   1.668   0.008   0.227 -0.4229 -0.0505  0.2222
   50MOL   C13718855   1.714   0.110   0.117  0.3957 -0.5203 -0.2520
   50MOL   C13818856   1.579   0.180   0.088 -0.9318 -0.2885 -0.3825
   50MOL   C13918857   1.594   0.324   0.037  0.2784 -0.0554 -0.1434
   50MOL   C14018858   1.474   0.395   7.633  0.3530  0.2765  0.9177
   50MOL   C14118859   1.496   0.163   0.216 -0.3648 -0.3518  0.1999
   50MOL   H14218860   1.618   0.151   0.383 -2.0330 -0.7295  1.1086
   50MOL   H14318861   1.755   7.609   0.272 -0.4191  0.0289  0.2971
   50MOL   H14418862   1.625   7.579   0.162 -1.1279  1.4873 -1.1905
   50MOL   H14518863   1.783   0.187   0.151 -0.2580  0.2262 -0.5846
   50MOL   H14618864   1.745   0.062   0.025 -0.4069 -2.8527  0.6656
   50MOL   H14718865   1.530   0.129   0.004  0.6264 -0.9504 -0.9000
   50MOL   H14818866   1.660   0.302   7.601  1.6487 -0.1558  0.9511
   50MOL   H14918867   1.658   0.383   0.102  1.1449  0.3490 -1.3504
   50MOL   H15018868   1.428   0.339   7.552  0.8063 -0.2663  1.0306
   50MOL   H15118869   1.407   0.377   0.070 -2.0777  1.9034 -0.5897
   50MOL   H15218870   1.401   0.116   0.188  0.8675 -2.7358 -0.1564
   50MOL   H15318871   1.478   0.261   0.260 -0.1128 -0.5146  0.6671
   50MOL   C15418872   1.485   0.544   7.589 -0.4931 -0.0932  0.6204
   50MOL   C15518873   1.554   0.626   0.053  0.3367  0.4899 -0.3454
   50MOL   C15618874   1.480   0.760   0.052 -0.1523 -0.0516  0.4846
   50MOL   C15718875   1.355   0.754   7.609 -0.4326 -0.9002  0.4826
   50MOL   C15818876   1.229   0.825   0.016  0.3719  0.0161 -0.3626
   50MOL   C15918877   1.247   0.970   0.020 -0.0865  1.0381 -0.1003
   50MOL   C16018878   1.346   0.607   7.578  0.1123 -0.1173  0.3085
   50MOL   H16118879   1.550   0.557   7.503  0.7494 -0.5411  1.4764
   50MOL   H16218880   1.539   0.572   0.147 -1.2595 -1.8723 -1.9092
   50MOL   H16318881   1.661   0.615   0.034  0.7487 -0.4203  2.2589
   50MOL   H16418882   1.459   0.782   0.156  0.2913 -0.9930  0.7777
   50MOL   H16518883   1.537   0.852   0.037  1.5913 -1.2644 -0.4345
   50MOL   H16618884   1.385   0.802   7.516 -1.7979  0.8505  0.9211
   50MOL   H16718885   1.214   0.799   0.121  0.8704 -0.6453 -0.4537
   50MOL   H16818886   1.151   0.790   7.596  0.1616  0.6990 -0.4857
   50MOL   H16918887   1.324   0.989   0.095  2.5637  2.8498 -3.1563
   50MOL   H17018888   1.287   0.999   7.570 -0.7018  2.3397  0.0299
   50MOL   H17118889   1.321   0.597   7.472  1.8771 -1.8550  0.0453
   50MOL   H17218890   1.271   0.578   0.005 -0.5924  1.0158  0.0603
   50MOL   C17318891   1.112   1.041   0.054 -0.7528  0.3082 -0.5492
   50MOL   C17418892   1.138   1.181   0.086  0.3519 -0.8745  0.6880
   50MOL   C17518893   1.003   1.253   0.048  0.4654  0.2145  0.3561
   50MOL   C17618894   0.911   1.148   7.626 -0.4942  0.0182 -0.5842
   50MOL   C17718895   0.829   1.209   7.508 -0.2258  0.0483 -0.7704
   50MOL   C17818896   0.733   1.322   7.526  0.2928 -0.0574 -0.0474
   50MOL   C17918897   1.008   1.040   7.586  0.3978 -0.7091 -0.3170
   50MOL   H18018898   1.062   0.987   0.134  1.1576 -2.2945 -1.0508
   50MOL   H18118899   1.223   1.223   0.031  0.3361 -0.3842  1.0325
   50MOL   H18218900   1.157   1.188   0.193  0.3449 -1.3228  0.7201
   50MOL   H18318901   0.959   1.284   0.143  0.2090  0.2982  0.2132
   50MOL   H18418902   1.031   1.339   7.634 -1.1486 -0.5458 -1.5368
   50MOL   H18518903   0.831   1.116   0.046  0.0653  0.2886  0.2290
   50MOL   H18618904   0.777   1.121   7.470  1.0498 -0.6415 -0.9858
   50MOL   H18718905   0.897   1.247   7.431 -1.0507  0.4544 -1.3042
   50MOL   H18818906   0.790   1.389   7.591  0.5922 -1.5445  1.2560
   50MOL   H18918907   0.640   1.301   7.579  0.7571 -0.3675  0.6486
   50MOL   H19018908   1.051   1.053   7.487 -0.0457 -0.1838 -0.4456
   50MOL   H19118909   0.965   0.940   7.579 -0.8768 -0.1746 -0.2523
   50MOL   C19218910   0.705   1.392   7.392  0.0914  0.1876 -0.7391
   50MOL   C19318911   0.810   1.478   7.325 -0.2300  0.5220 -0.6863
   50MOL   C19418912   0.721   1.577   7.240 -0.2414  0.1732 -1.0988
   50MOL   C19518913   0.614   1.625   7.332 -0.0474 -0.3189 -0.1378
   50MOL   C19618914   0.491   1.702   7.261 -0.6034  0.0298 -0.2933
   50MOL   C19718915   0.525   1.827   7.176 -0.1563 -0.1868 -0.3409
   50MOL   C19818916   0.585   1.495   7.413  0.1199 -0.5066  0.5042
   50MOL   H19918917   0.672   1.325   7.312 -1.3778  1.2666 -1.0743
   50MOL   H20018918   0.866   1.516   7.410 -0.2447 -0.9986  0.0040
   50MOL   H20118919   0.882   1.420   7.268  1.5219  0.1680  1.8466
   50MOL   H20218920   0.678   1.517   7.160 -0.5663  0.1885 -0.9404
   50MOL   H20318921   0.779   1.655   7.190 -0.1141  1.1789  0.5799
   50MOL   H20418922   0.666   1.694   7.399  0.5261  0.4519 -1.3502
   50MOL   H20518923   0.412   1.724   7.333 -1.0105  0.1863 -0.7856
   50MOL   H20618924   0.452   1.632   7.187  0.6378  0.4622 -1.3746
   50MOL   H20718925   0.455   1.827   7.093 -1.5890  0.3977  0.8413
   50MOL   H20818926   0.612   1.808   7.113 -1.3634 -2.1323 -1.4403
   50MOL   H20918927   0.490   1.448   7.385 -0.3296  1.0021 -0.5810
   50MOL   H21018928   0.573   1.526   7.517 -0.8521 -0.2273  0.3183
   50MOL   C21118929   0.511   1.961   7.252  0.4323 -0.4502 -0.8456
   50MOL   C21218930   0.591   2.075   7.180 -0.1654 -0.2926 -0.0047
   50MOL   C21318931   0.633   2.171   7.287  0.2407 -0.1779 -0.0190
   50MOL   C21418932   0.574   2.118   7.418  0.1144 -0.2393 -0.5343
   50MOL   C21518933   0.667   2.141   7.541 -0.6854 -0.3426  1.2268
   50MOL   C21618934   0.706   2.290   7.557  0.2059 -0.3596 -0.0079
   50MOL   C21718935   0.560   1.968   7.393 -0.1637  0.3074  1.0863
   50MOL   H21818936   0.404   1.985   7.255  0.1655 -1.5840 -0.6691
   50MOL   H21918937   0.679   2.043   7.124 -0.5687  0.0163 -0.8206
   50MOL   H22018938   0.519   2.125   7.117 -0.0343 -0.7287 -0.4987
   50MOL   H22118939   0.742   2.171   7.290  0.3206  0.0749 -2.1058
   50MOL   H22218940   0.618   2.276   7.263 -1.6464 -0.5520 -0.5658
   50MOL   H22318941   0.477   2.162   7.439  0.6470 -0.3337  2.2994
   50MOL   H22418942   0.763   2.089   7.547  0.4922  1.4614 -0.9827
   50MOL   H22518943   0.623   2.102   7.633 -0.1219 -0.9722  1.2361
   50MOL   H22618944   0.784   2.302   7.481 -0.4451  0.1112 -0.6003
   50MOL   H22718945   0.618   2.349   7.532  0.5931 -0.3163 -1.3060
   50MOL   H22818946   0.490   1.933   7.468  0.0704 -1.4801  0.4896
   50MOL   H22918947   0.659   1.923   7.396 -0.1342  0.2044 -0.7416
   50MOL   C23018948   0.758   2.337   0.046  0.8929 -0.1560  0.4739
   50MOL   C23118949   0.797   2.485   0.046  0.5718 -0.0939  0.2212
   50MOL   C23218950   0.937   2.500   0.095  0.3198 -0.8250  0.1381
   50MOL   C23318951   1.000   2.364   0.063  0.6206 -0.2607 -0.6812
   50MOL   C23418952   1.121   2.340   0.151 -0.3834  0.3871 -0.4938
   50MOL   C23518953   1.173   2.202   0.151  0.1798  0.3890  0.0255
   50MOL   C23618954   0.886   2.269   0.096  0.0366  0.3814 -0.8170
   50MOL   H23718955   0.678   2.322   0.119  0.9628  1.8321  0.9896
   50MOL   H23818956   0.788   2.538   7.598  1.1220 -2.4072 -1.1666
   50MOL   H23918957   0.727   2.541   0.108 -1.5114 -1.2428 -0.9996
   50MOL   H24018958   0.944   2.507   0.203 -1.7663  1.8774  0.1595
   50MOL   H24118959   0.990   2.591   0.067 -0.3095 -0.8402 -1.1650
   50MOL   H24218960   1.019   2.345   7.604 -0.5785  0.0099 -0.9502
   50MOL   H24318961   1.095   2.369   0.253 -0.8188 -1.6446  0.0042
   50MOL   H24418962   1.209   2.403   0.138 -0.2088  0.3675  0.5962
   50MOL   H24518963   1.098   2.136   0.194 -0.6999  0.5463 -1.2254
   50MOL   H24618964   1.195   2.165   0.050  1.0069 -0.6994  0.5913
   50MOL   H24718965   0.863   2.271   0.203 -0.8104  2.8594 -1.0248
   50MOL   H24818966   0.899   2.163   0.072 -0.8654 -0.3808  1.8181
   50MOL   C24918967   1.301   2.185   0.233 -0.1910 -0.2342 -0.1069
   50MOL   C25018968   1.347   2.039   0.244 -0.3098 -0.6611 -0.8130
   50MOL   C25118969   1.490   2.067   0.298 -0.1374 -0.5292 -0.0550
   50MOL   C25218970   1.549   2.194   0.233 -0.1492  0.4719 -0.1498
   50MOL   C25318971   1.619   2.280   0.344 -1.6239  0.3424  0.2156
   50MOL   C25418972   1.750   2.212   0.391  0.7988 -0.4954  0.3884
   50MOL   C25518973   1.423   2.261   0.179 -0.3514  0.0030 -0.2179
   50MOL   H25618974   1.288   2.231   0.331  0.5334  1.6882 -0.8731
   50MOL   H25718975   1.285   2.000   0.325 -0.2664  0.1118 -0.4053
   50MOL   H25818976   1.350   1.986   0.149 -0.9240 -1.5813 -0.3245
   50MOL   H25918977   1.555   1.979   0.290 -1.7007 -1.5498 -2.0684
   50MOL   H26018978   1.488   2.082   0.406  0.8940  2.2696 -0.3828
   50MOL   H26118979   1.616   2.177   0.148  1.3773  0.9354  0.9442
   50MOL   H26218980   1.557   2.290   0.434  0.7683 -0.6930  2.0534
   50MOL   H26318981   1.646   2.377   0.303 -1.7566  0.1053 -0.4286
   50MOL   H26418982   1.802   2.180   0.301  0.0293 -3.7471  1.0562
   50MOL   H26518983   1.722   2.118   0.438  0.3036 -1.2691 -1.4054
   50MOL   H26618984   1.426   2.246   0.071 -1.1938  1.4231 -0.4507
   50MOL   H26718985   1.422   2.370   0.186 -0.3807  0.0409 -0.7813
   50MOL   C26818986   1.827   2.307   0.481  0.1812 -0.6798 -0.6321
   50MOL   C26918987   1.943   2.246   0.565 -0.4109 -0.3481  0.4793
   50MOL   C27018988   1.971   2.342   0.687  0.9076 -0.0328  0.0756
   50MOL   C27118989   1.837   2.415   0.707 -0.6966 -0.4527 -0.4556
   50MOL   C27218990   1.782   2.410   0.852 -0.1896 -0.3300 -0.0489
   50MOL   C27318991   1.649   2.489   0.875  0.6695  0.6209 -0.3057
   50MOL   C27418992   1.742   2.360   0.601  0.0910 -0.6917 -0.9685
   50MOL   H27518993   1.867   2.394   0.429 -1.4788  1.5577  1.7421
   50MOL   H27618994   1.912   2.147   0.599 -0.0692 -0.0007  1.8415
   50MOL   H27718995   2.028   2.248   0.497 -0.3328  2.0635  0.5915
   50MOL   H27818996   2.002   2.275   0.768  0.3526  0.8354  1.0195
   50MOL   H27918997   2.050   2.416   0.674 -1.0396  2.4421  1.7913
   50MOL   H28018998   1.856   2.518   0.676  0.0570 -0.7569 -1.0353
   50MOL   H28118999   1.860   2.436   0.924  1.6992 -0.0526 -2.1742
   50MOL   H28219000   1.760   2.304   0.864  1.4960 -0.9793 -2.4366
   50MOL   H28319001   1.663   2.594   0.852  0.4460  1.1335  1.8089
   50MOL   H28419002   1.569   2.449   0.812  1.2362 -2.0638  0.6218
   50MOL   H28519003   1.692   2.273   0.643 -0.3552  0.8005  1.6854
   50MOL   H28619004   1.667   2.435   0.574 -0.4049 -1.0265 -0.5288
   50MOL   C28719005   1.595   2.483   1.018 -0.7939 -0.4814  0.3343
   50MOL   C28819006   1.457   2.553   1.023 -0.9074 -0.5401 -0.2425
   50MOL   C28919007   1.371   2.466   1.117  0.3119 -0.1315  0.6414
   50MOL   C29019008   1.474   2.366   1.181  0.0480 -0.1753 -0.2469
   50MOL   C29119009   1.409   2.242   1.237  0.2939 -0.0410  0.2616
   50MOL   C29219010   1.318   2.156   1.146 -0.6815  0.1101  0.0475
   50MOL   C29319011   1.575   2.346   1.075  0.3827 -0.6142 -0.0669
   50MOL   H29419012   1.670   2.526   1.084 -1.2479 -0.8258  1.0869
   50MOL   H29519013   1.468   2.648   1.075 -1.8996 -0.8703  0.6018
   50MOL   H29619014   1.417   2.562   0.922  0.3591 -3.2918 -1.0332
   50MOL   H29719015   1.298   2.422   1.050  0.6331  0.9172 -0.4171
   50MOL   H29819016   1.309   2.514   1.193 -0.0881 -3.0897  2.2691
   50MOL   H29919017   1.524   2.419   1.263 -2.5535 -0.4299  1.5509
   50MOL   H30019018   1.343   2.266   1.321 -1.5965  0.3669 -1.3117
   50MOL   H30119019   1.489   2.187   1.287  0.7772  1.9117  1.6874
   50MOL   H30219020   1.367   2.111   1.060 -1.7444  1.0447 -1.0567
   50MOL   H30319021   1.241   2.221   1.104  0.2549  0.4599 -1.1447
   50MOL   H30419022   1.535   2.283   0.996  1.2883 -2.2104  0.7263
   50MOL   H30519023   1.667   2.302   1.114  0.7307 -1.0299 -1.3498
   50MOL   C30619024   1.251   2.038   1.215  0.3594 -0.4573  0.3324
   50MOL   C30719025   1.135   1.995   1.126 -0.0495  0.2555 -0.3500
   50MOL   C30819026   1.104   1.851   1.176 -0.6202 -0.3975 -0.1478
   50MOL   C30919027   1.245   1.792   1.210 -0.0439 -0.0776 -0.2481
   50MOL   C31019028   1.295   1.687   1.103  0.3927 -0.9605  0.3735
   50MOL   C31119029   1.427   1.625   1.137  0.3744  0.6786  0.1513
   50MOL   C31219030   1.343   1.919   1.212  0.2024  0.6282  0.0625
   50MOL   H31319031   1.218   2.068   1.314  0.8046  1.4053 -0.0680
   50MOL   H31419032   1.053   2.066   1.118 -0.3015  0.2249  1.5381
   50MOL   H31519033   1.179   1.979   1.028  0.6151 -0.2904  0.0303
   50MOL   H31619034   1.039   1.856   1.263  0.1729  1.1309  0.3656
   50MOL   H31719035   1.043   1.789   1.110  0.6154 -0.5640 -1.1528
   50MOL   H31819036   1.246   1.733   1.302 -3.2346 -1.9132 -1.3067
   50MOL   H31919037   1.219   1.610   1.098 -0.7493 -0.0196  2.3170
   50MOL   H32019038   1.292   1.737   1.006 -2.4810 -0.2315  0.7793
   50MOL   H32119039   1.417   1.535   1.197  0.6149  0.9643  0.6323
   50MOL   H32219040   1.483   1.701   1.192  0.5914  1.8280 -1.6076
   50MOL   H32319041   1.410   1.917   1.125 -1.0364  0.7921 -0.9148
   50MOL   H32419042   1.408   1.920   1.299  0.6918 -0.6347 -0.2738
   50MOL   C32519043   1.503   1.583   1.013 -0.7752  0.4180 -0.0909
   50MOL   C32619044   1.632   1.513   1.058  0.2103 -0.6551  0.3886
   50MOL   C32719045   1.655   1.392   0.969 -0.0011 -0.5598  0.4043
   50MOL   C32819046   1.509   1.351   0.937 -0.1840  0.5149  0.1907
   50MOL   C32919047   1.490   1.275   0.803  0.4618  0.0169 -0.0942
   50MOL   C33019048   1.521   1.129   0.799 -0.0336  0.1988  0.1087
   50MOL   C33119049   1.434   1.483   0.930 -0.1238 -0.7142 -0.2396
   50MOL   H33219050   1.538   1.659   0.943  0.9198 -1.1234 -0.9645
   50MOL   H33319051   1.611   1.469   1.156  2.6049 -0.9732  0.7929
   50MOL   H33419052   1.727   1.567   1.062 -0.6331  1.0471 -1.8653
   50MOL   H33519053   1.710   1.412   0.877 -1.2158  0.5937 -0.0764
   50MOL   H33619054   1.703   1.313   1.027 -1.0433 -0.4099  1.4909
   50MOL   H33719055   1.463   1.294   1.018 -1.4911  0.7593 -0.3661
   50MOL   H33819056   1.384   1.273   0.778  0.3561 -2.6330  0.4380
   50MOL   H33919057   1.543   1.334   0.728 -1.0374 -0.0584 -1.2449
   50MOL   H34019058   1.449   1.064   0.849  1.0301  0.7979  2.4425
   50MOL   H34119059   1.510   1.097   0.695  2.1402 -1.9911  0.5014
   50MOL   H34219060   1.328   1.474   0.956 -0.3601 -0.1244 -1.0045
   50MOL   H34319061   1.429   1.517   0.827 -4.8850 -0.0511  0.0914
   50MOL   C34419062   1.667   1.085   0.818 -0.3317 -0.5564 -0.5909
   50MOL   C34519063   1.760   1.157   0.716  0.7934 -0.1725 -0.1954
   50MOL   C34619064   1.861   1.052   0.666  0.3197  0.3702  0.1151
   50MOL   C34719065   1.772   0.927   0.664  0.0529 -0.1090  0.0451
   50MOL   C34819066   1.850   0.801   0.631  0.7261  0.0176  0.3554
   50MOL   C34919067   1.879   0.787   0.477 -0.0534  0.6081 -0.3544
   50MOL   C35019068   1.693   0.936   0.799  0.0657  0.0015 -0.5850
   50MOL   H35119069   1.690   1.106   0.923 -1.9936  0.7786 -0.4665
   50MOL   H35219070   1.806   1.248   0.753  1.7691 -0.3668 -0.9082
   50MOL   H35319071   1.706   1.190   0.627  3.2526 -1.3508 -2.2014
   50MOL   H35419072   1.898   1.086   0.569 -0.1989  1.1552  0.1852
   50MOL   H35519073   1.948   1.033   0.729 -0.0976  0.2453  0.6581
   50MOL   H35619074   1.699   0.940   0.584 -0.2458  3.0208  0.7595
   50MOL   H35719075   1.946   0.804   0.683  0.9957 -1.8849 -0.0079
   50MOL   H35819076   1.799   0.714   0.671 -0.9924  0.1234 -1.5181
   50MOL   H35919077   1.940   0.872   0.447  0.7273 -0.2901 -1.3526
   50MOL   H36019078   1.785   0.787   0.422  0.8734 -0.1068 -1.9935
   50MOL   H36119079   1.597   0.885   0.792  0.7897 -1.2108 -2.2103
   50MOL   H36219080   1.751   0.894   0.881  1.5816  1.7744 -0.6986
   50MOL   C36319081   1.953   0.658   0.448  0.3575 -0.2223  0.0883
   50MOL   C36419082   1.976   0.624   0.296  0.2793 -0.9385  0.1271
   50MOL   C36519083   1.959   0.470   0.277  0.2046 -0.2051 -0.4249
   50MOL   C36619084   1.963   0.416   0.421 -0.1389  0.2582  0.3865
   50MOL   C36719085   1.911   0.273   0.428 -0.0198  0.3105  0.0171
   50MOL   C36819086   1.904   0.207   0.568  0.0974 -0.0986 -0.4188
   50MOL   C36919087   1.888   0.525   0.490  0.5204 -0.2930  0.2942
   50MOL   H37019088   2.051   0.675   0.493  0.9200  2.7149 -2.1529
   50MOL   H37119089   1.901   0.674   0.235  0.5209 -1.5160 -0.6476
   50MOL   H37219090   2.077   0.658   0.273 -0.7315  0.9206 -1.7698
   50MOL   H37319091   1.867   0.442   0.224 -1.1473  2.0069  0.6923
   50MOL   H37419092   2.049   0.433   0.227 -0.1973 -2.2632  0.2921
   50MOL   H37519093   2.063   0.417   0.463  0.5790 -0.5382 -1.2529
   50MOL   H37619094   1.819   0.254   0.372 -0.6870  4.0498 -0.2769
   50MOL   H37719095   1.982   0.208   0.377 -1.3144 -0.2863 -1.0824
   50MOL   H37819096   2.002   0.206   0.614  0.1185 -1.8923 -0.4492
   50MOL   H37919097   1.867   0.105   0.559 -0.1782 -0.0505  0.1347
   50MOL   H38019098   1.781   0.519   0.470  0.6550  0.5468 -0.6588
   50MOL   H38119099   1.889   0.510   0.598  0.1419 -1.2302  0.1681
   50MOL   H38219100   1.837   0.265   0.631 -1.5005 -0.6323 -1.5892
   51MOL     C119101   4.119   5.637   2.425  0.0289 -0.2452 -0.2336
   51MOL     C219102   4.171   5.593   2.559  0.1343 -0.0100  0.0459
   51MOL     C319103   4.037   5.585   2.636  0.3949  0.3514  0.0280
   51MOL     C419104   3.949   5.696   2.588  0.6193  0.0771 -0.8657
   51MOL     C519105   3.971   5.827   2.676  0.4691  0.2842 -0.1788
   51MOL     C619106   3.864   5.938   2.653  0.2828 -0.5632 -0.2362
   51MOL     C719107   3.990   5.716   2.442  0.3278 -0.0560  0.0719
   51MOL     H819108   4.200   5.663   2.356  0.1835  0.0146  0.0467
   51MOL     H919109   4.238   5.668   2.601  0.0218  0.2710 -0.2723
   51MOL    H1019110   4.217   5.495   2.551  0.1759 -0.0239  0.4585
   51MOL    H1119111   3.983   5.493   2.612 -1.5086  1.4612 -0.0705
   51MOL    H1219112   4.053   5.592   2.743  0.6742  1.3054 -0.0760
   51MOL    H1319113   3.845   5.666   2.595  0.8643 -0.2527  1.7311
   51MOL    H1419114   3.947   5.808   2.780  2.4303  1.6799  0.5607
   51MOL    H1519115   4.076   5.858   2.679  0.0255  1.7306  1.3376
   51MOL    H1619116   3.842   5.946   2.547  0.2067 -0.2620 -0.1969
   51MOL    H1719117   3.771   5.904   2.697 -0.4495  2.2962  0.4834
   51MOL    H1819118   3.917   5.679   2.370  0.8488 -2.9415  0.9643
   51MOL    H1919119   4.016   5.817   2.411 -0.7107 -0.2139 -1.3602
   51MOL    H2019120   4.078   5.541   2.392 -2.1788  1.3866 -2.4280
   51MOL    C2119121   3.912   6.077   2.701  0.4789  0.4672  0.0506
   51MOL    C2219122   3.820   6.194   2.658 -0.0101  0.4152  0.0310
   51MOL    C2319123   3.816   6.287   2.781  0.1154 -0.3773  0.3378
   51MOL    C2419124   3.912   6.227   2.887  0.1996 -0.4880 -0.2000
   51MOL    C2519125   3.882   6.262   3.033  0.2817 -0.5418  0.5678
   51MOL    C2619126   3.991   6.216   3.133 -0.2936 -0.4127  0.3232
   51MOL    C2719127   3.915   6.080   2.858  0.8528 -1.0261  0.0366
   51MOL    H2819128   4.011   6.108   2.669 -1.0976  3.3465 -2.2671
   51MOL    H2919129   3.862   6.242   2.569  2.3948  0.0219  0.9083
   51MOL    H3019130   3.719   6.161   2.638  0.0831  1.4524 -2.4494
   51MOL    H3119131   3.856   6.379   2.738 -0.4160 -0.8541 -1.2139
   51MOL    H3219132   3.720   6.299   2.832  0.3208 -1.6660  1.0316
   51MOL    H3319133   4.010   6.262   2.854 -0.0592 -0.7370 -1.2589
   51MOL    H3419134   3.779   6.238   3.061  0.2275  2.1480  2.9139
   51MOL    H3519135   3.874   6.370   3.026  0.1401 -0.2658  4.0704
   51MOL    H3619136   4.089   6.238   3.089  0.0113  2.0960  2.2127
   51MOL    H3719137   3.985   6.107   3.132  2.5764 -0.6213  0.7151
   51MOL    H3819138   3.999   6.019   2.891  0.9570 -2.2070 -2.2642
   51MOL    H3919139   3.829   6.026   2.898 -0.7987 -0.1208 -2.1535
   51MOL    C4019140   3.974   6.265   3.275 -0.3802 -0.5302  0.1872
   51MOL    C4119141   3.854   6.194   3.344 -0.1222 -0.3046  0.4373
   51MOL    C4219142   3.886   6.219   3.495  0.2468  0.4535  0.9646
   51MOL    C4319143   4.041   6.201   3.507  0.0868  0.6116  0.3903
   51MOL    C4419144   4.115   6.274   3.618 -0.0362  0.3935  0.7748
   51MOL    C4519145   4.065   6.222   3.752  0.1869  0.5528 -0.2915
   51MOL    C4619146   4.095   6.236   3.368  0.2068 -0.1671 -0.3419
   51MOL    H4719147   3.954   6.371   3.282 -0.8202 -0.5717 -0.4265
   51MOL    H4819148   3.842   6.088   3.319 -0.4812  0.2445 -1.7603
   51MOL    H4919149   3.753   6.232   3.327 -0.4063 -0.7684  1.0222
   51MOL    H5019150   3.854   6.321   3.516  0.1165  0.6100  0.0040
   51MOL    H5119151   3.836   6.152   3.566  0.0556  0.8602  1.2127
   51MOL    H5219152   4.076   6.099   3.525  0.9251  1.2083  2.2455
   51MOL    H5319153   4.220   6.252   3.600 -0.6355 -0.8105 -1.3373
   51MOL    H5419154   4.105   6.383   3.612  2.1893  0.5663 -0.4826
   51MOL    H5519155   4.062   6.113   3.744 -0.2296  0.6089 -0.8885
   51MOL    H5619156   3.960   6.243   3.771 -0.3304 -1.2677 -0.9873
   51MOL    H5719157   4.168   6.315   3.376  0.0905 -0.2301  1.5288
   51MOL    H5819158   4.137   6.142   3.331  0.7449 -0.6002  1.2869
   51MOL    C5919159   4.154   6.278   3.870 -0.0622  0.2290 -0.3173
   51MOL    C6019160   4.141   6.431   3.895 -0.5037 -0.1786  0.3851
   51MOL    C6119161   4.200   6.450   4.030  0.9048 -0.3554 -0.1997
   51MOL    C6219162   4.157   6.323   4.115 -0.1841  0.4461  0.1179
   51MOL    C6319163   4.259   6.287   4.220 -0.4124 -0.0396 -0.7248
   51MOL    C6419164   4.290   6.388   4.325 -0.6328 -0.1895 -0.2378
   51MOL    C6519165   4.125   6.212   4.004 -1.0142  0.4424  0.3114
   51MOL    H6619166   4.258   6.255   3.846 -0.1280 -0.6816  0.2165
   51MOL    H6719167   4.180   6.495   3.815  0.6939 -1.2479  0.0911
   51MOL    H6819168   4.034   6.449   3.893 -0.3511  0.6776 -0.7669
   51MOL    H6919169   4.308   6.444   4.026  0.9008 -0.1378 -0.6387
   51MOL    H7019170   4.176   6.543   4.083  2.6726 -1.4495  2.6404
   51MOL    H7119171   4.067   6.361   4.164 -0.0070  1.2115 -0.1492
   51MOL    H7219172   4.354   6.259   4.175  0.6341  0.3980  1.1683
   51MOL    H7319173   4.230   6.193   4.266 -0.9999  1.3107  1.7636
   51MOL    H7419174   4.342   6.473   4.281  0.4044 -0.1930  0.9477
   51MOL    H7519175   4.204   6.441   4.364  1.2092  2.0261  0.9752
   51MOL    H7619176   4.186   6.123   4.016 -1.3179  0.0174 -1.1794
   51MOL    H7719177   4.018   6.193   4.014 -0.8404 -0.9051 -0.3546
   51MOL    C7819178   4.393   6.350   4.437  0.3001 -0.4254 -0.2253
   51MOL    C7919179   4.431   6.472   4.529 -0.3342  0.5837  0.3484
   51MOL    C8019180   4.460   6.409   4.664 -0.9367  0.0671 -0.1549
   51MOL    C8119181   4.434   6.250   4.651 -0.1015 -0.0479  0.6308
   51MOL    C8219182   4.385   6.172   4.770  0.4237 -0.1336 -0.2225
   51MOL    C8319183   4.371   6.020   4.742  0.1435 -0.3404  0.6075
   51MOL    C8419184   4.334   6.241   4.537 -0.3135  0.2184  0.6092
   51MOL    H8519185   4.486   6.311   4.398 -0.6083 -2.6278 -0.2676
   51MOL    H8619186   4.518   6.517   4.480 -2.1275  1.8149 -1.7877
   51MOL    H8719187   4.351   6.545   4.537 -0.6334  0.8071 -3.6990
   51MOL    H8819188   4.562   6.427   4.697 -0.4778  1.7729 -2.3918
   51MOL    H8919189   4.397   6.450   4.743  0.7546  1.3951  0.5121
   51MOL    H9019190   4.528   6.210   4.613 -1.0287 -0.4013 -1.3795
   51MOL    H9119191   4.295   6.212   4.817 -0.1172  1.7275 -2.7498
   51MOL    H9219192   4.460   6.186   4.848 -0.0989  1.5856 -0.0087
   51MOL    H9319193   4.461   6.007   4.682 -0.7950 -1.9113 -0.4876
   51MOL    H9419194   4.288   6.010   4.672  0.7905  2.3517 -0.5984
   51MOL    H9519195   4.238   6.278   4.573 -0.1690  2.2286 -0.9771
   51MOL    H9619196   4.329   6.140   4.497  0.0919  0.4564 -0.0435
   51MOL    C9719197   4.373   5.922   4.862  0.2960  0.5039  0.4274
   51MOL    C9819198   4.507   5.917   4.940  0.5106  0.0316  0.2408
   51MOL    C9919199   4.566   5.779   4.923  0.2675 -0.8987 -0.0842
   51MOL   C10019200   4.456   5.687   4.886 -0.0519  0.0445 -0.2407
   51MOL   C10119201   4.496   5.566   4.804  0.4275 -0.3715  0.0796
   51MOL   C10219202   4.384   5.469   4.794  0.0830  0.6143 -0.1724
   51MOL   C10319203   4.354   5.779   4.814  0.1981  0.5398  0.9591
   51MOL   H10419204   4.303   5.940   4.944  1.0200  1.2729  0.8908
   51MOL   H10519205   4.578   5.998   4.923  0.5858 -0.2522 -0.8706
   51MOL   H10619206   4.475   5.927   5.044  1.0555 -0.4852  0.4557
   51MOL   H10719207   4.636   5.773   4.840 -1.1999 -1.1001 -1.3113
   51MOL   H10819208   4.626   5.748   5.009  0.7548  1.6273  0.5422
   51MOL   H10919209   4.404   5.655   4.977 -0.7708  0.0855 -0.6303
   51MOL   H11019210   4.521   5.602   4.704 -0.2109  1.4009  0.5510
   51MOL   H11119211   4.581   5.513   4.846 -0.2103  0.0770  2.0039
   51MOL   H11219212   4.353   5.427   4.889 -2.7634  1.7568 -0.5346
   51MOL   H11319213   4.289   5.503   4.753  0.0877  0.2896 -0.4536
   51MOL   H11419214   4.372   5.772   4.707 -1.1546  0.3454  0.7324
   51MOL   H11519215   4.256   5.738   4.838 -0.3776  1.4816  0.2356
   51MOL   C11619216   4.427   5.343   4.715 -0.2137  0.7461  0.9994
   51MOL   C11719217   4.340   5.218   4.728 -0.7453 -0.0865 -0.3033
   51MOL   C11819218   4.385   5.128   4.611  0.6808  0.2385 -0.7374
   51MOL   C11919219   4.436   5.229   4.508  0.2369  0.3742 -0.2236
   51MOL   C12019220   4.364   5.217   4.372  0.5757  0.2503 -0.1708
   51MOL   C12119221   4.354   5.064   4.327  0.1010  0.0902 -0.2611
   51MOL   C12219222   4.430   5.373   4.565 -0.3888  0.1721  0.3607
   51MOL   H12319223   4.532   5.320   4.736  0.4409  1.7921 -1.0414
   51MOL   H12419224   4.238   5.251   4.705 -1.4238 -1.6316  0.4382
   51MOL   H12519225   4.338   5.169   4.825  0.8280  1.9332  0.7801
   51MOL   H12619226   4.295   5.076   4.577  0.7938 -0.4315 -0.0295
   51MOL   H12719227   4.458   5.052   4.639 -0.0144  0.1302  0.8823
   51MOL   H12819228   4.541   5.210   4.487 -0.6190 -2.5254 -2.1779
   51MOL   H12919229   4.412   5.280   4.297  0.8390 -0.8823 -0.9711
   51MOL   H13019230   4.268   5.266   4.389  0.7976  1.0441 -1.1743
   51MOL   H13119231   4.258   5.021   4.353  1.0072 -1.8114 -0.0101
   51MOL   H13219232   4.423   5.005   4.387  3.2144  3.9747  0.2166
   51MOL   H13319233   4.520   5.428   4.536 -0.1029 -1.2253 -1.5406
   51MOL   H13419234   4.343   5.431   4.536  0.2598  1.5342  1.0701
   51MOL   C13519235   4.396   5.043   4.178  0.5506  0.1230 -0.4964
   51MOL   C13619236   4.382   4.899   4.131 -0.2918  0.1686  0.2307
   51MOL   C13719237   4.383   4.919   3.977 -0.0906 -0.6396 -0.7997
   51MOL   C13819238   4.302   5.047   3.942  0.2115 -0.2970 -0.4769
   51MOL   C13919239   4.327   5.108   3.805 -0.8822 -0.6216 -0.0479
   51MOL   C14019240   4.224   5.218   3.763 -0.1181  0.6008  0.0410
   51MOL   C14119241   4.317   5.132   4.074 -0.5821 -0.3274  0.0652
   51MOL   H14219242   4.502   5.068   4.171  0.5653  0.6518  1.3670
   51MOL   H14319243   4.462   4.831   4.161  0.1293  0.3144 -0.5418
   51MOL   H14419244   4.286   4.854   4.155 -0.9116  0.6471 -1.3403
   51MOL   H14519245   4.483   4.920   3.934  0.3482  1.2161  0.1844
   51MOL   H14619246   4.328   4.834   3.938 -0.4721 -1.2417  0.9913
   51MOL   H14719247   4.196   5.025   3.953  0.3678 -0.7557  0.1622
   51MOL   H14819248   4.315   5.038   3.723  0.5653 -0.0724 -0.7480
   51MOL   H14919249   4.430   5.143   3.796 -0.7568 -1.4733 -2.1431
   51MOL   H15019250   4.129   5.169   3.744 -0.5372  1.6169 -0.5287
   51MOL   H15119251   4.185   5.274   3.848 -1.2629 -0.5826  0.3026
   51MOL   H15219252   4.219   5.158   4.113 -1.6366 -3.9280  0.0171
   51MOL   H15319253   4.367   5.228   4.061 -2.3870  1.1439  3.3325
   51MOL   C15419254   4.268   5.315   3.656  0.5539  0.0576  0.4000
   51MOL   C15519255   4.155   5.413   3.629 -0.4633 -0.5804  0.0774
   51MOL   C15619256   4.105   5.394   3.479 -0.1462 -0.0956 -0.4776
   51MOL   C15719257   4.238   5.338   3.416  0.1653 -0.5591 -0.3126
   51MOL   C15819258   4.206   5.266   3.286  0.0530 -0.0310  0.1009
   51MOL   C15919259   4.186   5.371   3.171  0.1775 -0.2519  0.1150
   51MOL   C16019260   4.305   5.246   3.523 -0.5904  0.5319 -0.1925
   51MOL   H16119261   4.355   5.365   3.698 -0.6118  0.6817  2.0976
   51MOL   H16219262   4.069   5.418   3.695  1.3080 -0.9747  2.4807
   51MOL   H16319263   4.205   5.510   3.628 -1.6781  0.0562  0.7712
   51MOL   H16419264   4.034   5.312   3.486  3.0471 -2.9574 -0.0835
   51MOL   H16519265   4.064   5.483   3.433  0.0006  0.3709  0.2846
   51MOL   H16619266   4.303   5.424   3.395 -3.0235  2.3788  1.4344
   51MOL   H16719267   4.111   5.213   3.290  1.2426 -2.0942  2.4408
   51MOL   H16819268   4.294   5.204   3.269  0.7057  1.5450 -2.6192
   51MOL   H16919269   4.103   5.440   3.188 -0.1379 -0.5171 -0.3362
   51MOL   H17019270   4.284   5.419   3.166 -0.4072  0.7733 -2.1474
   51MOL   H17119271   4.413   5.245   3.514 -0.5107 -0.4067  0.7451
   51MOL   H17219272   4.265   5.145   3.513 -0.9307  0.4475  1.7594
   51MOL   C17319273   4.156   5.300   3.036  0.0355 -0.5038  0.6263
   51MOL   C17419274   4.175   5.404   2.915 -0.1053 -0.1537  0.2611
   51MOL   C17519275   4.207   5.315   2.789 -0.0461  0.0604  0.3278
   51MOL   C17619276   4.247   5.177   2.844  0.4207 -0.1198  0.6720
   51MOL   C17719277   4.380   5.114   2.782 -0.6575 -0.4872 -0.1415
   51MOL   C17819278   4.366   5.062   2.638 -0.7290  0.3654  0.6147
   51MOL   C17919279   4.257   5.198   2.997 -0.3853  0.1426  1.1240
   51MOL   H18019280   4.052   5.269   3.041 -0.0798 -1.1531 -3.8176
   51MOL   H18119281   4.265   5.463   2.932  0.7864 -1.7578  1.1827
   51MOL   H18219282   4.083   5.460   2.900  0.6980  1.6904  1.9239
   51MOL   H18319283   4.129   5.304   2.714  1.6783  1.6734 -1.7606
   51MOL   H18419284   4.298   5.349   2.739  1.6628 -1.6092  2.1687
   51MOL   H18519285   4.162   5.115   2.814 -0.7300  1.4237  0.6574
   51MOL   H18619286   4.405   5.030   2.847 -1.2439  0.6082  1.5263
   51MOL   H18719287   4.459   5.189   2.781 -1.2980  0.2357  1.4170
   51MOL   H18819288   4.295   5.117   2.576  0.7913  0.2039 -1.3219
   51MOL   H18919289   4.327   4.960   2.641 -0.9096  0.3011 -2.1283
   51MOL   H19019290   4.361   5.216   3.026  0.5483  2.2243 -3.0399
   51MOL   H19119291   4.228   5.117   3.064 -0.7470 -0.1926  0.5640
   51MOL   C19219292   4.510   5.053   2.576 -0.0637  0.3777  0.0406
   51MOL   C19319293   4.521   4.992   2.434 -0.4745  0.3465 -0.4819
   51MOL   C19419294   4.664   4.939   2.415  0.1449 -0.3863 -0.7905
   51MOL   C19519295   4.718   4.906   2.554  0.3405  0.1807  0.5285
   51MOL   C19619296   4.853   4.979   2.589  0.4339  0.0214  0.2878
   51MOL   C19719297   4.917   4.945   2.722 -0.0691  0.1581 -0.6137
   51MOL   C19819298   4.599   4.943   2.649 -0.0033  0.4658  0.3043
   51MOL   H19919299   4.551   5.154   2.585 -0.9800  0.5759  2.2929
   51MOL   H20019300   4.439   4.927   2.404 -0.8159  1.2590 -1.5555
   51MOL   H20119301   4.513   5.072   2.361 -1.2867 -1.4187 -2.3657
   51MOL   H20219302   4.724   5.025   2.385 -1.1934  0.8402 -0.0329
   51MOL   H20319303   4.685   4.860   2.342  0.5083  0.0940 -1.2116
   51MOL   H20419304   4.731   4.798   2.556  5.3108  0.6887  1.7694
   51MOL   H20519305   4.844   5.086   2.575 -1.3521 -0.2956 -1.1154
   51MOL   H20619306   4.930   4.947   2.519  0.8750  0.2036  0.6857
   51MOL   H20719307   4.931   4.837   2.726 -2.4451 -0.1263  1.1503
   51MOL   H20819308   4.855   4.971   2.808 -0.8687 -0.1596 -1.0850
   51MOL   H20919309   4.634   4.979   2.745 -1.6122  0.6485  0.8402
   51MOL   H21019310   4.549   4.847   2.660  2.4023 -0.7116  1.4023
   51MOL   C21119311   5.057   5.007   2.743 -0.2279  0.2901 -0.1495
   51MOL   C21219312   5.179   4.960   2.656  0.7264  0.3360 -0.4661
   51MOL   C21319313   5.303   4.954   2.748 -0.4045  0.5249  0.5339
   51MOL   C21419314   5.254   5.011   2.878 -0.1035  0.2069  0.2819
   51MOL   C21519315   5.328   4.967   3.001  0.0103  0.1771  0.4001
   51MOL   C21619316   5.469   5.028   3.020  0.4098 -0.5083 -0.2382
   51MOL   C21719317   5.104   4.972   2.883  0.1293 -0.0545 -0.0122
   51MOL   H21819318   5.038   5.114   2.733  1.5851  0.3513 -3.6825
   51MOL   H21919319   5.145   4.872   2.600  0.9455  0.0706 -0.1778
   51MOL   H22019320   5.189   5.041   2.584 -2.3830 -0.4369 -1.8754
   51MOL   H22119321   5.350   4.856   2.751 -0.7175  0.3155 -0.8447
   51MOL   H22219322   5.384   5.017   2.712 -1.2358  0.6305 -1.2192
   51MOL   H22319323   5.262   5.118   2.861  0.9129  0.0139 -0.5273
   51MOL   H22419324   5.334   4.858   3.009  0.3334  0.2015  0.5045
   51MOL   H22519325   5.269   5.015   3.079 -2.3367 -0.6270 -0.8201
   51MOL   H22619326   5.458   5.136   3.006  2.0521 -0.3886 -0.7319
   51MOL   H22719327   5.493   5.017   3.125 -0.8232 -3.5924 -0.2288
   51MOL   H22819328   5.043   5.005   2.967  1.5047 -0.7545  1.2929
   51MOL   H22919329   5.084   4.865   2.882 -0.6336  0.0703 -2.9099
   51MOL   C23019330   5.588   4.965   2.943  0.6999 -0.4992  0.5287
   51MOL   C23119331   5.650   4.841   3.006  0.7422 -0.5789  0.4551
   51MOL   C23219332   5.801   4.844   2.959 -0.3266  0.2514 -0.2852
   51MOL   C23319333   5.832   4.994   2.966  0.0319  0.3331 -0.1552
   51MOL   C23419334   5.955   5.038   2.889  0.6491 -0.1264 -0.0712
   51MOL   C23519335   6.087   4.999   2.944  0.2891 -0.2236 -0.0629
   51MOL   C23619336   5.703   5.064   2.919  0.2613  0.2713 -0.2850
   51MOL   H23719337   5.552   4.942   2.843  1.4797 -0.7042  0.2956
   51MOL   H23819338   5.643   4.856   3.114 -1.2546 -1.0257  0.3992
   51MOL   H23919339   5.595   4.754   2.970 -1.3653  1.6168 -1.8357
   51MOL   H24019340   5.811   4.831   2.851 -0.9124  2.0904 -0.5920
   51MOL   H24119341   5.862   4.770   3.010  1.2850  0.4493 -1.8634
   51MOL   H24219342   5.850   5.020   3.070  0.7149  0.3290 -0.2726
   51MOL   H24319343   5.946   5.146   2.876 -1.1119 -0.0467  1.5810
   51MOL   H24419344   5.947   4.996   2.789 -0.6114  0.3306 -0.1689
   51MOL   H24519345   6.106   5.048   3.040 -0.9559  3.1530 -1.4732
   51MOL   H24619346   6.067   4.896   2.975 -0.1496 -1.0244 -2.8689
   51MOL   H24719347   5.711   5.108   2.819  2.5641  0.1657 -0.1643
   51MOL   H24819348   5.688   5.145   2.990  2.0019 -0.5425  1.0407
   51MOL   C24919349   6.201   5.025   2.843  0.6901 -0.5382 -0.4934
   51MOL   C25019350   6.239   5.174   2.829 -0.0554  0.1285  1.0172
   51MOL   C25119351   6.381   5.179   2.779 -0.3121  0.3928 -0.6781
   51MOL   C25219352   6.446   5.059   2.840  0.3799 -0.0459 -0.3517
   51MOL   C25319353   6.564   5.014   2.752  0.1982  0.0213 -0.5673
   51MOL   C25419354   6.656   4.914   2.822  0.4783 -0.0290 -0.0452
   51MOL   C25519355   6.334   4.957   2.884  0.0608  0.5708  0.1525
   51MOL   H25619356   6.182   5.000   2.739  1.1879 -1.6128 -0.3321
   51MOL   H25719357   6.176   5.236   2.765 -1.5077 -0.6360  1.6911
   51MOL   H25819358   6.222   5.215   2.928  0.4880  0.1782  1.0913
   51MOL   H25919359   6.437   5.264   2.818 -0.4656 -0.3975  1.3191
   51MOL   H26019360   6.386   5.169   2.670 -1.9976 -0.4496 -0.7008
   51MOL   H26119361   6.485   5.102   2.932 -2.5013  0.8029  0.5414
   51MOL   H26219362   6.608   5.109   2.721  2.1344 -0.0915  1.6745
   51MOL   H26319363   6.523   4.968   2.662  0.5672 -0.5236 -0.4607
   51MOL   H26419364   6.597   4.825   2.844  0.9841 -0.1351  0.8801
   51MOL   H26519365   6.684   4.965   2.914  2.5302  1.0984 -1.2591
   51MOL   H26619366   6.328   4.926   2.989  0.6125 -1.2133 -0.3274
   51MOL   H26719367   6.348   4.864   2.830 -1.4624  1.5974 -2.0620
   51MOL   C26819368   6.796   4.890   2.749  0.7476 -0.4021 -0.5322
   51MOL   C26919369   6.774   4.808   2.619 -0.3812  0.4505 -0.6549
   51MOL   C27019370   6.824   4.666   2.662 -0.0150  0.2677 -0.2173
   51MOL   C27119371   6.947   4.704   2.744  0.1801  0.3365 -1.0385
   51MOL   C27219372   7.006   4.594   2.830 -0.0897  1.1681  0.5722
   51MOL   C27319373   7.146   4.613   2.885  0.0327  0.0502  0.2150
   51MOL   C27419374   6.895   4.814   2.836 -0.0052 -0.7163  0.4230
   51MOL   H27519375   6.823   4.992   2.720 -0.0492  0.3003  1.1016
   51MOL   H27619376   6.671   4.810   2.584 -0.2157  0.6497 -1.1281
   51MOL   H27719377   6.842   4.830   2.537 -0.6266 -0.4823 -1.1164
   51MOL   H27819378   6.746   4.623   2.725 -0.9859 -0.2733 -1.7328
   51MOL   H27919379   6.844   4.594   2.582  0.7826  1.5328 -1.1679
   51MOL   H28019380   7.020   4.744   2.673  0.5482  2.7795  0.6458
   51MOL   H28119381   7.005   4.504   2.768 -3.1372  0.7919  1.1070
   51MOL   H28219382   6.938   4.559   2.908 -0.4495  0.4764 -0.0490
   51MOL   H28319383   7.218   4.649   2.812  1.4726 -0.1111  1.5290
   51MOL   H28419384   7.148   4.704   2.946 -1.6333  0.4260 -0.2556
   51MOL   H28519385   6.858   4.757   2.921  0.8909 -2.7476 -0.5252
   51MOL   H28619386   6.977   4.878   2.869 -1.4662  0.3333  2.1965
   51MOL   C28719387   7.200   4.493   2.963  0.9659 -0.6961 -0.3286
   51MOL   C28819388   7.333   4.506   3.026 -0.1530  0.1831  0.2330
   51MOL   C28919389   7.340   4.432   3.153 -0.0301  0.1332  0.2525
   51MOL   C29019390   7.198   4.392   3.193 -0.0510 -0.4821 -0.7046
   51MOL   C29119391   7.161   4.443   3.339  0.2767  0.0597 -0.5559
   51MOL   C29219392   7.014   4.426   3.379  0.4297 -0.1159  0.1515
   51MOL   C29319393   7.110   4.448   3.083  0.1968 -0.3378  0.2224
   51MOL   H29419394   7.213   4.410   2.893 -1.6684 -0.9062 -0.6378
   51MOL   H29519395   7.413   4.480   2.956  0.5238  2.9485 -0.0912
   51MOL   H29619396   7.352   4.611   3.048 -2.3455  0.4870  0.7511
   51MOL   H29719397   7.399   4.488   3.227  0.7983  1.6387 -1.5123
   51MOL   H29819398   7.396   4.341   3.131 -0.0250 -0.1949  1.5471
   51MOL   H29919399   7.187   4.284   3.187 -0.1985 -0.4390 -1.2869
   51MOL   H30019400   7.182   4.549   3.347  0.1570  0.1175 -0.9789
   51MOL   H30119401   7.230   4.391   3.405 -0.2131 -0.2707 -0.2997
   51MOL   H30219402   6.991   4.320   3.366  1.4768 -0.2689 -0.4510
   51MOL   H30319403   6.953   4.479   3.305 -0.5618 -0.2193  0.8840
   51MOL   H30419404   7.032   4.521   3.105  0.7651  1.2165 -2.6210
   51MOL   H30519405   7.053   4.365   3.042 -0.2092  0.2905 -0.5116
   51MOL   C30619406   6.983   4.471   3.523  0.2912  0.8178 -0.7620
   51MOL   C30719407   6.834   4.457   3.565 -0.6920  0.2412 -0.1289
   51MOL   C30819408   6.819   4.376   3.698 -0.5444 -0.3001  0.0461
   51MOL   C30919409   6.962   4.366   3.757  1.1318  0.8781 -0.5170
   51MOL   C31019410   6.979   4.237   3.850 -0.1288  0.5686  0.2857
   51MOL   C31119411   7.117   4.234   3.922 -0.1274 -0.8432  0.1142
   51MOL   C31219412   7.050   4.386   3.630  0.6783 -0.0395 -0.1730
   51MOL   H31319413   7.021   4.572   3.539 -0.4722  1.4137 -2.5777
   51MOL   H31419414   6.806   4.562   3.573 -0.3182  0.3429 -0.1419
   51MOL   H31519415   6.781   4.414   3.480 -0.5216 -1.3047  0.5310
   51MOL   H31619416   6.747   4.424   3.764 -1.2328 -0.0141 -0.8980
   51MOL   H31719417   6.781   4.285   3.651 -0.6955  1.2869 -3.0730
   51MOL   H31819418   6.989   4.448   3.823  2.6089 -0.5612  0.7154
   51MOL   H31919419   6.903   4.246   3.928  0.1037 -0.0224  0.5761
   51MOL   H32019420   6.972   4.147   3.789 -1.8357  0.6135  0.3858
   51MOL   H32119421   7.126   4.307   4.001  1.0800 -1.5722  0.6628
   51MOL   H32219422   7.192   4.269   3.851  1.2004 -2.3406  0.7493
   51MOL   H32319423   7.081   4.291   3.586  1.8675  0.5130 -0.5515
   51MOL   H32419424   7.144   4.427   3.668  0.0502  1.6903 -0.4270
   51MOL   C32519425   7.159   4.095   3.979  0.4588  0.3455  0.4791
   51MOL   C32619426   7.195   3.982   3.883  0.9243 -0.8055 -0.6113
   51MOL   C32719427   7.286   3.894   3.969  0.7792 -0.2090  0.3953
   51MOL   C32819428   7.374   3.993   4.033 -0.2447  0.8726  0.2764
   51MOL   C32919429   7.459   3.932   4.148  0.4671 -0.0483  0.8522
   51MOL   C33019430   7.568   3.834   4.103 -0.0296  1.1976  0.3223
   51MOL   C33119431   7.281   4.110   4.072  0.9261  0.5205 -0.2491
   51MOL   H33219432   7.073   4.063   4.037 -0.6015  0.5287 -0.9964
   51MOL   H33319433   7.240   4.009   3.787 -0.2447 -0.8220 -1.1768
   51MOL   H33419434   7.106   3.926   3.853  1.0807 -2.6309  2.1314
   51MOL   H33519435   7.220   3.845   4.040  0.1713 -2.8078 -1.8772
   51MOL   H33619436   7.321   3.816   3.901  2.1782  1.1788 -0.5306
   51MOL   H33719437   7.436   4.033   3.952 -1.5666 -0.0415 -1.2035
   51MOL   H33819438   7.510   4.015   4.196 -1.3575  1.8914 -0.4832
   51MOL   H33919439   7.393   3.900   4.229 -0.1655 -0.8614  0.0230
   51MOL   H34019440   7.525   3.746   4.054  2.1695  0.0101  0.4657
   51MOL   H34119441   7.629   3.883   4.027  0.7327  0.9216  0.7510
   51MOL   H34219442   7.330   4.207   4.057  2.1663 -0.5237 -3.4686
   51MOL   H34319443   7.253   4.104   4.177  2.2647 -0.0445  0.0856
   51MOL   C34419444   0.011   3.801   4.225  0.5575  0.1333 -0.1110
   51MOL   C34519445   0.097   3.913   4.285  0.2974 -0.1171 -0.5152
   51MOL   C34619446   0.211   3.851   4.362  0.5763  0.0538  0.5023
   51MOL   C34719447   0.247   3.743   4.258 -0.3487 -0.0733  0.5763
   51MOL   C34819448   0.328   3.634   4.327 -0.0015 -0.3435 -0.1564
   51MOL   C34919449   0.352   3.513   4.242 -0.0927  0.1618 -0.3893
   51MOL   C35019450   0.119   3.696   4.193  0.0993  1.0284 -0.7143
   51MOL   H35119451   7.602   3.763   4.310 -1.4976  0.8728 -1.1048
   51MOL   H35219452   0.051   3.971   4.365 -0.2147  0.3001 -1.1222
   51MOL   H35319453   0.135   3.974   4.203 -0.7040 -0.5206 -1.2913
   51MOL   H35419454   0.297   3.916   4.375  0.8457  0.6403 -3.4019
   51MOL   H35519455   0.169   3.798   4.447 -0.0364 -0.4195 -0.0810
   51MOL   H35619456   0.310   3.791   4.183 -0.9968  2.0774  1.3861
   51MOL   H35719457   0.420   3.679   4.363  0.1972 -2.1470  1.7033
   51MOL   H35819458   0.270   3.602   4.414 -1.5352 -0.7872 -1.3329
   51MOL   H35919459   0.402   3.539   4.149  0.7863 -1.4428 -0.3788
   51MOL   H36019460   0.258   3.466   4.214 -1.0118  0.7828  1.5233
   51MOL   H36119461   0.133   3.693   4.085 -2.1431  1.0468 -1.0180
   51MOL   H36219462   0.086   3.594   4.212 -1.0953  1.5433  0.0238
   51MOL   C36319463   0.426   3.401   4.320  0.2175  0.1813  0.2443
   51MOL   C36419464   0.472   3.280   4.234 -0.5923  0.1332  0.6859
   51MOL   C36519465   0.448   3.150   4.301  0.0365  0.2011 -0.1799
   51MOL   C36619466   0.407   3.190   4.441  1.0085  0.6079 -0.1421
   51MOL   C36719467   0.327   3.090   4.523 -0.3765  0.2151  0.4936
   51MOL   C36819468   0.388   2.949   4.503 -0.4667 -0.7728 -0.1854
   51MOL   C36919469   0.340   3.324   4.422  0.0372 -0.1159  0.6063
   51MOL   H37019470   0.506   3.446   4.378  1.6956  0.3231 -1.8386
   51MOL   H37119471   0.409   3.280   4.145 -1.1108  0.4373  1.0483
   51MOL   H37219472   0.573   3.290   4.194 -0.9937 -0.3566 -0.4882
   51MOL   H37319473   0.381   3.080   4.251 -0.7400  0.8337 -0.0255
   51MOL   H37419474   0.545   3.102   4.318  0.6539  1.2905 -0.5777
   51MOL   H37519475   0.497   3.208   4.500  1.2633  1.3335 -0.7471
   51MOL   H37619476   0.331   3.130   4.625  0.6851  2.8742 -0.5355
   51MOL   H37719477   0.224   3.090   4.487  0.5798  0.7920 -2.3090
   51MOL   H37819478   0.369   2.921   4.400 -0.6038 -0.2799 -0.2953
   51MOL   H37919479   0.348   2.885   4.582  1.6671 -2.1793 -0.2136
   51MOL   H38019480   0.244   3.305   4.375  0.3633 -0.3857  0.0368
   51MOL   H38119481   0.320   3.381   4.513 -1.0800 -0.1806  0.4079
   51MOL   H38219482   0.495   2.946   4.523 -0.8321  0.0099  2.0548
   52MOL     C119483   3.980   4.399   3.557 -0.2947 -0.4315 -0.2335
   52MOL     C219484   3.959   4.475   3.686 -0.1404  0.1738 -0.7272
   52MOL     C319485   3.836   4.418   3.755 -0.3198  0.1932 -0.0031
   52MOL     C419486   3.792   4.294   3.678 -0.5224 -0.5449  0.2844
   52MOL     C519487   3.641   4.279   3.677 -0.1020 -0.2283 -0.1740
   52MOL     C619488   3.583   4.239   3.813 -0.1947 -0.1588 -0.0661
   52MOL     C719489   3.850   4.316   3.537 -0.1443  0.7521 -0.1383
   52MOL     H819490   3.989   4.454   3.463 -0.3551  0.3041  0.1882
   52MOL     H919491   3.941   4.580   3.660  0.0739  0.0424 -1.4217
   52MOL    H1019492   4.044   4.482   3.753 -0.6098  0.6012 -0.1703
   52MOL    H1119493   3.846   4.397   3.861  0.2268 -3.4294 -0.7210
   52MOL    H1219494   3.765   4.500   3.740 -0.3958  0.1927  0.3565
   52MOL    H1319495   3.840   4.205   3.717 -0.7504 -0.9977 -0.4502
   52MOL    H1419496   3.588   4.370   3.648  0.0668  0.2600  1.0525
   52MOL    H1519497   3.613   4.199   3.608 -1.1826  0.7007 -0.8350
   52MOL    H1619498   3.621   4.137   3.828  0.7779  0.4314  1.6981
   52MOL    H1719499   3.631   4.296   3.893  2.0529  0.4512 -1.8031
   52MOL    H1819500   3.872   4.218   3.494 -0.5369  0.9461 -0.7777
   52MOL    H1919501   3.770   4.352   3.473  1.1188  1.5563 -1.2818
   52MOL    H2019502   4.065   4.330   3.551 -1.0661 -1.4303  0.1614
   52MOL    C2119503   3.430   4.248   3.811  0.1258 -0.4279 -0.3555
   52MOL    C2219504   3.356   4.146   3.730  0.0279  0.1696 -0.2274
   52MOL    C2319505   3.363   4.016   3.806  0.0755  0.0614 -0.5524
   52MOL    C2419506   3.326   4.061   3.952  0.2104  0.2216  0.1793
   52MOL    C2519507   3.390   3.965   4.051  0.2671  0.2217  0.3381
   52MOL    C2619508   3.320   3.952   4.182 -0.2889 -0.4586  0.1281
   52MOL    C2719509   3.374   4.214   3.954 -0.0857  0.2806  0.2513
   52MOL    H2819510   3.401   4.351   3.787  3.7967  0.7471 -0.1279
   52MOL    H2919511   3.251   4.174   3.719 -0.3210 -0.6054  0.9567
   52MOL    H3019512   3.410   4.152   3.636 -0.0911  0.7829 -0.2581
   52MOL    H3119513   3.286   3.953   3.762  1.5746 -1.3995 -1.1158
   52MOL    H3219514   3.465   3.978   3.807  0.3303  0.5196  4.8153
   52MOL    H3319515   3.218   4.048   3.953  0.2771 -0.5076 -1.3668
   52MOL    H3419516   3.487   4.012   4.065 -0.1797  1.0634  0.6343
   52MOL    H3519517   3.402   3.863   4.014 -1.0179  0.7025 -1.4983
   52MOL    H3619518   3.238   3.882   4.163  1.7481 -2.0707 -3.1682
   52MOL    H3719519   3.282   4.049   4.214  1.7032  0.0995  0.8827
   52MOL    H3819520   3.291   4.277   3.984  0.2184  0.6697  0.2685
   52MOL    H3919521   3.443   4.236   4.036 -1.5030  2.8992  0.7817
   52MOL    C4019522   3.416   3.901   4.291  0.5023  0.4157 -0.6737
   52MOL    C4119523   3.533   3.994   4.321 -0.0298  0.7769  0.0710
   52MOL    C4219524   3.577   3.954   4.466 -0.1522  0.2856 -0.3641
   52MOL    C4319525   3.453   3.875   4.526 -0.3628 -0.9029 -0.1676
   52MOL    C4419526   3.488   3.726   4.551 -0.6189  0.8239  0.4489
   52MOL    C4519527   3.573   3.713   4.680 -0.5779  0.7136 -0.3555
   52MOL    C4619528   3.342   3.898   4.419  0.1760  0.6176  0.4033
   52MOL    H4719529   3.457   3.806   4.257  2.1739  0.2495  1.6824
   52MOL    H4819530   3.500   4.098   4.315 -1.4706  0.2498 -1.2368
   52MOL    H4919531   3.612   3.968   4.251  0.9442  2.5285  0.4836
   52MOL    H5019532   3.669   3.897   4.471 -1.3088 -1.5104  1.1320
   52MOL    H5119533   3.608   4.041   4.524  1.3381 -1.7746  1.9943
   52MOL    H5219534   3.415   3.911   4.622  1.3112  0.0405  0.1514
   52MOL    H5319535   3.394   3.673   4.568  0.1946 -1.2851 -1.3765
   52MOL    H5419536   3.549   3.679   4.474 -0.3368 -0.5969  1.5107
   52MOL    H5519537   3.527   3.764   4.764  0.3044 -0.9443  1.1589
   52MOL    H5619538   3.672   3.758   4.672  0.0967 -0.5707  0.5268
   52MOL    H5719539   3.263   3.823   4.426  0.6863  0.1083  0.7291
   52MOL    H5819540   3.294   3.994   4.439 -0.1421  0.8243 -1.3337
   52MOL    C5919541   3.588   3.563   4.721 -0.5743  0.1679 -0.1566
   52MOL    C6019542   3.684   3.472   4.638 -0.1181 -0.4310 -0.3937
   52MOL    C6119543   3.765   3.390   4.739 -0.3326  0.3595  0.1084
   52MOL    C6219544   3.775   3.481   4.854 -0.0650 -0.6618 -0.2553
   52MOL    C6319545   3.812   3.406   4.979  0.0673  0.1111  0.0737
   52MOL    C6419546   3.850   3.506   5.091 -0.0252  0.1362 -0.3777
   52MOL    C6519547   3.648   3.555   4.861  0.5280  0.6083 -0.1168
   52MOL    H6619548   3.494   3.508   4.725 -0.3679 -0.1057  1.2896
   52MOL    H6719549   3.628   3.405   4.575  0.2522 -0.2888 -0.8763
   52MOL    H6819550   3.754   3.532   4.579  0.4494  0.2078  0.8947
   52MOL    H6919551   3.724   3.290   4.751  1.1316 -0.7701 -3.4944
   52MOL    H7019552   3.869   3.378   4.708 -0.5789 -1.3713 -0.0835
   52MOL    H7119553   3.854   3.553   4.832  0.0817 -0.4378  0.9555
   52MOL    H7219554   3.896   3.338   4.965 -0.2108 -0.4087  0.8872
   52MOL    H7319555   3.728   3.340   5.001  0.2145 -0.3738 -0.7955
   52MOL    H7419556   3.945   3.552   5.065  0.4417 -0.7809 -0.3053
   52MOL    H7519557   3.786   3.594   5.098  0.8941  0.8443 -0.8740
   52MOL    H7619558   3.573   3.504   4.922  0.3947 -0.6116 -1.2887
   52MOL    H7719559   3.656   3.652   4.911 -1.1413  1.1811 -0.9171
   52MOL    C7819560   3.849   3.463   5.239 -0.3074 -0.0259  0.0779
   52MOL    C7919561   3.900   3.568   5.336  1.1559  0.2016  0.4994
   52MOL    C8019562   3.826   3.544   5.465 -0.1487 -0.4229  0.1427
   52MOL    C8119563   3.686   3.483   5.435  0.3193  0.4600 -0.5698
   52MOL    C8219564   3.570   3.580   5.447 -0.4500 -0.6540 -0.1152
   52MOL    C8319565   3.530   3.623   5.585  0.1019 -0.2313 -0.9399
   52MOL    C8419566   3.710   3.410   5.297  0.2804 -0.8660 -0.0739
   52MOL    H8519567   3.917   3.378   5.245 -0.0258  0.2741  1.2496
   52MOL    H8619568   4.006   3.558   5.359  1.6468  2.2670 -0.7141
   52MOL    H8719569   3.882   3.667   5.295  0.6377 -0.2388 -0.3519
   52MOL    H8819570   3.876   3.464   5.520  2.0949  1.6058  1.1656
   52MOL    H8919571   3.826   3.634   5.527  0.3894 -0.3096 -0.0167
   52MOL    H9019572   3.668   3.402   5.505 -3.1365  0.6571 -1.1418
   52MOL    H9119573   3.489   3.537   5.388 -1.6337  1.7659 -0.3198
   52MOL    H9219574   3.584   3.669   5.385 -1.4424 -0.5006 -0.1259
   52MOL    H9319575   3.598   3.699   5.624 -0.4253  0.1794 -0.8248
   52MOL    H9419576   3.546   3.542   5.656  0.1962 -0.6649 -1.4539
   52MOL    H9519577   3.634   3.430   5.222  1.5866 -1.1574 -1.4809
   52MOL    H9619578   3.710   3.301   5.308  0.9125 -1.0967 -2.2260
   52MOL    C9719579   3.381   3.678   5.603 -0.0638 -0.4658 -0.4334
   52MOL    C9819580   3.363   3.799   5.702  0.3848  0.1254 -0.1704
   52MOL    C9919581   3.285   3.747   5.820  0.6554  0.3259 -0.3210
   52MOL   C10019582   3.213   3.613   5.779  0.1202 -0.3419 -0.4219
   52MOL   C10119583   3.213   3.496   5.877 -0.8336 -0.1060  0.1757
   52MOL   C10219584   3.100   3.398   5.848  0.1774 -0.7957  0.8070
   52MOL   C10319585   3.282   3.570   5.653 -0.6674  0.1398  0.9747
   52MOL   H10419586   3.350   3.691   5.499  1.1128 -0.5884 -0.8127
   52MOL   H10519587   3.445   3.866   5.728  1.0675  0.2361 -2.4812
   52MOL   H10619588   3.296   3.863   5.645 -0.6765 -0.8229 -0.0191
   52MOL   H10719589   3.357   3.739   5.902  0.1594  0.8011  0.1682
   52MOL   H10819590   3.223   3.825   5.864 -0.5273 -0.6845 -0.1901
   52MOL   H10919591   3.111   3.629   5.746 -0.6505 -0.6954  1.7088
   52MOL   H11019592   3.312   3.450   5.881 -1.3921 -1.3793 -0.2842
   52MOL   H11119593   3.214   3.529   5.981 -1.0843  1.3732 -0.2807
   52MOL   H11219594   3.003   3.446   5.839  0.3647 -0.5182  0.2438
   52MOL   H11319595   3.106   3.371   5.742 -0.5240  1.2620  0.2138
   52MOL   H11419596   3.330   3.474   5.667 -0.2243  0.2161  0.0715
   52MOL   H11519597   3.204   3.545   5.581  0.4973  1.3236 -0.7656
   52MOL   C11619598   3.097   3.267   5.931  0.0199  0.7200  0.1651
   52MOL   C11719599   3.212   3.167   5.904  0.3799  0.6540  0.5207
   52MOL   C11819600   3.210   3.075   6.024 -0.2974  0.2639 -0.2244
   52MOL   C11919601   3.153   3.159   6.143  0.3995  0.2134 -0.2366
   52MOL   C12019602   3.278   3.194   6.227  0.3767  0.4612 -0.3934
   52MOL   C12119603   3.262   3.235   6.373 -0.3213  0.5884  0.1481
   52MOL   C12219604   3.094   3.285   6.081 -0.5798  0.4918 -0.4115
   52MOL   H12319605   3.017   3.201   5.899  1.1137 -1.4502  1.7891
   52MOL   H12419606   3.303   3.228   5.912  0.1120  1.1892 -0.4022
   52MOL   H12519607   3.209   3.111   5.811 -0.6479 -0.3874  1.1658
   52MOL   H12619608   3.302   3.023   6.048 -0.1036  0.3967 -0.6851
   52MOL   H12719609   3.135   2.998   6.002  2.1218 -2.3058  0.2664
   52MOL   H12819610   3.082   3.109   6.209 -1.0173  1.6188 -0.6731
   52MOL   H12919611   3.337   3.268   6.172 -0.7184  1.7706  0.1721
   52MOL   H13019612   3.337   3.102   6.231  1.1515  1.0224  2.5797
   52MOL   H13119613   3.358   3.225   6.424 -0.6310 -1.8968  0.3301
   52MOL   H13219614   3.197   3.160   6.419 -1.0339  1.5091  0.6704
   52MOL   H13319615   2.987   3.276   6.098 -0.4394  1.0156  0.7917
   52MOL   H13419616   3.151   3.370   6.120  0.4195  1.0403 -2.9262
   52MOL   C13519617   3.196   3.369   6.397  0.3594  0.6346  0.2217
   52MOL   C13619618   3.170   3.393   6.548  0.0773 -0.3561 -0.8644
   52MOL   C13719619   3.172   3.542   6.569 -0.1287  0.1569 -0.4879
   52MOL   C13819620   3.212   3.606   6.434  0.0994  0.2402 -0.3285
   52MOL   C13919621   3.104   3.687   6.362  0.2931  0.5160 -0.7154
   52MOL   C14019622   3.149   3.760   6.231  0.0696 -0.3454  0.1634
   52MOL   C14119623   3.263   3.492   6.348 -0.7526  0.2782 -0.5376
   52MOL   H14219624   3.097   3.369   6.350 -0.7871  0.6600  2.5987
   52MOL   H14319625   3.075   3.355   6.584 -0.2105  2.0768  1.0851
   52MOL   H14419626   3.250   3.347   6.607 -1.7436 -2.0618  0.3464
   52MOL   H14519627   3.074   3.587   6.587 -0.2664 -1.1261  2.2345
   52MOL   H14619628   3.231   3.583   6.651 -1.1864  2.6297 -0.9284
   52MOL   H14719629   3.301   3.667   6.452  1.3172 -1.7989  0.6475
   52MOL   H14819630   3.080   3.769   6.430 -0.0863 -0.4513  0.3279
   52MOL   H14919631   3.016   3.629   6.336  0.0995  1.3722 -2.0405
   52MOL   H15019632   3.217   3.842   6.252  1.8662 -2.1506  1.6063
   52MOL   H15119633   3.210   3.697   6.167  0.3121 -0.2596  0.3104
   52MOL   H15219634   3.370   3.480   6.367 -1.4117 -1.1943  2.5733
   52MOL   H15319635   3.250   3.512   6.241 -1.0187  0.8470 -0.3978
   52MOL   C15419636   3.044   3.806   6.137  0.3849 -0.5271 -0.5892
   52MOL   C15519637   2.931   3.893   6.196  0.9618  0.0677 -0.4994
   52MOL   C15619638   2.839   3.907   6.080 -0.5397 -0.5576 -0.5896
   52MOL   C15719639   2.844   3.776   5.998 -0.5756 -0.1227 -0.1121
   52MOL   C15819640   2.722   3.691   6.005  0.9750 -0.0309  0.6557
   52MOL   C15919641   2.615   3.718   5.894 -0.1082 -0.3229  0.4882
   52MOL   C16019642   2.963   3.702   6.061 -1.3548 -0.7791  0.4153
   52MOL   H16119643   3.096   3.859   6.057 -0.7491  1.0278 -0.3170
   52MOL   H16219644   2.886   3.843   6.282 -0.0894  0.6487 -0.7023
   52MOL   H16319645   2.959   3.992   6.233 -0.4400  0.0346  0.6764
   52MOL   H16419646   2.743   3.939   6.120  0.1886  2.0116 -0.7929
   52MOL   H16519647   2.857   3.989   6.010 -1.0755  0.7884  0.8325
   52MOL   H16619648   2.873   3.804   5.897  0.8296  2.5911  0.9708
   52MOL   H16719649   2.683   3.699   6.107 -0.4835 -3.1970  0.3892
   52MOL   H16819650   2.740   3.584   5.998 -0.4263 -0.3408  1.6735
   52MOL   H16919651   2.579   3.820   5.901  0.5372 -0.0438 -0.1765
   52MOL   H17019652   2.667   3.704   5.799 -1.7933  0.0907 -0.5200
   52MOL   H17119653   3.025   3.664   5.980  1.1082  0.7108  1.5204
   52MOL   H17219654   2.933   3.618   6.123 -2.3984 -0.5105  0.2808
   52MOL   C17319655   2.495   3.620   5.897  0.6858 -0.8436  0.3562
   52MOL   C17419656   2.407   3.625   6.025  0.4315 -1.1272  0.3189
   52MOL   C17519657   2.268   3.638   5.968  0.2446  0.3120  0.0675
   52MOL   C17619658   2.273   3.586   5.825  0.1152 -0.0610  0.1756
   52MOL   C17719659   2.160   3.637   5.734 -0.0208 -0.1411 -0.8400
   52MOL   C17819660   2.017   3.597   5.783  0.1986  0.3849  0.2960
   52MOL   C17919661   2.405   3.639   5.772 -0.5050 -0.4249 -1.1200
   52MOL   H18019662   2.519   3.516   5.874 -1.7347 -1.1856 -0.7557
   52MOL   H18119663   2.435   3.713   6.083 -2.7273 -0.3185  0.7011
   52MOL   H18219664   2.418   3.535   6.085 -1.0522 -1.9466 -0.6245
   52MOL   H18319665   2.195   3.586   6.029  1.6989 -1.0073  0.7151
   52MOL   H18419666   2.234   3.742   5.972  2.1925  1.0132 -0.9359
   52MOL   H18519667   2.262   3.477   5.827 -1.3955  0.1110  1.6007
   52MOL   H18619668   2.173   3.611   5.628  2.5751 -0.5319 -0.4594
   52MOL   H18719669   2.171   3.744   5.719  1.1217  0.0073  0.9152
   52MOL   H18819670   1.945   3.653   5.723  0.7080  0.2060 -0.4995
   52MOL   H18919671   2.000   3.642   5.880  0.7944 -0.5073  0.8235
   52MOL   H19019672   2.393   3.747   5.759 -0.0809 -0.3221 -0.6781
   52MOL   H19119673   2.445   3.593   5.682 -0.3190  2.7634 -2.7440
   52MOL   C19219674   1.998   3.449   5.802 -0.2683 -0.4533  0.1047
   52MOL   C19319675   1.997   3.360   5.673  0.0968  0.6953 -0.0351
   52MOL   C19419676   1.912   3.234   5.703  0.4013 -0.1496 -0.2420
   52MOL   C19519677   1.849   3.258   5.843  0.3311  0.5449 -0.1969
   52MOL   C19619678   1.927   3.183   5.952  0.6107 -0.6074  0.1229
   52MOL   C19719679   1.848   3.182   6.086  0.3889 -0.5405 -0.4726
   52MOL   C19819680   1.858   3.415   5.863 -0.1381 -0.2148  0.4328
   52MOL   H19919681   2.072   3.403   5.868 -0.7326  0.8327  1.5519
   52MOL   H20019682   1.958   3.418   5.589  2.5625  1.8605 -0.4203
   52MOL   H20119683   2.101   3.334   5.656 -0.1215 -0.8633  0.8650
   52MOL   H20219684   1.973   3.144   5.703 -1.8721 -1.7377 -1.4184
   52MOL   H20319685   1.832   3.234   5.628 -1.2815  2.8789  1.4655
   52MOL   H20419686   1.742   3.240   5.835  0.4546 -0.4297  0.3963
   52MOL   H20519687   2.033   3.209   5.965  0.8223 -1.3131 -0.1640
   52MOL   H20619688   1.929   3.080   5.919  0.7883 -0.0534 -1.6614
   52MOL   H20719689   1.743   3.167   6.060 -0.3814  3.1348  0.2144
   52MOL   H20819690   1.846   3.279   6.138 -4.4158 -1.8396  2.1358
   52MOL   H20919691   1.835   3.445   5.965 -0.8221 -0.1565  0.2626
   52MOL   H21019692   1.780   3.456   5.799  1.6037  1.0690 -0.9421
   52MOL   C21119693   1.890   3.065   6.182 -0.2101  0.0370 -0.2482
   52MOL   C21219694   1.876   2.924   6.122  0.3749 -0.1540 -0.5891
   52MOL   C21319695   1.833   2.827   6.234  0.4652  0.2702 -0.0312
   52MOL   C21419696   1.833   2.907   6.358 -0.7404 -0.5098  0.0481
   52MOL   C21519697   1.735   2.848   6.459  0.0977  0.6247 -0.1660
   52MOL   C21619698   1.740   2.917   6.595 -0.0704  0.0738 -0.1503
   52MOL   C21719699   1.797   3.048   6.303 -0.2961 -0.2174  0.1632
   52MOL   H21819700   1.992   3.082   6.216 -0.1013  0.5526 -0.8132
   52MOL   H21919701   1.791   2.916   6.054  0.8505 -3.9327 -0.8122
   52MOL   H22019702   1.969   2.896   6.072 -0.3961 -0.8535 -1.6385
   52MOL   H22119703   1.737   2.781   6.214  1.5552 -1.3740 -1.6482
   52MOL   H22219704   1.902   2.743   6.247 -2.5514 -2.3129 -0.2350
   52MOL   H22319705   1.931   2.909   6.406 -1.2440 -0.4424  1.0930
   52MOL   H22419706   1.752   2.741   6.466  0.4140  0.5659 -1.6321
   52MOL   H22519707   1.634   2.857   6.419  1.0521  1.1028 -2.5829
   52MOL   H22619708   1.845   2.942   6.610  0.0351  0.4721 -1.4991
   52MOL   H22719709   1.683   3.010   6.591 -1.8530 -0.8739  1.8602
   52MOL   H22819710   1.817   3.123   6.380  0.7246 -0.6655  0.3448
   52MOL   H22919711   1.689   3.058   6.287 -0.5133  0.7828  2.1057
   52MOL   C23019712   1.693   2.829   6.711  0.8987 -0.0542  0.0240
   52MOL   C23119713   1.552   2.778   6.718  0.6674 -0.0439  0.4894
   52MOL   C23219714   1.528   2.733   6.863 -0.7662 -0.3554  0.0924
   52MOL   C23319715   1.629   2.807   6.951  0.1724  0.2930 -0.0482
   52MOL   C23419716   1.718   2.705   7.033 -0.3045  0.2655  0.4322
   52MOL   C23519717   1.824   2.761   7.118 -0.8208  0.2343 -0.5247
   52MOL   C23619718   1.713   2.894   6.850 -0.1894  0.6413  0.4287
   52MOL   H23719719   1.749   2.735   6.704 -0.6843 -0.8737 -2.4978
   52MOL   H23819720   1.486   2.862   6.696  0.5685 -0.3846 -0.5315
   52MOL   H23919721   1.533   2.700   6.645 -0.2925  0.1822  0.4836
   52MOL   H24019722   1.550   2.626   6.874 -0.6502 -0.3912 -0.4886
   52MOL   H24119723   1.425   2.731   6.899 -0.6301  1.1338  0.5879
   52MOL   H24219724   1.570   2.871   7.017 -1.1333 -1.8679  0.9278
   52MOL   H24319725   1.761   2.638   6.959 -1.2136  0.5546 -0.3589
   52MOL   H24419726   1.652   2.647   7.097 -1.3037  0.2877 -0.5657
   52MOL   H24519727   1.913   2.802   7.070 -0.9666  1.4793  0.2441
   52MOL   H24619728   1.773   2.841   7.172 -3.0963 -1.8585  0.5489
   52MOL   H24719729   1.816   2.912   6.881  0.6498  0.5183 -2.1821
   52MOL   H24819730   1.672   2.994   6.835  0.0483  0.7771  0.6750
   52MOL   C24919731   1.866   2.659   7.221  0.5503 -0.1066 -0.2871
   52MOL   C25019732   1.955   2.547   7.167 -0.0213  0.1845  0.2707
   52MOL   C25119733   2.098   2.571   7.223 -0.6243 -0.6279 -0.3150
   52MOL   C25219734   2.097   2.716   7.280 -0.4380 -0.0304  0.0795
   52MOL   C25319735   2.196   2.749   7.391 -0.5309  0.3248 -0.1013
   52MOL   C25419736   2.342   2.751   7.346 -0.7577  0.5334  0.2373
   52MOL   C25519737   1.950   2.723   7.332 -0.2249  0.0225 -0.3812
   52MOL   H25619738   1.783   2.608   7.271  0.1881  0.4253 -0.3394
   52MOL   H25719739   1.910   2.452   7.197 -0.5083  0.2324 -0.2945
   52MOL   H25819740   1.961   2.549   7.059 -2.9416  1.3647  0.0945
   52MOL   H25919741   2.180   2.545   7.156  0.4628  0.2230  0.6730
   52MOL   H26019742   2.108   2.500   7.304  0.0040  1.2989  1.3278
   52MOL   H26119743   2.117   2.790   7.202 -0.3456  2.9224  2.8281
   52MOL   H26219744   2.193   2.672   7.467 -0.1037 -1.1238 -1.5389
   52MOL   H26319745   2.161   2.837   7.446  0.8709 -1.1056  3.2019
   52MOL   H26419746   2.339   2.788   7.244 -0.5872 -0.7208 -0.2336
   52MOL   H26519747   2.386   2.651   7.338 -0.4141  0.8137 -1.5652
   52MOL   H26619748   1.917   2.825   7.352 -0.8812 -0.4103  0.7944
   52MOL   H26719749   1.946   2.658   7.419 -0.1522 -1.3114 -1.3664
   52MOL   C26819750   2.440   2.837   7.433 -0.7303 -0.2372 -0.3194
   52MOL   C26919751   2.578   2.862   7.372 -0.0605  0.0888  0.0240
   52MOL   C27019752   2.659   2.734   7.398  0.4055 -0.5913 -0.0868
   52MOL   C27119753   2.607   2.682   7.543  0.4113  0.4052  1.4888
   52MOL   C27219754   2.583   2.532   7.540 -0.0098 -0.0370  0.3299
   52MOL   C27319755   2.534   2.475   0.025  0.7272 -0.4016  0.3389
   52MOL   C27419756   2.477   2.768   7.565  0.0916  0.2204  0.5414
   52MOL   H27519757   2.377   2.922   7.457 -0.2791 -0.7555  3.0064
   52MOL   H27619758   2.572   2.892   7.267 -3.5671  1.3980  0.5251
   52MOL   H27719759   2.630   2.941   7.427 -0.5236 -0.3191  1.0364
   52MOL   H27819760   2.639   2.667   7.315 -0.4408 -2.1810  1.3710
   52MOL   H27919761   2.767   2.750   7.400  0.0869  1.6401  0.1574
   52MOL   H28019762   2.680   2.710   7.620 -0.1001  0.5374  1.9305
   52MOL   H28119763   2.677   2.480   7.518 -1.1758 -1.1413 -2.3046
   52MOL   H28219764   2.515   2.500   7.462 -0.3418  2.7534 -0.5986
   52MOL   H28319765   2.627   2.463   0.079  0.9172 -1.8592 -0.2680
   52MOL   H28419766   2.475   2.543   0.087 -0.8302 -1.2521 -0.1796
   52MOL   H28519767   2.396   2.705   7.603  0.8928 -0.6619  0.8209
   52MOL   H28619768   2.496   2.837   7.647  1.3207 -0.1718  0.5975
   52MOL   C28719769   2.455   2.341   0.008 -0.0010  0.5087 -0.0775
   52MOL   C28819770   2.438   2.282   0.143 -0.0222  0.1111  0.4771
   52MOL   C28919771   2.317   2.187   0.125 -0.8048 -0.3534  0.5192
   52MOL   C29019772   2.237   2.243   0.007  0.2343 -0.0023 -0.7416
   52MOL   C29119773   2.097   2.303   0.050  0.0039 -0.0064  0.3562
   52MOL   C29219774   2.015   2.366   7.579 -0.1926 -0.5606 -0.2300
   52MOL   C29319775   2.319   2.356   7.589 -0.2687 -0.3199  0.0325
   52MOL   H29419776   2.518   2.267   7.607 -0.4432 -0.3415  0.6407
   52MOL   H29519777   2.527   2.228   0.176  0.7937  0.0137 -1.7622
   52MOL   H29619778   2.411   2.362   0.212 -0.3240  1.7487 -1.4898
   52MOL   H29719779   2.263   2.197   0.219 -0.9084 -0.7740  0.5078
   52MOL   H29819780   2.343   2.082   0.110  0.2163 -0.1169  0.6106
   52MOL   H29919781   2.215   2.161   7.586 -0.2960 -0.5271  0.0418
   52MOL   H30019782   2.105   2.372   0.134 -1.8617 -0.0657  0.5897
   52MOL   H30119783   2.059   2.211   0.094 -0.0401  0.0320  0.3985
   52MOL   H30219784   2.033   2.297   7.497  2.5383  0.2825 -0.4060
   52MOL   H30319785   2.045   2.462   7.539  0.0330 -0.1608  0.8629
   52MOL   H30419786   2.280   2.452   7.625 -1.4500 -0.5754 -0.5348
   52MOL   H30519787   2.313   2.361   7.481  0.6048 -1.8926 -0.0976
   52MOL   C30619788   1.868   2.372   7.609  0.2372 -0.4889 -0.2179
   52MOL   C30719789   1.825   2.488   0.055  0.1027  0.9708 -0.2801
   52MOL   C30819790   1.677   2.517   0.013  0.3698 -0.1857  0.5328
   52MOL   C30919791   1.644   2.418   7.549  0.0995 -0.1671  0.8344
   52MOL   C31019792   1.545   2.475   7.448  0.3162 -0.4177 -0.3434
   52MOL   C31119793   1.413   2.527   7.507 -0.0746 -0.2654 -0.7781
   52MOL   C31219794   1.779   2.379   7.484  0.3526  1.2597  1.2735
   52MOL   H31319795   1.832   2.282   0.012  0.0807 -0.3039  0.0002
   52MOL   H31419796   1.844   2.476   0.161  0.0806 -0.5609 -0.4393
   52MOL   H31519797   1.894   2.568   0.029  0.7802  0.4479 -0.1078
   52MOL   H31619798   1.611   2.500   0.098  0.0798 -0.6952  0.2102
   52MOL   H31719799   1.642   2.619   7.641  0.1608 -0.0833  1.4191
   52MOL   H31819800   1.603   2.327   7.591  1.4648 -0.4394  1.6066
   52MOL   H31919801   1.587   2.564   7.401  0.0781  0.5248  1.1791
   52MOL   H32019802   1.527   2.404   7.368 -0.7484  0.5909 -1.0198
   52MOL   H32119803   1.441   2.604   7.579 -0.1908 -0.7076 -0.2549
   52MOL   H32219804   1.371   2.444   7.564 -0.9041  1.3859  1.1033
   52MOL   H32319805   1.817   2.458   7.420 -0.5891  2.2459  1.9224
   52MOL   H32419806   1.778   2.281   7.436 -1.5791  1.2709  1.2300
   52MOL   C32519807   1.317   2.588   7.397 -0.3160  0.3674 -0.0655
   52MOL   C32619808   1.248   2.471   7.328 -0.0533  0.3524 -0.6008
   52MOL   C32719809   1.120   2.516   7.256  0.2372  0.1534 -0.0439
   52MOL   C32819810   1.070   2.622   7.362  0.0305  0.3468 -0.5396
   52MOL   C32919811   0.979   2.732   7.304  0.5420  0.1933  1.1197
   52MOL   C33019812   0.917   2.817   7.423 -0.2804  0.7514 -0.2074
   52MOL   C33119813   1.193   2.675   7.434 -0.2356 -0.1079 -0.3160
   52MOL   H33219814   1.373   2.647   7.325 -0.3489 -0.4495 -0.7638
   52MOL   H33319815   1.208   2.403   7.403 -0.0003  0.1213 -0.7818
   52MOL   H33419816   1.318   2.418   7.263  0.6726 -0.1662  0.5703
   52MOL   H33519817   1.136   2.561   7.158  0.4119  0.3344  0.0665
   52MOL   H33619818   1.042   2.446   7.230 -1.0455  1.5945 -0.1458
   52MOL   H33719819   1.001   2.572   7.430 -0.6963  0.3341 -1.2921
   52MOL   H33819820   1.036   2.792   7.234 -2.4671  1.9974  0.1206
   52MOL   H33919821   0.909   2.678   7.240 -1.3419  1.4549  2.0499
   52MOL   H34019822   0.850   2.748   7.476 -1.1352  1.9640  0.3074
   52MOL   H34119823   1.001   2.840   7.489 -1.5016  1.4479  1.1413
   52MOL   H34219824   1.181   2.668   7.542  1.0793 -0.4436 -0.1767
   52MOL   H34319825   1.212   2.779   7.407  1.2134  0.0269  1.1323
   52MOL   C34419826   0.842   2.942   7.384 -0.2318 -0.1444  0.0224
   52MOL   C34519827   0.948   3.037   7.322  0.1115 -0.2874 -0.0409
   52MOL   C34619828   0.936   3.174   7.391  0.2119 -0.6870  0.7784
   52MOL   C34719829   0.868   3.146   7.523  0.3224  0.0387 -0.7671
   52MOL   C34819830   0.781   3.257   7.587  0.3061  0.1055 -0.2534
   52MOL   C34919831   0.847   3.386   7.604  0.3481 -0.4082 -0.2517
   52MOL   C35019832   0.778   3.025   7.496 -0.6862 -0.0865  0.5457
   52MOL   H35119833   0.754   2.932   7.320 -0.6985 -1.7411  0.8864
   52MOL   H35219834   0.935   3.034   7.214  0.4001  1.7525 -0.1664
   52MOL   H35319835   1.050   3.011   7.348  0.3592 -0.0969 -0.8095
   52MOL   H35419836   1.034   3.215   7.411  1.4140 -1.0963 -3.7576
   52MOL   H35519837   0.876   3.242   7.331  1.6537  2.0785  2.3550
   52MOL   H35619838   0.934   3.117   7.604  0.3751  0.3919 -0.6810
   52MOL   H35719839   0.683   3.265   7.540 -0.0495 -0.8443  0.2971
   52MOL   H35819840   0.742   3.233   0.039  1.0693  0.9234  0.2450
   52MOL   H35919841   0.868   3.426   7.505 -1.6030  1.4982  0.0584
   52MOL   H36019842   0.942   3.373   0.009 -0.0716  2.7645  1.4115
   52MOL   H36119843   0.778   2.977   7.593  1.8770 -0.8438  0.2044
   52MOL   H36219844   0.676   3.051   7.469 -0.7778 -0.9961 -0.0011
   52MOL   C36319845   0.763   3.495   0.022  0.8049  0.3361 -0.2150
   52MOL   C36419846   0.645   3.554   7.582  0.1870  0.7175  0.7057
   52MOL   C36519847   0.664   3.708   7.583  0.8053  0.2067  0.3857
   52MOL   C36619848   0.764   3.735   0.050  0.0085 -0.0964  0.0682
   52MOL   C36719849   0.830   3.875   0.037  0.6232  0.7988  0.6471
   52MOL   C36819850   0.878   3.914   0.176  0.1221  0.3841 -0.5319
   52MOL   C36919851   0.847   3.615   0.055  0.2763  0.6719  0.0423
   52MOL   H37019852   0.733   3.452   0.117  1.5939 -0.0252 -0.1262
   52MOL   H37119853   0.655   3.510   7.482  1.6416  0.8076  0.7942
   52MOL   H37219854   0.548   3.523   7.621 -0.4376 -0.2546 -1.5053
   52MOL   H37319855   0.702   3.744   7.488  0.5473 -1.4237 -0.3488
   52MOL   H37419856   0.567   3.758   7.596 -0.1365 -1.5143  0.0769
   52MOL   H37519857   0.700   3.731   0.139 -1.4655  0.8365 -0.9250
   52MOL   H37619858   0.896   3.860   7.599 -0.6187 -2.3994  0.1533
   52MOL   H37719859   0.757   3.944   7.642 -0.5808  0.1602  1.6284
   52MOL   H37819860   0.934   3.828   0.214  2.8617  1.3697 -2.1774
   52MOL   H37919861   0.791   3.930   0.240 -0.5531  1.0090 -1.5884
   52MOL   H38019862   0.931   3.626   7.634  1.6303  1.5032  1.8014
   52MOL   H38119863   0.894   3.601   0.152  1.0184 -1.2186 -0.5630
   52MOL   H38219864   0.946   4.000   0.176 -2.0642  2.1654  1.5690
   53MOL     C119865   6.263   1.019   4.120  0.1787  0.3347 -0.2881
   53MOL     C219866   6.299   0.924   4.235 -0.2533 -0.3606 -0.5641
   53MOL     C319867   6.276   0.788   4.175 -0.0095 -0.1547  0.1006
   53MOL     C419868   6.331   0.800   4.038 -0.2504  0.8064 -0.1407
   53MOL     C519869   6.302   0.689   3.935 -0.2934 -0.0522  0.0535
   53MOL     C619870   6.362   0.558   3.975 -0.4415  0.1649 -0.9168
   53MOL     C719871   6.299   0.945   3.991 -1.0503  0.2305 -0.3609
   53MOL     H819872   6.155   1.036   4.113  0.0141 -1.5058 -2.8928
   53MOL     H919873   6.251   0.936   4.333  0.0778  1.0662 -0.5600
   53MOL    H1019874   6.404   0.923   4.263 -1.3603 -0.9219  3.9924
   53MOL    H1119875   6.321   0.705   4.230 -1.6995 -0.1023  1.6136
   53MOL    H1219876   6.174   0.750   4.172 -0.3850  0.9929 -1.9277
   53MOL    H1319877   6.437   0.790   4.060 -0.3420  0.0170 -0.0395
   53MOL    H1419878   6.194   0.681   3.925 -0.5471 -0.7848  3.0361
   53MOL    H1519879   6.346   0.709   3.838 -1.1322 -0.9828 -0.5327
   53MOL    H1619880   6.469   0.574   3.965 -0.7255  2.8098 -0.0861
   53MOL    H1719881   6.345   0.542   4.081 -2.2981  3.0841 -0.7210
   53MOL    H1819882   6.387   0.990   3.946 -0.1033 -0.4984  0.7340
   53MOL    H1919883   6.215   0.948   3.921 -1.6748 -1.4655  0.2987
   53MOL    H2019884   6.326   1.106   4.137  4.2492 -2.7898  1.6696
   53MOL    C2119885   6.320   0.440   3.883 -0.2326  0.3829  0.0462
   53MOL    C2219886   6.392   0.311   3.924  0.2386 -0.8921  0.1708
   53MOL    C2319887   6.291   0.214   3.980 -0.7885  0.7411 -0.7117
   53MOL    C2419888   6.166   0.248   3.904  0.3039 -0.0968 -0.0626
   53MOL    C2519889   6.034   0.199   3.960  0.4307  0.7292  0.1940
   53MOL    C2619890   6.017   0.049   3.967  0.2609  0.5283 -0.3359
   53MOL    C2719891   6.170   0.403   3.889 -1.1872  0.2824 -0.4477
   53MOL    H2819892   6.328   0.467   3.778 -1.7027 -2.4612 -0.8490
   53MOL    H2919893   6.448   0.267   3.842  0.6774 -1.3951  0.7345
   53MOL    H3019894   6.468   0.323   4.001  2.2216 -1.3981 -1.6680
   53MOL    H3119895   6.319   0.110   3.965 -0.3580  0.6705  0.4681
   53MOL    H3219896   6.273   0.233   4.086  0.5170  0.5283 -0.4428
   53MOL    H3319897   6.181   0.209   3.803  1.8014  1.5273 -0.4903
   53MOL    H3419898   5.954   0.230   3.893 -0.8310 -1.5283  0.6071
   53MOL    H3519899   6.020   0.245   4.058  2.2766 -0.1996  0.9156
   53MOL    H3619900   6.085   7.645   4.036 -0.6308  2.2704  1.9009
   53MOL    H3719901   6.052   0.004   3.874 -1.0754  0.5350 -0.8454
   53MOL    H3819902   6.113   0.440   3.804 -1.4790  1.3101  0.1934
   53MOL    H3919903   6.124   0.439   3.981  2.4878  1.0606  1.1747
   53MOL    C4019904   5.873   0.008   3.992  0.2250 -0.5023  0.8307
   53MOL    C4119905   5.859   7.502   3.990  0.5093 -0.3553  0.0409
   53MOL    C4219906   5.726   7.475   4.071  0.2049  0.1610  0.0676
   53MOL    C4319907   5.687   7.607   4.146 -0.3043  0.3349 -0.2926
   53MOL    C4419908   5.561   0.023   4.095  0.3413 -0.7907 -0.1567
   53MOL    C4519909   5.429   7.613   4.155  1.1259 -0.4787  0.0430
   53MOL    C4619910   5.823   0.043   4.127  0.0152  0.2287  0.0112
   53MOL    H4719911   5.804   0.055   3.922 -0.2702 -0.6510  1.2127
   53MOL    H4819912   5.941   7.455   4.044  0.6641 -0.7798 -0.5663
   53MOL    H4919913   5.844   7.468   3.888 -0.6431 -1.3320  0.5350
   53MOL    H5019914   5.653   7.425   4.007  1.5283 -0.9891 -0.5598
   53MOL    H5119915   5.745   7.396   4.143 -0.8671 -1.1874 -1.1099
   53MOL    H5219916   5.681   7.589   4.253 -0.0020 -1.7935 -0.6056
   53MOL    H5319917   5.567   0.126   4.129  0.6119 -0.6746 -0.5533
   53MOL    H5419918   5.569   0.012   3.987  0.7434  3.9807 -0.6801
   53MOL    H5519919   5.443   7.633   4.261 -1.3331  0.3776  0.2296
   53MOL    H5619920   5.420   7.505   4.143 -0.2746 -0.5809  1.8275
   53MOL    H5719921   5.799   0.147   4.147 -1.5592 -0.4511  1.7442
   53MOL    H5819922   5.904   0.023   4.197  0.4215 -1.7412 -0.9752
   53MOL    C5919923   5.305   0.029   4.080 -0.0110  0.0095 -0.6326
   53MOL    C6019924   5.172   7.600   4.105 -0.3520  0.1552  0.6332
   53MOL    C6119925   5.067   0.059   4.067  0.3472  0.1162  0.3974
   53MOL    C6219926   5.129   0.186   4.132 -0.8143  0.0367  0.5377
   53MOL    C6319927   5.068   0.315   4.073 -0.1641  0.1488 -0.3556
   53MOL    C6419928   4.913   0.310   4.078 -0.6089  0.0064 -0.1738
   53MOL    C6519929   5.280   0.174   4.104 -0.1189 -0.1775  0.5359
   53MOL    H6619930   5.340   0.014   3.978  4.0499  0.5957  0.5733
   53MOL    H6719931   5.173   7.510   4.043 -2.6548  1.4498 -1.3457
   53MOL    H6819932   5.164   7.569   4.210 -0.3045 -1.5079  0.1690
   53MOL    H6919933   5.063   0.058   3.958 -0.4538 -0.7833  0.4267
   53MOL    H7019934   4.969   0.042   4.111  0.7870 -1.2281  0.8756
   53MOL    H7119935   5.116   0.175   4.240 -1.5565 -2.4649  0.2341
   53MOL    H7219936   5.115   0.345   3.980 -2.1089 -1.6582 -1.9679
   53MOL    H7319937   5.094   0.395   4.143  0.8174 -1.5065  1.2155
   53MOL    H7419938   4.884   0.258   3.987 -1.2623 -0.5235  0.3271
   53MOL    H7519939   4.881   0.257   4.168 -1.6974  2.0877  0.7046
   53MOL    H7619940   5.308   0.225   4.012  3.1800 -1.4471  0.7535
   53MOL    H7719941   5.336   0.222   4.185  2.5304 -3.3371  0.6558
   53MOL    C7819942   4.823   0.443   4.075  0.6719 -0.1847 -0.0264
   53MOL    C7919943   4.853   0.533   3.956  0.2769  0.1404  0.3716
   53MOL    C8019944   4.717   0.551   3.886 -0.3689 -0.3534  0.6973
   53MOL    C8119945   4.610   0.509   3.979  0.0346 -0.5228 -0.2465
   53MOL    C8219946   4.480   0.459   3.916 -0.3870  0.0376  0.2470
   53MOL    C8319947   4.400   0.566   3.835 -0.5540  0.4236  0.6710
   53MOL    C8419948   4.672   0.402   4.056  0.2906 -0.1985 -0.1391
   53MOL    H8519949   4.838   0.493   4.171 -2.5795 -0.2690  0.5815
   53MOL    H8619950   4.898   0.629   3.982 -1.4378  1.3126 -0.8760
   53MOL    H8719951   4.934   0.495   3.894 -0.7785 -0.3583 -0.7175
   53MOL    H8819952   4.703   0.652   3.846  1.3416  0.2341  1.5375
   53MOL    H8919953   4.716   0.477   3.806  0.3521  0.7793 -0.3808
   53MOL    H9019954   4.590   0.588   4.052 -4.2605 -0.3200 -1.4984
   53MOL    H9119955   4.413   0.434   3.998 -1.9777 -0.0177 -1.0324
   53MOL    H9219956   4.494   0.366   3.861  1.0704  1.2048 -1.4476
   53MOL    H9319957   4.449   0.590   3.740 -1.5799  0.2741  0.0856
   53MOL    H9419958   4.392   0.648   3.906  0.2301  0.2637  0.9463
   53MOL    H9519959   4.668   0.307   4.003 -0.7564 -0.6035  0.6453
   53MOL    H9619960   4.628   0.396   4.156  0.0475 -0.3343 -0.2538
   53MOL    C9719961   4.261   0.521   3.796  0.0807  0.0122  0.4719
   53MOL    C9819962   4.244   0.399   3.692  0.5038 -0.2285 -0.3817
   53MOL    C9919963   4.134   0.436   3.602  0.5595  0.3590 -0.3238
   53MOL   C10019964   4.072   0.563   3.666  0.4452  0.2872 -0.2996
   53MOL   C10119965   3.995   0.642   3.561 -0.5097  0.2910  0.0357
   53MOL   C10219966   3.944   0.775   3.615  0.1426  0.2406  0.4547
   53MOL   C10319967   4.186   0.641   3.731 -0.8132 -0.1443 -0.7867
   53MOL   H10419968   4.212   0.493   3.889  0.1099  1.7917  1.0408
   53MOL   H10519969   4.330   0.370   3.632 -0.3668 -3.6482 -0.1096
   53MOL   H10619970   4.209   0.309   3.742  0.7139 -0.7939 -1.2445
   53MOL   H10719971   4.171   0.465   3.504 -2.2366 -1.9406 -2.1470
   53MOL   H10819972   4.064   0.352   3.597 -0.8664  1.5726 -1.0421
   53MOL   H10919973   4.003   0.538   3.747  0.7060 -0.5431 -0.3304
   53MOL   H11019974   4.064   0.664   3.480  0.3462 -1.2656  0.3289
   53MOL   H11119975   3.912   0.587   3.518  0.3276  0.2982 -1.6452
   53MOL   H11219976   3.876   0.749   3.696 -0.6004 -2.1409 -0.8885
   53MOL   H11319977   4.020   0.837   3.662  0.6871 -0.3581  0.3723
   53MOL   H11419978   4.247   0.692   3.656 -0.2925 -0.2962 -0.4623
   53MOL   H11519979   4.153   0.705   3.813 -1.2617 -2.6745  1.0719
   53MOL   C11619980   3.855   0.849   3.511  0.0930  1.0453  0.2791
   53MOL   C11719981   3.768   0.963   3.575  0.7100  0.7712  0.2482
   53MOL   C11819982   3.740   1.067   3.467  0.3807 -0.7660 -0.1206
   53MOL   C11919983   3.877   1.066   3.399  0.1877 -0.6516 -0.1540
   53MOL   C12019984   3.988   1.148   3.459 -0.6053  0.2653 -0.1814
   53MOL   C12119985   4.009   1.278   3.379  0.0482 -0.1033  0.0908
   53MOL   C12219986   3.922   0.922   3.395  0.0119 -0.3547  0.2566
   53MOL   H12319987   3.788   0.777   3.464  0.6402  0.1191  0.9218
   53MOL   H12419988   3.823   1.013   3.655  0.0611 -2.1741  2.6235
   53MOL   H12519989   3.672   0.929   3.615 -0.4846  1.3276 -2.0723
   53MOL   H12619990   3.695   1.162   3.495 -1.1536 -1.6080  0.3363
   53MOL   H12719991   3.663   1.023   3.404  0.9958 -0.8874 -0.8019
   53MOL   H12819992   3.861   1.095   3.295 -0.0552 -2.9788 -0.7950
   53MOL   H12919993   4.080   1.094   3.480 -0.6811  0.5414  0.9364
   53MOL   H13019994   3.961   1.171   3.563  0.9169  1.3507 -0.0075
   53MOL   H13119995   3.915   1.323   3.349 -0.1425  0.6747  1.8030
   53MOL   H13219996   4.062   1.244   3.290  0.6627  3.7848 -1.0873
   53MOL   H13319997   3.887   0.888   3.298 -0.2706  2.4306 -0.6500
   53MOL   H13419998   4.028   0.898   3.383 -0.0062 -0.5361  0.4596
   53MOL   C13519999   4.096   1.379   3.457  0.2519  0.3538 -0.1891
   53MOL   C13620000   4.242   1.343   3.472 -0.1977 -0.1259 -0.6713
   53MOL   C13720001   4.314   1.472   3.473  0.0574  0.4444 -0.5029
   53MOL   C13820002   4.238   1.560   3.374  0.9357 -0.4573 -0.4011
   53MOL   C13920003   4.257   1.714   3.394  0.2425  0.2130  0.3279
   53MOL   C14020004   4.403   1.759   3.388 -0.4850  0.1109 -0.3197
   53MOL   C14120005   4.093   1.516   3.382  0.7174  0.1787  0.1307
   53MOL   H14220006   4.051   1.398   3.554 -2.4333 -1.1586 -1.1185
   53MOL   H14320007   4.254   1.282   3.561  4.7866  1.3570 -0.1485
   53MOL   H14420008   4.276   1.279   3.391 -0.5405 -2.3414  0.9029
   53MOL   H14520009   4.304   1.497   3.578 -3.0375 -0.3611 -0.5685
   53MOL   H14620010   4.420   1.463   3.451 -0.0975 -1.2896 -0.5868
   53MOL   H14720011   4.268   1.533   3.273  2.5873 -0.9204  0.1948
   53MOL   H14820012   4.220   1.744   3.492  1.9499 -2.1675  1.7524
   53MOL   H14920013   4.207   1.769   3.315  0.0733 -0.2093  0.1375
   53MOL   H15020014   4.402   1.867   3.406 -1.5528  0.1384 -0.5171
   53MOL   H15120015   4.447   1.722   3.481 -1.5856 -0.8382 -0.1614
   53MOL   H15220016   4.042   1.512   3.286 -1.2943  2.0289  1.0579
   53MOL   H15320017   4.039   1.590   3.441  0.2508  2.7848 -3.3627
   53MOL   C15420018   4.493   1.710   3.273  0.5082 -0.2829  0.3809
   53MOL   C15520019   4.618   1.793   3.270  1.0114 -0.6670 -0.2051
   53MOL   C15620020   4.647   1.841   3.128  0.2155 -0.2530 -0.3173
   53MOL   C15720021   4.552   1.754   3.046 -0.5765 -0.5335 -0.3641
   53MOL   C15820022   4.524   1.807   2.902  0.0783 -0.0159 -0.5100
   53MOL   C15920023   4.436   1.728   2.806  1.1288 -0.4124 -0.5239
   53MOL   C16020024   4.424   1.743   3.141  0.1945  0.0726 -0.0513
   53MOL   H16120025   4.507   1.603   3.283  3.8333  0.2580  2.0828
   53MOL   H16220026   4.611   1.878   3.338  0.4785  0.5622 -1.7728
   53MOL   H16320027   4.701   1.734   3.310  1.8806  1.3334  1.0094
   53MOL   H16420028   4.624   1.947   3.121 -3.3268 -0.6701  3.5766
   53MOL   H16520029   4.752   1.830   3.099  0.6703 -0.8555  1.5207
   53MOL   H16620030   4.598   1.655   3.040  0.7870  0.0322  0.4510
   53MOL   H16720031   4.619   1.819   2.850  1.6886 -5.3560  0.8917
   53MOL   H16820032   4.490   1.910   2.896  2.2992  0.6809 -1.6629
   53MOL   H16920033   4.462   1.622   2.811  1.4403 -0.3081  0.1368
   53MOL   H17020034   4.329   1.741   2.823  1.0026  2.3830 -3.0702
   53MOL   H17120035   4.355   1.667   3.104  0.2847  0.6581 -1.4342
   53MOL   H17220036   4.373   1.839   3.149  0.5962  0.0432  3.4285
   53MOL   C17320037   4.453   1.765   2.657 -0.3044  0.1617 -0.6397
   53MOL   C17420038   4.585   1.718   2.590  0.0568 -0.2974 -0.5221
   53MOL   C17520039   4.553   1.718   2.441  0.1542 -0.0685 -0.3294
   53MOL   C17620040   4.396   1.707   2.430  0.0351 -0.0513  0.0363
   53MOL   C17720041   4.354   1.598   2.323 -0.0188  1.0746 -0.2016
   53MOL   C17820042   4.209   1.603   2.287 -0.0708  0.4362 -0.4335
   53MOL   C17920043   4.350   1.679   2.573  0.6493 -0.1903 -0.2926
   53MOL   H18020044   4.439   1.871   2.637 -0.3881  0.2104 -0.3230
   53MOL   H18120045   4.599   1.615   2.623  0.5086 -0.9454 -2.6694
   53MOL   H18220046   4.676   1.771   2.621  0.5857 -1.4419 -0.0865
   53MOL   H18320047   4.587   1.807   2.388  0.5513 -0.0061  0.0339
   53MOL   H18420048   4.600   1.628   2.400  0.6285  0.3531 -0.7236
   53MOL   H18520049   4.360   1.801   2.389  1.5930  0.2906 -0.5950
   53MOL   H18620050   4.402   1.506   2.355 -2.8953 -1.0541 -1.7435
   53MOL   H18720051   4.410   1.628   2.235 -0.7794  0.5783 -0.8576
   53MOL   H18820052   4.170   1.705   2.278 -0.4863  0.1715 -1.6408
   53MOL   H18920053   4.156   1.567   2.376  0.4859 -0.5005 -0.4755
   53MOL   H19020054   4.354   1.577   2.611  0.8369  0.9785  3.0101
   53MOL   H19120055   4.246   1.702   2.597  0.3738 -0.9460 -0.7612
   53MOL   C19220056   4.173   1.522   2.159  0.1668 -0.0370 -0.1724
   53MOL   C19320057   4.028   1.508   2.138  0.3637  0.6189  0.9212
   53MOL   C19420058   4.010   1.395   2.037  0.1099 -0.2421 -0.4749
   53MOL   C19520059   4.138   1.307   2.045  0.4363 -0.7296  0.4770
   53MOL   C19620060   4.221   1.311   1.913  0.4595 -0.0704 -0.1699
   53MOL   C19720061   4.152   1.235   1.796 -0.1863 -0.1288 -0.1969
   53MOL   C19820062   4.217   1.377   2.161  0.1914  0.0611 -0.5197
   53MOL   H19920063   4.220   1.561   2.069  1.8427 -1.8400 -0.1342
   53MOL   H20020064   3.984   1.483   2.235 -0.0533  3.1465  1.4057
   53MOL   H20120065   3.979   1.599   2.105  0.0895 -0.6306 -2.2453
   53MOL   H20220066   3.999   1.435   1.937 -0.7861 -0.1607 -0.3460
   53MOL   H20320067   3.920   1.334   2.045  0.4123 -0.7617 -0.9939
   53MOL   H20420068   4.109   1.207   2.077  3.6613 -2.4838 -1.8112
   53MOL   H20520069   4.311   1.253   1.934  0.6170  0.4544  0.6264
   53MOL   H20620070   4.241   1.416   1.892 -1.1164  1.1359  3.9477
   53MOL   H20720071   4.072   1.295   1.753  0.6358 -0.1653 -1.8356
   53MOL   H20820072   4.093   1.152   1.834 -1.1107 -0.0267 -1.3665
   53MOL   H20920073   4.323   1.364   2.142  0.5320  1.2715  0.4388
   53MOL   H21020074   4.195   1.339   2.260 -0.4959 -1.4180 -1.2367
   53MOL   C21120075   4.253   1.192   1.686  0.5320  0.1567 -0.4234
   53MOL   C21220076   4.319   1.311   1.614 -0.6321 -0.8095 -0.1024
   53MOL   C21320077   4.309   1.290   1.462  0.3637 -0.5412 -0.2254
   53MOL   C21420078   4.179   1.205   1.453  0.3107  0.3754 -0.2942
   53MOL   C21520079   4.041   1.287   1.445 -0.2779  0.6767 -0.1415
   53MOL   C21620080   3.934   1.202   1.371  0.0766 -0.0587 -0.7514
   53MOL   C21720081   4.180   1.108   1.574 -0.0229  0.2691  0.5400
   53MOL   H21820082   4.331   1.133   1.734 -0.4175  0.4772  1.5724
   53MOL   H21920083   4.284   1.408   1.649  2.0414 -0.3515  1.4050
   53MOL   H22020084   4.424   1.315   1.644 -0.6880  0.8059 -0.1062
   53MOL   H22120085   4.305   1.382   1.404  0.6638 -0.9850 -0.9510
   53MOL   H22220086   4.406   1.247   1.439  0.0871 -0.6112 -1.2943
   53MOL   H22320087   4.192   1.136   1.370  1.0500 -0.7636  0.7484
   53MOL   H22420088   4.048   1.378   1.384  3.0568 -0.3570 -1.4499
   53MOL   H22520089   4.003   1.324   1.540 -0.6134 -1.9471  0.7733
   53MOL   H22620090   3.917   1.111   1.429 -1.1224 -0.6255 -1.9500
   53MOL   H22720091   3.843   1.262   1.376 -0.2412 -0.4590 -1.5715
   53MOL   H22820092   4.242   1.024   1.543 -2.2708 -0.2843 -2.7901
   53MOL   H22920093   4.085   1.069   1.609 -0.7299  2.2903  0.9742
   53MOL   C23020094   3.966   1.162   1.226 -0.2838 -0.6509  0.0497
   53MOL   C23120095   3.982   1.278   1.131 -0.1037  0.1631  0.0800
   53MOL   C23220096   3.844   1.291   1.061  0.1781 -0.0612  0.4032
   53MOL   C23320097   3.757   1.181   1.110 -1.0497  0.1768  0.7399
   53MOL   C23420098   3.667   1.134   0.996 -0.4522 -0.0724  0.3014
   53MOL   C23520099   3.549   1.237   0.959 -0.0755 -0.0511 -0.3006
   53MOL   C23620100   3.850   1.078   1.168  0.2279  0.3844  0.4897
   53MOL   H23720101   4.055   1.101   1.237  1.1089  1.2342 -0.6156
   53MOL   H23820102   4.017   1.372   1.174  0.9378  0.2972 -1.0320
   53MOL   H23920103   4.052   1.258   1.050 -1.3899  0.1045 -1.0255
   53MOL   H24020104   3.851   1.278   0.953  1.4761  1.0609  0.3374
   53MOL   H24120105   3.796   1.385   1.086 -1.2770 -0.9440  0.9757
   53MOL   H24220106   3.699   1.216   1.195 -1.1225 -0.1385  0.8215
   53MOL   H24320107   3.618   1.040   1.021  0.9384 -0.6548  0.8907
   53MOL   H24420108   3.730   1.116   0.909 -0.4987 -0.1818  0.2903
   53MOL   H24520109   3.481   1.256   1.042 -0.8869 -1.9929 -0.4913
   53MOL   H24620110   3.596   1.332   0.935 -1.0633  0.6298  0.4279
   53MOL   H24720111   3.895   1.018   1.088 -1.4456 -0.2187 -0.0076
   53MOL   H24820112   3.803   1.009   1.238  0.5530 -1.1525 -0.7623
   53MOL   C24920113   3.461   1.203   0.839 -0.7606 -0.5478  0.1746
   53MOL   C25020114   3.376   1.080   0.853  0.2646 -0.1158  0.1226
   53MOL   C25120115   3.281   1.102   0.738  0.4397  0.2633  0.4517
   53MOL   C25220116   3.246   1.248   0.738 -0.8147 -0.5800  0.0349
   53MOL   C25320117   3.210   1.324   0.602 -0.5999 -0.5530  0.2583
   53MOL   C25420118   3.147   1.463   0.632 -0.1633  0.7207  0.4011
   53MOL   C25520119   3.367   1.319   0.805 -0.3234  0.2397 -0.1349
   53MOL   H25620120   3.520   1.196   0.747 -0.7119 -1.7468  0.2936
   53MOL   H25720121   3.440   0.992   0.856  0.4918 -0.0185 -1.5019
   53MOL   H25820122   3.312   1.078   0.942  0.5913  1.0767  0.3808
   53MOL   H25920123   3.192   1.041   0.743 -0.8977  2.1306  0.0543
   53MOL   H26020124   3.338   1.071   0.650  1.2286  0.8483  0.7471
   53MOL   H26120125   3.166   1.256   0.812 -1.0011  3.4424 -0.4507
   53MOL   H26220126   3.154   1.252   0.543  0.3060 -1.0060 -0.0504
   53MOL   H26320127   3.297   1.347   0.541 -2.2946  0.3624 -1.9265
   53MOL   H26420128   3.218   1.514   0.697  2.0626  1.8540 -2.8074
   53MOL   H26520129   3.064   1.452   0.702 -2.0309  0.0718 -1.8646
   53MOL   H26620130   3.339   1.378   0.892 -0.8789  2.0661 -1.5307
   53MOL   H26720131   3.417   1.384   0.734  0.8740  0.5058  0.9226
   53MOL   C26820132   3.135   1.546   0.504  0.1886 -0.1134  0.4488
   53MOL   C26920133   3.110   1.691   0.531  0.3310 -0.2100  0.3718
   53MOL   C27020134   3.023   1.737   0.417 -0.2300  0.5768 -0.1979
   53MOL   C27120135   2.940   1.622   0.375 -0.2359 -0.1344 -0.0214
   53MOL   C27220136   2.805   1.609   0.446 -0.2371  0.5878  0.8621
   53MOL   C27320137   2.711   1.730   0.412 -0.3498  0.2594  0.0227
   53MOL   C27420138   3.025   1.499   0.411 -0.5536  0.4521  0.9410
   53MOL   H27520139   3.229   1.539   0.448  0.3161 -0.8985  0.7485
   53MOL   H27620140   3.047   1.707   0.618 -1.2454 -1.2700 -0.5481
   53MOL   H27720141   3.201   1.750   0.537 -0.7839  1.8330 -2.1051
   53MOL   H27820142   2.964   1.823   0.448 -1.8571 -0.5092 -0.2235
   53MOL   H27920143   3.078   1.771   0.329  1.9007 -2.0090  0.0684
   53MOL   H28020144   2.922   1.619   0.267 -0.8404 -0.3803  0.0863
   53MOL   H28120145   2.827   1.604   0.552  2.4618  2.5059  0.4533
   53MOL   H28220146   2.760   1.518   0.405  1.7463  1.2079 -2.9564
   53MOL   H28320147   2.766   1.814   0.454 -0.3398 -1.4462  3.6211
   53MOL   H28420148   2.694   1.741   0.305 -0.7668 -2.2108 -0.1960
   53MOL   H28520149   2.960   1.421   0.452 -1.6730  1.1019  0.4132
   53MOL   H28620150   3.071   1.453   0.324 -1.9047  1.8187 -0.5215
   53MOL   C28720151   2.575   1.702   0.487 -0.4160 -0.0291 -0.2835
   53MOL   C28820152   2.588   1.708   0.644  0.1825 -0.0800  0.7061
   53MOL   C28920153   2.440   1.739   0.686  0.7955  0.0094 -0.0438
   53MOL   C29020154   2.357   1.785   0.563 -0.4114 -0.4450  0.5374
   53MOL   C29120155   2.281   1.919   0.584  0.6091 -0.0949  0.1604
   53MOL   C29220156   2.226   1.988   0.454  1.1324  0.0999 -0.2217
   53MOL   C29320157   2.470   1.807   0.459  0.1972 -0.2909 -0.7724
   53MOL   H29420158   2.527   1.614   0.442  0.0497 -0.6609  0.4518
   53MOL   H29520159   2.618   1.611   0.683 -0.1165 -1.2189 -1.8365
   53MOL   H29620160   2.666   1.782   0.664 -0.5419  1.4287 -1.8079
   53MOL   H29720161   2.438   1.803   0.774 -1.4208  0.2977 -0.2798
   53MOL   H29820162   2.393   1.646   0.716 -0.4369  1.1037  1.5005
   53MOL   H29920163   2.287   1.708   0.529 -0.5691  0.1215 -0.4283
   53MOL   H30020164   2.355   1.979   0.638 -0.1391 -0.1232  1.2316
   53MOL   H30120165   2.200   1.909   0.656 -0.9720  0.9322 -1.4373
   53MOL   H30220166   2.313   2.010   0.392 -0.1580 -0.1144 -2.1213
   53MOL   H30320167   2.185   2.089   0.458  2.9990  0.8656  0.7703
   53MOL   H30420168   2.516   1.903   0.481  1.2895 -1.3207  1.6340
   53MOL   H30520169   2.446   1.814   0.353 -1.0859 -2.0868 -0.6352
   53MOL   C30620170   2.136   1.904   0.369  0.5821  0.0840  0.2539
   53MOL   C30720171   2.016   1.857   0.449 -0.3780 -0.2336 -0.4503
   53MOL   C30820172   1.911   1.841   0.341  0.1604 -0.3322 -0.1960
   53MOL   C30920173   1.972   1.871   0.203  0.4313  0.0885  0.2614
   53MOL   C31020174   1.862   1.933   0.107 -0.4510 -0.5118  0.0041
   53MOL   C31120175   1.763   1.829   0.042  0.0552 -0.4774 -0.4325
   53MOL   C31220176   2.085   1.968   0.237 -0.1632  0.3141 -0.1578
   53MOL   H31320177   2.198   1.816   0.348  1.8417  0.8666  0.6704
   53MOL   H31420178   2.028   1.769   0.511  1.1971  0.3702  0.1376
   53MOL   H31520179   1.990   1.926   0.530 -0.0027 -0.1909 -0.3631
   53MOL   H31620180   1.865   1.743   0.328  2.2301 -1.1988 -1.2515
   53MOL   H31720181   1.821   1.898   0.364  0.3300  0.6846 -1.9686
   53MOL   H31820182   2.025   1.789   0.154  0.6210  0.2223  0.2401
   53MOL   H31920183   1.802   2.001   0.167  2.7770  2.8433 -0.4088
   53MOL   H32020184   1.912   1.994   0.031  0.7511 -1.0240  0.3737
   53MOL   H32120185   1.733   1.755   0.115 -0.1670 -1.5358 -1.5788
   53MOL   H32220186   1.834   1.778   7.624 -0.6988 -0.1982 -1.4844
   53MOL   H32320187   2.051   2.071   0.246  1.6817  0.8064  1.5382
   53MOL   H32420188   2.165   1.953   0.164  1.1420 -0.2812  1.3711
   53MOL   C32520189   1.635   1.890   7.632 -0.3986 -0.5762  0.5313
   53MOL   C32620190   1.652   1.947   7.491 -0.1590  0.5201 -0.1921
   53MOL   C32720191   1.613   1.833   7.390 -0.1130 -0.0550 -0.0449
   53MOL   C32820192   1.569   1.713   7.475 -0.7657  0.2812 -0.1371
   53MOL   C32920193   1.449   1.630   7.417  0.4374 -0.1322 -0.2980
   53MOL   C33020194   1.487   1.483   7.373  0.0804 -0.4192 -0.1146
   53MOL   C33120195   1.532   1.782   7.610 -0.2157  0.1790 -0.3016
   53MOL   H33220196   1.593   1.955   0.062  0.7736  2.7399 -1.5449
   53MOL   H33320197   1.756   1.977   7.478  1.2771 -3.2562  1.6966
   53MOL   H33420198   1.585   2.032   7.482  1.3839  1.5442 -2.5218
   53MOL   H33520199   1.536   1.875   7.325 -1.9492 -0.0466  2.0476
   53MOL   H33620200   1.693   1.800   7.325  0.0912 -0.3625  0.3566
   53MOL   H33720201   1.657   1.651   7.495  0.1098  1.7906  0.8019
   53MOL   H33820202   1.361   1.631   7.481  0.1338 -1.3065 -0.6820
   53MOL   H33920203   1.415   1.675   7.324 -0.3800  0.3160  0.2058
   53MOL   H34020204   1.585   1.493   7.327  0.8763 -1.6859  1.2967
   53MOL   H34120205   1.491   1.425   7.465 -0.0811  1.4065  1.0769
   53MOL   H34220206   1.516   1.703   0.036 -1.3128 -0.2699 -1.0091
   53MOL   H34320207   1.436   1.834   7.602 -0.2920 -0.3547 -3.3292
   53MOL   C34420208   1.398   1.414   7.272 -0.3540 -0.0514  0.1367
   53MOL   C34520209   1.244   1.427   7.306 -0.0036  0.3499  0.3208
   53MOL   C34620210   1.189   1.294   7.262 -0.6176  0.3271  0.2948
   53MOL   C34720211   1.293   1.188   7.287 -0.2507  0.6107 -0.0334
   53MOL   C34820212   1.274   1.059   7.204 -0.5817 -0.0981  0.1924
   53MOL   C34920213   1.347   0.936   7.270 -0.3438  0.1467  0.2070
   53MOL   C35020214   1.424   1.263   7.266 -0.5748  0.2634 -0.1171
   53MOL   H35120215   1.416   1.458   7.174 -0.5672 -0.8196 -0.2515
   53MOL   H35220216   1.191   1.502   7.248 -0.4997  0.5317  1.0060
   53MOL   H35320217   1.233   1.444   7.413 -1.4852  0.6810  0.1158
   53MOL   H35420218   1.091   1.278   7.307 -0.6140  0.2474  0.2767
   53MOL   H35520219   1.169   1.297   7.154 -2.2428  2.5599  0.6298
   53MOL   H35620220   1.281   1.160   7.392 -1.6044 -2.1747 -0.8708
   53MOL   H35720221   1.168   1.038   7.193 -0.5768  0.1577 -0.3323
   53MOL   H35820222   1.310   1.077   7.103 -3.2466  0.3051 -0.7020
   53MOL   H35920223   1.271   0.874   7.319 -0.2918  1.8887  2.5952
   53MOL   H36020224   1.404   0.971   7.356  0.9554 -1.8381  0.1996
   53MOL   H36120225   1.490   1.227   7.345 -1.4093 -0.2025  0.3797
   53MOL   H36220226   1.473   1.236   7.172 -1.0065 -0.2477 -0.1974
   53MOL   C36320227   1.431   0.847   7.175 -0.1983  0.1409 -0.5416
   53MOL   C36420228   1.366   0.774   7.062  0.3974 -0.2925 -0.2223
   53MOL   C36520229   1.472   0.674   7.026  0.4318  0.8496  0.3401
   53MOL   C36620230   1.588   0.673   7.124 -0.5420  0.0916  0.8415
   53MOL   C36720231   1.655   0.534   7.151  0.8482 -0.7250 -0.4479
   53MOL   C36820232   1.766   0.536   7.256  0.0206 -0.4948  0.5763
   53MOL   C36920233   1.530   0.739   7.246 -0.3501  0.3335 -0.0442
   53MOL   H37020234   1.510   0.911   7.136  0.5779 -0.3630  0.1818
   53MOL   H37120235   1.272   0.730   7.093  0.2196  0.3784  0.1995
   53MOL   H37220236   1.346   0.846   6.983 -0.3373  1.0941  1.2043
   53MOL   H37320237   1.430   0.574   7.031  0.2540  0.8825 -0.4307
   53MOL   H37420238   1.511   0.687   6.925 -0.8713 -1.3218 -0.4742
   53MOL   H37520239   1.666   0.741   7.087 -2.7278  1.1818 -1.8981
   53MOL   H37620240   1.574   0.469   7.183  2.5801 -2.3229  0.7512
   53MOL   H37720241   1.706   0.501   7.061 -1.1489  0.2912 -1.9926
   53MOL   H37820242   1.803   0.436   7.279  1.6986  0.0918  0.5691
   53MOL   H37920243   1.736   0.575   7.353 -0.5303 -1.4557  0.7943
   53MOL   H38020244   1.467   0.661   7.290 -0.8936  0.7416 -0.0987
   53MOL   H38120245   1.596   0.776   7.324  1.1406 -1.3350 -0.4678
   53MOL   H38220246   1.850   0.586   7.208  1.0359 -2.4181  0.3098
   54MOL     C120247   5.784   4.868   1.080 -0.1607  0.0723 -0.0492
   54MOL     C220248   5.933   4.846   1.058 -0.0059 -1.0098 -0.5379
   54MOL     C320249   5.941   4.792   0.908 -0.2308 -0.2036 -0.2041
   54MOL     C420250   5.833   4.877   0.840 -0.2177 -0.1796 -0.2313
   54MOL     C520251   5.775   4.796   0.718  0.4650  0.1532 -0.1987
   54MOL     C620252   5.675   4.868   0.625  0.2028 -0.0840 -0.2265
   54MOL     C720253   5.734   4.924   0.951 -1.0926 -0.0221 -0.1966
   54MOL     H820254   5.743   4.768   1.087 -1.4645  0.5431 -0.8404
   54MOL     H920255   5.964   4.772   1.131 -1.7671  0.4602  1.7355
   54MOL    H1020256   5.991   4.937   1.076 -0.3449 -0.6374 -1.2955
   54MOL    H1120257   6.042   4.799   0.866  0.9928 -1.5259  2.4485
   54MOL    H1220258   5.906   4.690   0.914 -0.5513 -0.0208  1.0588
   54MOL    H1320259   5.879   4.971   0.811 -0.2195  0.2508  1.1400
   54MOL    H1420260   5.862   4.762   0.662  1.8138  0.4873  1.6422
   54MOL    H1520261   5.727   4.711   0.768  1.8953  0.0293  0.9893
   54MOL    H1620262   5.592   4.910   0.681  0.2989  0.4228 -0.4634
   54MOL    H1720263   5.735   4.952   0.589 -1.2093  0.1749 -2.0656
   54MOL    H1820264   5.744   5.033   0.954 -1.4173  0.0293 -0.7674
   54MOL    H1920265   5.628   4.907   0.929 -0.8867  0.3077 -1.4900
   54MOL    H2020266   5.772   4.921   1.174  1.2745 -1.4548  1.0293
   54MOL    C2120267   5.629   4.790   0.505  0.7873  0.4949  0.4567
   54MOL    C2220268   5.532   4.682   0.542 -0.2338  0.9815 -0.0270
   54MOL    C2320269   5.408   4.691   0.457  0.3019 -0.1700 -0.3951
   54MOL    C2420270   5.469   4.762   0.335  0.7022  0.5016 -0.1907
   54MOL    C2520271   5.357   4.834   0.257 -0.6870 -0.5002  0.2609
   54MOL    C2620272   5.240   4.766   0.192 -0.2669  0.1246 -0.4575
   54MOL    C2720273   5.569   4.867   0.387  0.1936  0.2100  0.7265
   54MOL    H2820274   5.715   4.735   0.468 -0.9180 -1.7653 -0.2859
   54MOL    H2920275   5.583   4.588   0.520 -0.2350 -0.0323  3.9342
   54MOL    H3020276   5.502   4.682   0.647  0.4938 -0.1787  0.1900
   54MOL    H3120277   5.345   4.603   0.446 -0.7389  0.3335  1.3788
   54MOL    H3220278   5.336   4.761   0.500 -1.1596 -0.7839 -1.7758
   54MOL    H3320279   5.523   4.697   0.266  0.0452 -0.9000  0.5915
   54MOL    H3420280   5.407   4.900   0.186 -0.5736  0.1792  0.9646
   54MOL    H3520281   5.328   4.914   0.326  1.2843  1.5994 -1.2967
   54MOL    H3620282   5.217   4.697   0.273 -2.9148  2.8277  1.1765
   54MOL    H3720283   5.284   4.703   0.114 -2.2776 -0.0351 -1.4906
   54MOL    H3820284   5.638   4.903   0.311  0.7098 -1.5242  0.3505
   54MOL    H3920285   5.531   4.964   0.422  2.8968  1.5194  0.1508
   54MOL    C4020286   5.126   4.855   0.145  0.6369 -0.5459  0.2077
   54MOL    C4120287   5.151   4.955   0.027  0.0715  0.2411 -0.3106
   54MOL    C4220288   5.009   4.983   7.626 -0.5542  0.0283  0.2463
   54MOL    C4320289   4.926   4.859   7.641  0.1250 -0.3426  0.2028
   54MOL    C4420290   4.786   4.879   0.060  0.0507 -0.6778 -0.5115
   54MOL    C4520291   4.686   4.958   7.615  0.1976  0.0199 -0.6333
   54MOL    C4620292   5.021   4.765   0.082 -0.4735 -0.0900  0.1075
   54MOL    H4720293   5.088   4.908   0.233 -1.7217  0.2076 -1.1947
   54MOL    H4820294   5.212   4.898   7.605  0.8445 -1.3169  1.5983
   54MOL    H4920295   5.200   5.044   0.064  0.7013  0.2451 -1.1465
   54MOL    H5020296   4.957   5.059   0.038 -2.7231 -2.0139  1.0399
   54MOL    H5120297   5.009   5.013   7.521  2.0332  1.0715  0.4855
   54MOL    H5220298   4.898   4.817   7.545  2.4326 -0.0992 -0.6128
   54MOL    H5320299   4.732   4.787   0.082 -0.6954 -0.6342 -2.1515
   54MOL    H5420300   4.803   4.924   0.158 -0.3347  0.2120 -0.8516
   54MOL    H5520301   4.638   4.901   7.536  1.5403 -0.2635 -1.2633
   54MOL    H5620302   4.738   5.024   7.545  0.1590  1.1054  0.3658
   54MOL    H5720303   4.970   4.708   0.159  0.2797  0.3900  0.9815
   54MOL    H5820304   5.056   4.692   0.010  0.9598  1.7239 -1.0973
   54MOL    C5920305   4.569   5.036   0.029 -0.4589  0.8420  0.0219
   54MOL    C6020306   4.618   5.169   0.096  0.3199 -0.8869 -0.6929
   54MOL    C6120307   4.504   5.271   0.083 -0.6835 -0.3178  0.4248
   54MOL    C6220308   4.456   5.244   7.585 -0.0418 -1.3654 -0.4405
   54MOL    C6320309   4.322   5.301   7.550 -0.2211 -0.6193  0.2078
   54MOL    C6420310   4.280   5.267   7.409 -0.2374  0.6941  0.1835
   54MOL    C6520311   4.465   5.084   7.577  0.4072 -0.2407 -0.2609
   54MOL    H6620312   4.519   4.969   0.098  3.7422 -0.5270  1.9293
   54MOL    H6720313   4.649   5.147   0.198  1.8839 -1.8792 -1.3786
   54MOL    H6820314   4.705   5.219   0.055 -0.1545 -1.1322 -2.0178
   54MOL    H6920315   4.424   5.249   0.154 -0.7668  1.1117  0.7777
   54MOL    H7020316   4.529   5.377   0.077 -2.2610 -0.0458 -1.8010
   54MOL    H7120317   4.534   5.275   7.516 -2.1126 -2.3296 -3.3741
   54MOL    H7220318   4.316   5.409   7.551 -0.4740 -0.6354  0.6237
   54MOL    H7320319   4.243   5.273   7.619 -0.2553  1.2752  0.9453
   54MOL    H7420320   4.364   5.293   7.344  1.1790  0.0302  1.7282
   54MOL    H7520321   4.282   5.159   7.400 -1.2174  0.6515  0.3861
   54MOL    H7620322   4.365   5.046   7.599  0.6592 -1.2305 -0.7982
   54MOL    H7720323   4.508   5.067   7.478  2.3044  2.0585  0.1179
   54MOL    C7820324   4.147   5.330   7.363  0.0188  0.2167  0.2810
   54MOL    C7920325   4.118   5.282   7.219  0.3509  0.2796  0.1632
   54MOL    C8020326   3.963   5.271   7.210  0.3409  0.3258  0.1122
   54MOL    C8120327   3.903   5.303   7.350 -0.0981 -0.0509 -0.0552
   54MOL    C8220328   3.791   5.205   7.402  0.0532 -1.0967 -0.1611
   54MOL    C8320329   3.730   5.266   7.524 -0.2171  0.3654 -0.8424
   54MOL    C8420330   4.022   5.284   7.440 -0.9180 -0.4616  0.1865
   54MOL    H8520331   4.149   5.439   7.365  1.4878  0.2001  0.3178
   54MOL    H8620332   4.163   5.354   7.150  1.7984 -1.9848 -1.3075
   54MOL    H8720333   4.165   5.184   7.209 -1.5585 -0.5652 -0.6662
   54MOL    H8820334   3.929   5.336   7.129 -0.5877 -0.1075  0.1604
   54MOL    H8920335   3.939   5.170   7.178  0.7174  1.0443 -2.5700
   54MOL    H9020336   3.868   5.406   7.348  0.9855  0.3102 -1.1455
   54MOL    H9120337   3.821   5.101   7.411  0.0933 -1.0158  0.6648
   54MOL    H9220338   3.718   5.210   7.321  0.6121  0.4824 -0.5926
   54MOL    H9320339   3.713   5.373   7.509 -1.3114  0.5069  1.1757
   54MOL    H9420340   3.793   5.253   7.612 -0.8482  1.5288 -0.1964
   54MOL    H9520341   4.034   5.179   7.468 -0.1590 -0.8197 -1.4396
   54MOL    H9620342   4.015   5.341   7.533  2.5133 -3.4941  2.4462
   54MOL    C9720343   3.594   5.198   7.548 -0.4868  0.2725 -0.1540
   54MOL    C9820344   3.482   5.226   7.449 -0.5379 -0.2632  0.7166
   54MOL    C9920345   3.349   5.229   7.527  0.8173 -0.1137 -0.0706
   54MOL   C10020346   3.398   5.178   0.020 -0.6933  0.1361  0.5181
   54MOL   C10120347   3.308   5.225   0.131 -0.6769 -0.2156 -0.2532
   54MOL   C10220348   3.157   5.213   0.104  0.6879 -0.1640  0.4270
   54MOL   C10320349   3.534   5.233   0.038  0.5787 -0.5882  0.9020
   54MOL   H10420350   3.611   5.090   7.552  0.7575  0.4715  0.1020
   54MOL   H10520351   3.502   5.321   7.400 -1.3171 -0.1850  0.5526
   54MOL   H10620352   3.475   5.159   7.364 -1.4130  0.5474  0.1355
   54MOL   H10720353   3.302   5.327   7.530  1.6517  0.3193 -0.9941
   54MOL   H10820354   3.277   5.160   7.482 -0.0773  0.6002  0.2547
   54MOL   H10920355   3.405   5.070   0.024 -2.0699  0.0262  0.2687
   54MOL   H11020356   3.323   5.177   0.228 -1.6063  3.1567  1.6291
   54MOL   H11120357   3.331   5.330   0.144  2.4616 -0.6885 -1.4561
   54MOL   H11220358   3.134   5.220   7.645  0.4419 -2.6091  0.3004
   54MOL   H11320359   3.114   5.115   0.123 -0.7952 -0.0740 -2.2127
   54MOL   H11420360   3.540   5.341   0.053  1.6613 -0.0200 -3.0953
   54MOL   H11520361   3.584   5.180   0.120  1.4282 -2.4547 -0.7710
   54MOL   C11620362   3.072   5.314   0.183 -0.2110  0.4869 -0.5821
   54MOL   C11720363   3.084   5.459   0.131  0.0387 -0.0728  0.3917
   54MOL   C11820364   2.958   5.528   0.177  0.4329 -0.2064 -0.3403
   54MOL   C11920365   2.854   5.424   0.215 -0.1329  0.8262 -0.1650
   54MOL   C12020366   2.717   5.446   0.143  1.2749 -0.0964  0.3170
   54MOL   C12120367   2.593   5.373   0.218  0.5143 -0.0281 -0.2387
   54MOL   C12220368   2.923   5.289   0.179 -0.5590  0.7133 -0.0760
   54MOL   H12320369   3.090   5.320   0.291 -3.1406  0.4180 -0.0641
   54MOL   H12420370   3.065   5.460   0.024  2.1156 -0.6489 -0.0021
   54MOL   H12520371   3.173   5.513   0.164 -0.3684  1.4095 -0.8844
   54MOL   H12620372   2.915   5.602   0.108 -0.1718  0.5618  0.8396
   54MOL   H12720373   2.988   5.588   0.263  0.8988 -0.6429 -0.1962
   54MOL   H12820374   2.850   5.418   0.324  0.0659  1.5635 -0.1124
   54MOL   H12920375   2.730   5.430   0.036 -0.9094 -0.4860  0.0767
   54MOL   H13020376   2.694   5.552   0.153 -3.3238 -1.0442  1.2556
   54MOL   H13120377   2.601   5.379   0.326  3.6245  0.5720 -0.4708
   54MOL   H13220378   2.606   5.265   0.214  0.8025 -0.0538  1.3337
   54MOL   H13320379   2.884   5.218   0.252  1.9727  2.1556  2.8055
   54MOL   H13420380   2.900   5.246   0.082  0.2243 -0.1601  0.1143
   54MOL   C13520381   2.449   5.412   0.171  0.1276  0.7023 -0.1299
   54MOL   C13620382   2.403   5.349   0.048  0.2922  0.3069  0.4440
   54MOL   C13720383   2.242   5.347   0.059  0.8242 -0.0606 -0.2383
   54MOL   C13820384   2.221   5.314   0.205  0.1940  0.2657 -0.0667
   54MOL   C13920385   2.081   5.356   0.261 -0.0276 -0.3275  0.9951
   54MOL   C14020386   2.071   5.362   0.411  0.0762 -0.4330 -0.5160
   54MOL   C14120387   2.348   5.372   0.279  0.4411 -0.6059 -0.1847
   54MOL   H14220388   2.450   5.521   0.172  0.7681  0.6911  2.3101
   54MOL   H14320389   2.440   5.413   7.615  1.2314  0.3896  0.9373
   54MOL   H14420390   2.441   5.248   0.039  1.0907  0.5527  1.0502
   54MOL   H14520391   2.201   5.445   0.033  0.0724 -0.5482 -0.9055
   54MOL   H14620392   2.194   5.277   7.639 -1.9623  1.1949  0.3886
   54MOL   H14720393   2.235   5.207   0.189  1.4058  0.3817  0.2026
   54MOL   H14820394   1.993   5.311   0.217  0.2273  2.4410 -2.5467
   54MOL   H14920395   2.056   5.454   0.222  1.0583 -1.0204 -1.5354
   54MOL   H15020396   2.106   5.269   0.457 -2.9345  0.1980  3.3102
   54MOL   H15120397   2.140   5.436   0.451  0.3688 -0.5886 -0.7258
   54MOL   H15220398   2.382   5.296   0.350 -1.0324  0.5495  1.8202
   54MOL   H15320399   2.327   5.457   0.344  1.2920 -0.8264  0.3905
   54MOL   C15420400   1.930   5.396   0.458  0.8525 -0.7775  0.4904
   54MOL   C15520401   1.922   5.466   0.594  0.5614  0.3814 -0.1804
   54MOL   C15620402   1.792   5.420   0.658 -0.0400 -0.2702  0.9446
   54MOL   C15720403   1.717   5.326   0.562  0.2580 -0.2822  0.1171
   54MOL   C15820404   1.652   5.209   0.640 -0.0322  0.2551  0.7450
   54MOL   C15920405   1.552   5.244   0.758  0.1665 -0.3715  0.2559
   54MOL   C16020406   1.826   5.280   0.463  0.3360 -0.0565  0.1000
   54MOL   H16120407   1.886   5.472   0.394  0.0555 -1.7146 -0.0835
   54MOL   H16220408   2.004   5.430   0.656 -1.5313 -2.1643  1.2255
   54MOL   H16320409   1.914   5.574   0.591  0.2106  0.4269  1.8782
   54MOL   H16420410   1.804   5.357   0.746 -1.5075 -1.2916  0.4386
   54MOL   H16520411   1.743   5.512   0.689  1.0979  0.5580  0.3150
   54MOL   H16620412   1.638   5.381   0.510  2.8631 -1.2334 -5.2349
   54MOL   H16720413   1.734   5.146   0.674 -0.5102 -1.4957 -1.2437
   54MOL   H16820414   1.599   5.149   0.567  0.2921  1.4547 -0.4983
   54MOL   H16920415   1.599   5.301   0.838 -0.3822 -0.1079  0.3905
   54MOL   H17020416   1.466   5.306   0.734  0.4935  0.1265  0.3690
   54MOL   H17120417   1.778   5.249   0.370  3.4692  2.9555 -2.6608
   54MOL   H17220418   1.882   5.193   0.495  2.7590  1.3986 -0.0716
   54MOL   C17320419   1.510   5.114   0.822  0.8437  0.1861  0.1301
   54MOL   C17420420   1.425   5.134   0.945  0.2386  0.3790  0.6359
   54MOL   C17520421   1.297   5.053   0.923 -0.4808  0.0943  0.3832
   54MOL   C17620422   1.328   4.947   0.812  0.1275 -0.0943  0.3446
   54MOL   C17720423   1.206   4.883   0.744  0.5057  0.1879  0.7205
   54MOL   C17820424   1.236   4.784   0.633  0.1638 -0.2309 -0.5074
   54MOL   C17920425   1.427   5.024   0.720  0.1653  0.3400 -0.1154
   54MOL   H18020426   1.595   5.054   0.854 -1.4625 -2.9542  0.6760
   54MOL   H18120427   1.390   5.236   0.961 -3.6980 -0.8359  0.2532
   54MOL   H18220428   1.499   5.106   1.020  2.8715  1.8135 -1.3351
   54MOL   H18320429   1.277   5.014   1.023 -3.1792 -2.6439 -1.1365
   54MOL   H18420430   1.213   5.117   0.898  0.3316  0.5948 -1.1635
   54MOL   H18520431   1.382   4.864   0.858  1.3054 -0.3955 -1.5215
   54MOL   H18620432   1.151   4.967   0.703  0.2421 -0.0966  0.4858
   54MOL   H18720433   1.140   4.842   0.821 -0.6555 -2.2673 -1.4839
   54MOL   H18820434   1.279   4.844   0.553 -1.6063 -0.8239 -1.9633
   54MOL   H18920435   1.146   4.737   0.592 -0.5173 -0.7918  1.5932
   54MOL   H19020436   1.364   5.078   0.650  0.1161  1.2385  0.6117
   54MOL   H19120437   1.496   4.960   0.664  1.3026  0.9638  0.5452
   54MOL   C19220438   1.339   4.677   0.677 -0.1847  0.1629  1.1060
   54MOL   C19320439   1.374   4.584   0.560 -0.3362 -0.2839 -0.5553
   54MOL   C19420440   1.431   4.457   0.621 -0.2682  0.3105 -0.1493
   54MOL   C19520441   1.357   4.442   0.757 -0.0553 -0.1119 -0.2174
   54MOL   C19620442   1.454   4.382   0.856  0.9374 -0.1721 -0.3439
   54MOL   C19720443   1.385   4.307   0.963 -0.0868  0.7286  0.2634
   54MOL   C19820444   1.301   4.582   0.792  0.1064 -0.5628  0.4186
   54MOL   H19920445   1.436   4.721   0.699 -0.4883  1.5957 -0.3218
   54MOL   H20020446   1.286   4.557   0.503  0.4348  1.8068 -2.7955
   54MOL   H20120447   1.431   4.634   0.482 -1.0402  0.9685 -0.2773
   54MOL   H20220448   1.531   4.489   0.649  0.0174  0.6732 -1.5314
   54MOL   H20320449   1.432   4.374   0.549 -1.4880 -1.0229  1.3443
   54MOL   H20420450   1.271   4.376   0.753 -0.2982  0.2347 -0.7459
   54MOL   H20520451   1.505   4.464   0.907 -0.3327  0.5462 -0.2040
   54MOL   H20620452   1.537   4.331   0.806  0.4823 -0.6894 -0.5745
   54MOL   H20720453   1.320   4.229   0.925  0.5224  0.2923  0.1085
   54MOL   H20820454   1.319   4.372   1.020  0.3459  0.4236  1.1251
   54MOL   H20920455   1.337   4.633   0.881 -0.9023  0.3456  0.3137
   54MOL   H21020456   1.192   4.578   0.798 -0.2572  1.7670 -3.0452
   54MOL   C21120457   1.481   4.249   1.061 -0.1793 -0.0338 -0.1811
   54MOL   C21220458   1.541   4.112   1.031  0.0642 -0.2341  0.1085
   54MOL   C21320459   1.597   4.073   1.169  0.9411 -0.5226 -0.0725
   54MOL   C21420460   1.515   4.149   1.282 -0.7026 -0.3816  0.2780
   54MOL   C21520461   1.445   4.064   1.391  0.1894  0.2487 -0.1577
   54MOL   C21620462   1.413   4.128   1.523 -0.2928  0.0938  0.0030
   54MOL   C21720463   1.415   4.244   1.204 -0.7480  0.1236  0.1103
   54MOL   H21820464   1.557   4.327   1.064  2.1531 -2.1595 -2.1888
   54MOL   H21920465   1.468   4.033   1.015  0.2530 -0.4382  0.2530
   54MOL   H22020466   1.611   4.110   0.948 -1.3718 -0.0212 -1.1382
   54MOL   H22120467   1.602   3.966   1.190 -0.1521 -0.7683 -1.0162
   54MOL   H22220468   1.699   4.108   1.181  0.1999  0.7551  3.2208
   54MOL   H22320469   1.592   4.211   1.326 -0.0925 -2.3030  2.0223
   54MOL   H22420470   1.499   3.973   1.416 -0.0276 -0.3574 -1.7938
   54MOL   H22520471   1.363   4.020   1.334 -1.7728 -0.1836  2.9153
   54MOL   H22620472   1.392   4.050   1.595 -1.6391  0.2320 -0.2370
   54MOL   H22720473   1.498   4.177   1.571 -0.8211 -1.7102  2.8423
   54MOL   H22820474   1.400   4.341   1.250  1.2865  0.4364  0.1613
   54MOL   H22920475   1.316   4.198   1.196 -0.3783 -0.3915 -1.7059
   54MOL   C23020476   1.294   4.227   1.525 -0.5280  0.5194  0.2570
   54MOL   C23120477   1.263   4.299   1.657  0.6763 -0.0238 -0.4675
   54MOL   C23220478   1.119   4.346   1.655 -0.6625 -0.0398  0.0845
   54MOL   C23320479   1.053   4.273   1.543 -0.4135  0.5723 -0.3243
   54MOL   C23420480   1.013   4.357   1.421 -0.3580 -0.1402 -0.2545
   54MOL   C23520481   0.878   4.312   1.360 -0.3945  0.6791  0.3630
   54MOL   C23620482   1.161   4.165   1.506  0.1687 -0.0359  0.7611
   54MOL   H23720483   1.302   4.302   1.447 -1.2674  1.1060  0.7402
   54MOL   H23820484   1.287   4.229   1.737  0.3176 -0.2441 -0.5530
   54MOL   H23920485   1.330   4.383   1.676  1.3927 -0.9572  1.2307
   54MOL   H24020486   1.122   4.453   1.636  0.6373 -0.1570 -0.4001
   54MOL   H24120487   1.072   4.318   1.749 -2.1434  0.9361 -0.3454
   54MOL   H24220488   0.966   4.223   1.585  0.5493 -1.0018 -0.1593
   54MOL   H24320489   1.090   4.360   1.344 -0.8459 -0.2048 -0.7439
   54MOL   H24420490   0.999   4.459   1.458 -3.3141 -1.1830  1.6651
   54MOL   H24520491   0.805   4.311   1.440  0.9352  1.5801  1.6063
   54MOL   H24620492   0.847   4.384   1.284  2.3921  1.8411  0.2762
   54MOL   H24720493   1.153   4.118   1.408 -1.7194 -0.1631  0.9500
   54MOL   H24820494   1.161   4.082   1.578 -1.2081 -0.6656  0.0537
   54MOL   C24920495   0.875   4.164   1.303 -0.1066 -0.0247  0.2624
   54MOL   C25020496   0.734   4.117   1.263 -0.6827 -0.1971 -0.2122
   54MOL   C25120497   0.762   4.024   1.152 -0.0200  0.1718  0.1800
   54MOL   C25220498   0.906   4.039   1.100  0.2254  0.5992 -0.3263
   54MOL   C25320499   0.985   3.906   1.114  0.0398  0.2892  0.7236
   54MOL   C25420500   0.930   3.793   1.021  0.2838 -0.2474 -0.1312
   54MOL   C25520501   0.961   4.157   1.175  0.7295  0.0664  0.1355
   54MOL   H25620502   0.909   4.092   1.377  1.0835 -0.4460 -0.6843
   54MOL   H25720503   0.687   4.073   1.351  1.1498 -0.3209  0.7373
   54MOL   H25820504   0.670   4.198   1.228  1.1005  0.7256 -1.4447
   54MOL   H25920505   0.687   4.038   1.074 -0.4008  0.3840  0.5795
   54MOL   H26020506   0.747   3.927   1.200 -1.4888  1.4223  2.3311
   54MOL   H26120507   0.920   4.064   0.994 -0.2604  2.2510 -0.0153
   54MOL   H26220508   0.984   3.865   1.215 -0.9676 -1.9979 -0.1766
   54MOL   H26320509   1.091   3.915   1.092 -0.3362 -0.2246 -1.5166
   54MOL   H26420510   0.942   3.816   0.915 -3.6844  0.7422 -0.4684
   54MOL   H26520511   0.821   3.789   1.025  0.3521 -2.3512  0.4017
   54MOL   H26620512   0.945   4.246   1.114  0.6186  1.8212  2.6442
   54MOL   H26720513   1.065   4.164   1.206 -0.5769  1.8857  4.3675
   54MOL   C26820514   0.987   3.654   1.062  0.2891  0.0395  0.4596
   54MOL   C26920515   0.962   3.534   0.962 -0.4163  0.1432 -0.1528
   54MOL   C27020516   0.907   3.413   1.037  0.7130 -0.0050 -0.1678
   54MOL   C27120517   0.936   3.446   1.186 -0.8733  0.0436  0.0590
   54MOL   C27220518   0.856   3.368   1.291 -0.0734 -0.7840  0.2406
   54MOL   C27320519   0.903   3.377   1.434  0.6493  0.3909  0.4174
   54MOL   C27420520   0.928   3.602   1.193 -0.3568  0.5017 -0.2489
   54MOL   H27520521   1.094   3.666   1.078 -0.0827 -0.7383  4.1174
   54MOL   H27620522   0.898   3.561   0.878 -0.6266  1.2491  0.3462
   54MOL   H27720523   1.061   3.509   0.925 -0.2066  0.7612 -0.0191
   54MOL   H27820524   0.801   3.420   1.012  1.0245 -0.1670 -1.5877
   54MOL   H27920525   0.954   3.317   1.014 -1.6076 -1.8395  2.4619
   54MOL   H28020526   1.042   3.424   1.196 -0.7800  0.5339  0.1467
   54MOL   H28120527   0.861   3.265   1.257  2.4157 -0.1570 -1.4654
   54MOL   H28220528   0.754   3.404   1.288  0.1588 -0.2153 -1.1980
   54MOL   H28320529   1.001   3.329   1.438 -0.4716 -2.2964 -2.6361
   54MOL   H28420530   0.911   3.483   1.461 -1.6248  1.2797 -2.1330
   54MOL   H28520531   0.824   3.629   1.213 -0.5089 -0.1039 -0.2075
   54MOL   H28620532   0.994   3.629   1.275 -0.4699  0.7084 -0.2244
   54MOL   C28720533   0.813   3.321   1.547 -0.0127 -0.5128 -0.2281
   54MOL   C28820534   0.772   3.175   1.543  0.7860  0.6147 -0.5423
   54MOL   C28920535   0.875   3.104   1.634  0.5741  0.5177 -0.2647
   54MOL   C29020536   0.903   3.199   1.745  0.3054  0.5131  1.0777
   54MOL   C29120537   1.039   3.165   1.817  0.0687  0.0457 -0.0620
   54MOL   C29220538   1.048   3.017   1.874 -0.1425 -0.2563  0.0562
   54MOL   C29320539   0.890   3.335   1.677 -0.1354  0.6634  0.3482
   54MOL   H29420540   0.720   3.376   1.562 -0.2365 -1.0043  0.2060
   54MOL   H29520541   0.666   3.169   1.568  0.1673  2.4838 -2.5465
   54MOL   H29620542   0.765   3.133   1.442 -2.5016 -0.3063 -0.0022
   54MOL   H29720543   0.966   3.084   1.579 -0.4053 -0.7084 -1.4712
   54MOL   H29820544   0.856   3.000   1.662  1.0042  0.6746  0.6364
   54MOL   H29920545   0.823   3.203   1.820 -2.0939  1.1494 -1.4259
   54MOL   H30020546   1.063   3.236   1.897 -1.0636 -0.6684  0.9224
   54MOL   H30120547   1.117   3.175   1.741  1.2676 -0.7345  1.0408
   54MOL   H30220548   1.085   2.958   1.790  1.1781  1.2744 -0.4538
   54MOL   H30320549   0.953   2.974   1.907  0.0364  0.3424  1.3618
   54MOL   H30420550   0.992   3.373   1.665 -0.1669  0.1864 -1.5388
   54MOL   H30520551   0.839   3.410   1.738 -1.9745  1.2941 -1.9034
   54MOL   C30620552   1.145   3.018   1.993 -0.1182 -0.1944  0.1246
   54MOL   C30720553   1.138   2.890   2.070 -0.0370  0.6387  0.1119
   54MOL   C30820554   1.282   2.854   2.118  0.4296  0.4182 -0.1073
   54MOL   C30920555   1.377   2.974   2.077 -0.3053 -0.6854  0.1661
   54MOL   C31020556   1.520   2.935   2.041 -0.8642  0.3821 -0.6724
   54MOL   C31120557   1.616   3.044   2.084 -0.5975 -0.0891 -0.4035
   54MOL   C31220558   1.292   3.044   1.962  0.5232 -0.5474 -0.4360
   54MOL   H31320559   1.114   3.097   2.062 -2.5159 -0.2619 -0.8011
   54MOL   H31420560   1.070   2.891   2.155 -0.0333  1.5748  0.1155
   54MOL   H31520561   1.103   2.813   2.002 -0.1435  1.4006 -0.7078
   54MOL   H31620562   1.282   2.841   2.226 -2.4206  1.1547  0.0268
   54MOL   H31720563   1.316   2.758   2.080 -0.6579  0.2127 -0.5606
   54MOL   H31820564   1.377   3.045   2.160  0.0292 -2.6311  1.8683
   54MOL   H31920565   1.544   2.837   2.083  2.4558  0.5180 -2.0957
   54MOL   H32020566   1.532   2.916   1.934  0.0677  1.6094 -0.7899
   54MOL   H32120567   1.594   3.074   2.186 -1.5922  0.1308 -0.6735
   54MOL   H32220568   1.600   3.136   2.028 -1.5222  0.3101  0.4919
   54MOL   H32320569   1.327   2.991   1.873  2.8793 -0.7499  0.5769
   54MOL   H32420570   1.314   3.151   1.955 -0.7819 -0.2749 -0.5931
   54MOL   C32520571   1.769   3.018   2.080  0.8991 -0.6857  0.0817
   54MOL   C32620572   1.822   3.008   1.931  0.9908 -0.8145  0.2241
   54MOL   C32720573   1.973   3.004   1.952 -0.1451  0.6834 -0.4538
   54MOL   C32820574   2.004   3.088   2.078 -0.3804  0.6129 -0.0285
   54MOL   C32920575   2.098   3.015   2.176 -0.6086  0.0088 -0.5444
   54MOL   C33020576   2.247   2.998   2.130 -0.0134  0.2017  0.7340
   54MOL   C33120577   1.866   3.123   2.131 -0.1510 -0.2978  0.1981
   54MOL   H33220578   1.789   2.922   2.128 -1.9335 -1.9244 -1.1243
   54MOL   H33320579   1.785   3.091   1.871  3.1453 -1.0698 -1.5129
   54MOL   H33420580   1.781   2.914   1.893 -2.4037  0.6348  0.0963
   54MOL   H33520581   1.985   2.899   1.979 -0.1802 -0.0892 -3.3675
   54MOL   H33620582   2.025   3.042   1.864  0.4890 -2.1041 -1.3255
   54MOL   H33720583   2.053   3.178   2.041  1.2872 -0.1895  0.1924
   54MOL   H33820584   2.099   3.053   2.278 -0.5283  1.2063 -0.9937
   54MOL   H33920585   2.061   2.913   2.189  0.1159 -0.3409 -1.1803
   54MOL   H34020586   2.250   2.984   2.023 -1.0272  0.7893  0.6201
   54MOL   H34120587   2.313   3.082   2.156 -1.6390  2.1532 -1.2679
   54MOL   H34220588   1.837   3.219   2.090  3.8528  0.9935  0.2243
   54MOL   H34320589   1.875   3.141   2.238  0.5827 -1.3546  0.3262
   54MOL   C34420590   2.315   2.877   2.197  0.3330  0.6948  0.2277
   54MOL   C34520591   2.468   2.907   2.210  0.6695  0.2194  0.0706
   54MOL   C34620592   2.539   2.777   2.218 -0.5208  0.1013  0.0054
   54MOL   C34720593   2.451   2.686   2.123 -0.3774  0.1996 -0.5637
   54MOL   C34820594   2.472   2.534   2.151  0.2268 -0.0367  0.0178
   54MOL   C34920595   2.377   2.454   2.063 -0.3502  0.5962  0.0673
   54MOL   C35020596   2.305   2.744   2.135  0.3600  0.7687 -0.1739
   54MOL   H35120597   2.286   2.878   2.302  2.5479 -1.2702  0.8910
   54MOL   H35220598   2.502   2.945   2.306  1.0812 -0.3603  0.1575
   54MOL   H35320599   2.520   2.960   2.130  3.1182 -1.7625  0.2744
   54MOL   H35420600   2.638   2.792   2.176  0.1270 -1.4742  0.9422
   54MOL   H35520601   2.542   2.737   2.319 -0.1992  1.4946  0.5595
   54MOL   H35620602   2.477   2.703   2.018  1.7401  1.4173  0.1345
   54MOL   H35720603   2.576   2.512   2.131 -0.2751  0.1834 -3.0366
   54MOL   H35820604   2.443   2.520   2.256  0.4865  2.8576  0.5263
   54MOL   H35920605   2.403   2.484   1.962 -0.4041  1.4714  0.3104
   54MOL   H36020606   2.279   2.499   2.056 -0.5582  0.3071  0.9708
   54MOL   H36120607   2.267   2.750   2.033 -2.9328  1.0692  0.9985
   54MOL   H36220608   2.243   2.684   2.201  0.8441 -0.8805 -1.1995
   54MOL   C36320609   2.371   2.304   2.076 -0.3422  0.2048  0.7866
   54MOL   C36420610   2.333   2.234   1.946 -0.0079 -0.2522 -0.3875
   54MOL   C36520611   2.260   2.105   1.991 -0.0706  0.4023  0.0844
   54MOL   C36620612   2.273   2.096   2.145  0.3728 -0.1321 -0.2979
   54MOL   C36720613   2.152   2.031   2.213 -0.3577 -0.3424 -0.1606
   54MOL   C36820614   2.151   1.880   2.214 -0.4708  0.0980  0.2413
   54MOL   C36920615   2.280   2.243   2.185 -0.1242 -0.7644  0.1080
   54MOL   H37020616   2.476   2.274   2.087 -0.4172 -0.2355  0.3424
   54MOL   H37120617   2.277   2.293   1.873 -0.3954 -0.3953 -0.2059
   54MOL   H37220618   2.423   2.224   1.885 -0.0228  2.2071 -0.8888
   54MOL   H37320619   2.154   2.110   1.966 -0.0388  0.0618 -0.1214
   54MOL   H37420620   2.294   2.015   1.940  1.2281 -0.0266  1.6603
   54MOL   H37520621   2.366   2.045   2.168  0.4460 -0.8254 -2.0203
   54MOL   H37620622   2.154   2.061   2.318 -0.3534 -0.1412 -0.2185
   54MOL   H37720623   2.056   2.073   2.185  0.0020  1.3073  1.0193
   54MOL   H37820624   2.212   1.848   2.299  1.0202  1.7123 -0.1875
   54MOL   H37920625   2.193   1.835   2.125  3.2418  1.2239  1.3384
   54MOL   H38020626   2.178   2.281   2.185 -0.0993 -0.6986 -0.3245
   54MOL   H38120627   2.332   2.250   2.281 -0.2152  1.1484  0.0334
   54MOL   H38220628   2.051   1.836   2.220  0.3269 -2.0165 -1.6718
   55MOL     C120629   2.927   0.526   2.283  0.1205 -0.0405 -0.2762
   55MOL     C220630   2.939   0.526   2.136 -0.3134  0.0876  0.3324
   55MOL     C320631   3.083   0.477   2.104  0.7366  0.4148 -0.3272
   55MOL     C420632   3.153   0.469   2.246 -0.0836  0.3273  0.2885
   55MOL     C520633   3.301   0.492   2.230  0.2919  0.5879  0.3829
   55MOL     C620634   3.361   0.486   2.374 -0.0220  0.3373  0.6063
   55MOL     C720635   3.068   0.564   2.334 -0.0382 -0.2073  0.5658
   55MOL     H820636   2.870   0.609   2.326  0.5411  0.0617  0.0886
   55MOL     H920637   2.929   0.630   2.104 -3.2552  0.2471  1.5939
   55MOL    H1020638   2.859   0.468   2.092 -1.0462 -0.5801  2.4572
   55MOL    H1120639   3.078   0.375   2.067  0.9607 -0.8619  2.9490
   55MOL    H1220640   3.128   0.534   2.023  1.2910  1.6338  0.7974
   55MOL    H1320641   3.136   0.370   2.287  1.0753  0.8585  2.0850
   55MOL    H1420642   3.335   0.415   2.160  0.0917  0.6237  0.2484
   55MOL    H1520643   3.308   0.588   2.179 -1.5062  0.0098 -0.9623
   55MOL    H1620644   3.315   0.573   2.421 -1.4694 -0.5862  0.9271
   55MOL    H1720645   3.319   0.399   2.425 -0.3244 -0.2700 -0.6689
   55MOL    H1820646   3.082   0.546   2.441  2.2029  0.8359  0.4719
   55MOL    H1920647   3.088   0.668   2.309 -2.6352  0.0695 -0.5106
   55MOL    H2020648   2.898   0.426   2.314  2.6200 -0.7605 -0.1704
   55MOL    C2120649   3.511   0.493   2.369  0.4117  0.0721  0.0558
   55MOL    C2220650   3.576   0.541   2.496  0.0674 -0.5749  0.2494
   55MOL    C2320651   3.715   0.483   2.496  0.5453  0.3218 -0.2984
   55MOL    C2420652   3.696   0.347   2.434 -0.7809 -0.4560 -0.5839
   55MOL    C2520653   3.641   0.242   2.531 -0.6948 -0.1830  0.1212
   55MOL    C2620654   3.701   0.228   2.674 -0.1964 -0.3024  0.3848
   55MOL    C2720655   3.596   0.375   2.318 -0.0762  0.2532 -0.0319
   55MOL    H2820656   3.531   0.571   2.296 -0.6258  0.4815  0.2020
   55MOL    H2920657   3.571   0.648   2.516 -1.3573 -0.7407  0.8086
   55MOL    H3020658   3.521   0.497   2.579 -0.2422 -2.5717 -0.9663
   55MOL    H3120659   3.782   0.531   2.424  0.7765 -2.0943 -1.7658
   55MOL    H3220660   3.756   0.471   2.596  0.1325 -0.7176 -0.2467
   55MOL    H3320661   3.793   0.310   2.401  0.8512  3.1590 -0.0159
   55MOL    H3420662   3.667   0.148   2.483 -0.3331  0.2843 -0.5963
   55MOL    H3520663   3.533   0.255   2.534 -0.7791 -1.0639  2.0683
   55MOL    H3620664   3.662   0.307   2.738  0.6222  0.8240 -0.4910
   55MOL    H3720665   3.810   0.238   2.676 -0.4482  2.7848  2.5710
   55MOL    H3820666   3.662   0.405   2.236  1.6143 -0.6155  0.9839
   55MOL    H3920667   3.531   0.291   2.291  0.4779  0.0205 -0.6662
   55MOL    C4020668   3.687   0.102   2.749  0.4206  0.3639  0.8496
   55MOL    C4120669   3.774   0.105   2.877 -0.0141 -0.2649 -0.0074
   55MOL    C4220670   3.706   7.642   2.968  0.2571 -0.1358 -0.4942
   55MOL    C4320671   3.558   0.017   2.941 -0.1559 -0.0612 -0.1635
   55MOL    C4420672   3.469   7.545   2.978  0.1247 -0.6020  0.5450
   55MOL    C4520673   3.322   7.584   2.970  0.0007  0.1728  0.7159
   55MOL    C4620674   3.549   0.074   2.801 -0.2213 -0.0450  0.6108
   55MOL    H4720675   3.728   0.022   2.687 -0.7014 -0.6603  1.4072
   55MOL    H4820676   3.774   0.198   2.934 -0.6985  0.4258 -1.1098
   55MOL    H4920677   3.879   0.097   2.851 -0.7224 -1.2558 -2.7549
   55MOL    H5020678   3.743   7.550   2.921  0.1398 -0.3414 -0.1858
   55MOL    H5120679   3.748   7.643   3.069 -1.4216  0.1141  0.2118
   55MOL    H5220680   3.531   0.098   3.010 -2.0418 -0.2753 -0.6080
   55MOL    H5320681   3.493   7.466   2.907  0.5929 -0.8839  1.0140
   55MOL    H5420682   3.502   7.506   3.074  0.1367 -0.4559  0.6005
   55MOL    H5520683   3.299   7.628   2.873 -1.3929 -1.7329  0.1569
   55MOL    H5620684   3.321   0.028   3.030  2.9860 -0.2222  1.4379
   55MOL    H5720685   3.498   0.007   2.732 -1.1602  1.2468  0.0144
   55MOL    H5820686   3.497   0.170   2.808 -1.3361 -0.5764 -0.2452
   55MOL    C5920687   3.222   7.480   3.025 -0.6955 -0.1496  0.3391
   55MOL    C6020688   3.226   7.449   3.170 -0.4270  0.4109 -0.4919
   55MOL    C6120689   3.137   7.548   3.232  0.2978  0.2642  0.2837
   55MOL    C6220690   3.053   7.616   3.123 -0.0581 -0.0654  0.1747
   55MOL    C6320691   2.902   7.630   3.172  0.7282  0.7051  0.2043
   55MOL    C6420692   2.803   7.647   3.052 -0.7651  0.1319  0.3005
   55MOL    C6520693   3.083   7.540   2.988 -0.9433  0.2433 -0.1185
   55MOL    H6620694   3.234   7.384   2.976 -0.1270  0.2557 -0.3202
   55MOL    H6720695   3.173   7.354   3.179 -0.9208  0.7216 -0.1150
   55MOL    H6820696   3.329   7.450   3.205 -0.9816  2.4862  1.1626
   55MOL    H6920697   3.073   7.502   3.307  1.4347 -2.5569 -0.4345
   55MOL    H7020698   3.193   7.631   3.275  1.3055  0.1469 -0.7588
   55MOL    H7120699   3.079   0.072   3.103 -0.7156 -0.4207 -2.7051
   55MOL    H7220700   2.892   0.072   3.234 -0.2256  1.6144 -1.2116
   55MOL    H7320701   2.876   7.540   3.228  1.6238  0.5640  0.3962
   55MOL    H7420702   2.824   0.096   3.005 -3.8719  0.4641 -0.5080
   55MOL    H7520703   2.815   7.577   2.970 -0.7575  0.7981 -0.2667
   55MOL    H7620704   3.009   7.460   2.984  0.7885 -1.3305 -1.9427
   55MOL    H7720705   3.089   7.587   2.890 -3.1061 -0.9136 -0.8332
   55MOL    C7820706   2.658   7.646   3.084 -0.1207 -0.0324 -0.2385
   55MOL    C7920707   2.617   0.131   3.143  0.4200 -0.1171  0.2481
   55MOL    C8020708   2.469   0.152   3.101 -0.5982 -0.1938 -0.2262
   55MOL    C8120709   2.459   0.084   2.967  1.1821 -0.1921 -0.5072
   55MOL    C8220710   2.470   0.179   2.853  0.6244 -0.4380 -0.2601
   55MOL    C8320711   2.441   0.121   2.712 -0.6499 -0.1859 -0.0360
   55MOL    C8420712   2.567   7.616   2.965 -0.7317  0.8158  0.4125
   55MOL    H8520713   2.639   7.570   3.160  0.2294  1.5500  1.4647
   55MOL    H8620714   2.635   0.138   3.250  0.1630  0.1146  0.2802
   55MOL    H8720715   2.671   0.213   3.094  0.2366  0.8105  1.5679
   55MOL    H8820716   2.403   0.114   3.179 -2.1011  0.6256 -1.0744
   55MOL    H8920717   2.452   0.259   3.085  0.6290 -0.1353 -1.2268
   55MOL    H9020718   2.360   0.037   2.967  2.1039 -2.1933 -0.1996
   55MOL    H9120719   2.567   0.226   2.839  1.3019 -1.7123  0.0785
   55MOL    H9220720   2.392   0.254   2.867  0.3126 -0.8257  0.1077
   55MOL    H9320721   2.366   0.043   2.719 -1.9210  0.8934 -1.4490
   55MOL    H9420722   2.541   0.089   2.680  0.4149  1.2403  1.7699
   55MOL    H9520723   2.632   7.632   2.879  1.0288  1.5878  1.8499
   55MOL    H9620724   2.533   7.513   2.952  0.3160  0.5525 -0.3515
   55MOL    C9720725   2.387   0.226   2.618 -0.3531  0.0638  0.2191
   55MOL    C9820726   2.364   0.172   2.478 -0.0617 -1.0316  0.3064
   55MOL    C9920727   2.362   0.296   2.385  0.3543 -0.3877 -0.1094
   55MOL   C10020728   2.415   0.415   2.464  0.4170  0.3653  0.2253
   55MOL   C10120729   2.510   0.513   2.393  0.2894 -0.6045  0.5020
   55MOL   C10220730   2.456   0.578   2.265 -0.8649 -0.4616  0.2539
   55MOL   C10320731   2.474   0.349   2.587 -0.2792 -0.2397 -0.0300
   55MOL   H10420732   2.297   0.264   2.667 -0.9146 -0.0597 -0.6958
   55MOL   H10520733   2.444   0.103   2.453  1.0942  0.2512  0.4006
   55MOL   H10620734   2.270   0.117   2.477 -1.2086  0.9136  0.3459
   55MOL   H10720735   2.413   0.283   2.289  0.8541  0.2954  0.0639
   55MOL   H10820736   2.263   0.331   2.356  0.8661  1.2503  0.0919
   55MOL   H10920737   2.319   0.461   2.489 -0.2724 -1.5752  1.2329
   55MOL   H11020738   2.542   0.591   2.461 -0.4415 -0.4803  0.7154
   55MOL   H11120739   2.597   0.453   2.365 -1.9942 -3.3825 -1.0109
   55MOL   H11220740   2.429   0.504   2.189  3.7651 -0.6490 -1.3761
   55MOL   H11320741   2.370   0.644   2.277 -0.6497 -0.0625 -0.3828
   55MOL   H11420742   2.571   0.308   2.559 -1.0022 -1.8326 -0.2780
   55MOL   H11520743   2.478   0.412   2.676 -1.4210 -2.1512  1.4282
   55MOL   C11620744   2.556   0.669   2.198 -0.1292  0.3425  0.0266
   55MOL   C11720745   2.494   0.732   2.071 -0.1367  0.4575  0.4422
   55MOL   C11820746   2.477   0.876   2.100  0.1564 -0.2882 -0.3669
   55MOL   C11920747   2.588   0.905   2.192 -0.2310  0.2065 -0.0969
   55MOL   C12020748   2.588   1.040   2.258  0.0735  0.3915 -0.6070
   55MOL   C12120749   2.597   1.163   2.173 -0.1010  0.6036  0.0993
   55MOL   C12220750   2.596   0.783   2.286 -0.5410  0.3375 -0.1601
   55MOL   H12320751   2.637   0.605   2.164 -0.6859 -1.3073  1.7665
   55MOL   H12420752   2.396   0.688   2.051  0.7112 -0.0453 -2.8219
   55MOL   H12520753   2.561   0.722   1.987  0.0360 -1.0867  0.7586
   55MOL   H12620754   2.377   0.890   2.143  0.2955  0.0117 -0.1396
   55MOL   H12720755   2.487   0.938   2.011  0.9518  0.4354  0.2220
   55MOL   H12820756   2.681   0.907   2.134  0.2753 -2.5900  0.5645
   55MOL   H12920757   2.668   1.042   2.332 -0.5846 -1.3477  0.1978
   55MOL   H13020758   2.497   1.039   2.318 -1.3339  0.6423 -2.7130
   55MOL   H13120759   2.519   1.159   2.097  0.2354  1.2732 -0.2927
   55MOL   H13220760   2.692   1.162   2.120  0.5115  1.3655  1.1595
   55MOL   H13320761   2.693   0.764   2.333 -1.5962  0.2533  2.0337
   55MOL   H13420762   2.513   0.794   2.355 -1.4154  0.1780 -1.1745
   55MOL   C13520763   2.600   1.301   2.249 -0.5740  0.8856 -0.0525
   55MOL   C13620764   2.467   1.335   2.316 -0.1223  0.1060  0.0911
   55MOL   C13720765   2.490   1.381   2.460  0.1822 -0.0046  0.6665
   55MOL   C13820766   2.630   1.314   2.492 -0.7251  0.1760 -0.5777
   55MOL   C13920767   2.703   1.383   2.601  0.0155  0.0433  0.0700
   55MOL   C14020768   2.810   1.291   2.663 -0.1247 -0.5458  0.0387
   55MOL   C14120769   2.706   1.307   2.356 -0.0490 -0.3634  0.5409
   55MOL   H14220770   2.614   1.381   2.176 -0.1498  0.9953  0.1519
   55MOL   H14320771   2.409   1.409   2.260  0.7965 -0.4653 -1.6366
   55MOL   H14420772   2.400   1.250   2.308  0.4874 -0.2428 -1.4699
   55MOL   H14520773   2.510   1.487   2.469  0.4233  0.0584 -0.5995
   55MOL   H14620774   2.416   1.350   2.534  1.2886 -1.6309  1.1347
   55MOL   H14720775   2.616   1.212   2.528  0.2001 -0.2023 -1.2510
   55MOL   H14820776   2.630   1.411   2.677  0.0706 -0.3283  0.2605
   55MOL   H14920777   2.745   1.482   2.583 -0.8926  0.5462  0.6628
   55MOL   H15020778   2.758   1.204   2.702 -0.2109 -0.3513  0.3564
   55MOL   H15120779   2.882   1.259   2.587 -1.3608 -1.3279 -0.8290
   55MOL   H15220780   2.768   1.218   2.360  0.4439 -0.0433  0.1200
   55MOL   H15320781   2.770   1.395   2.351  0.5636 -0.7961  0.7386
   55MOL   C15420782   2.893   1.362   2.770  0.3955 -0.9452  0.7176
   55MOL   C15520783   3.021   1.435   2.716 -0.1265 -0.4661 -0.3963
   55MOL   C15620784   3.133   1.406   2.817  0.2893 -0.4662  0.4893
   55MOL   C15720785   3.064   1.344   2.939 -0.2324 -0.2816 -0.6428
   55MOL   C15820786   3.159   1.270   3.041  0.9477 -0.5657  0.4135
   55MOL   C15920787   3.086   1.203   3.164 -0.1716 -0.1173 -0.2744
   55MOL   C16020788   2.942   1.278   2.879  1.5304 -0.7338  0.6296
   55MOL   H16120789   2.828   1.433   2.820 -1.5115 -2.4802  0.4626
   55MOL   H16220790   3.040   1.413   2.611  0.2158 -2.9465  0.1618
   55MOL   H16320791   3.006   1.543   2.710  0.1987 -0.3771  0.4224
   55MOL   H16420792   3.202   1.334   2.773 -0.8893 -1.5171  0.3019
   55MOL   H16520793   3.200   1.487   2.844 -0.8272  0.9371 -0.8336
   55MOL   H16620794   3.025   1.431   2.993 -0.3087 -0.2847 -0.6935
   55MOL   H16720795   3.236   1.338   3.077 -1.7163  3.0147 -0.3286
   55MOL   H16820796   3.222   1.198   2.989  0.2928 -1.3180  0.6621
   55MOL   H16920797   3.061   1.280   3.237 -0.5110 -0.2296 -0.2727
   55MOL   H17020798   2.990   1.157   3.140  1.7428 -2.7282 -3.3423
   55MOL   H17120799   2.867   1.249   2.953  0.3719  2.5159  0.8012
   55MOL   H17220800   2.981   1.185   2.837  1.9334 -0.1246 -0.3596
   55MOL   C17320801   3.181   1.095   3.235  0.1334 -0.2962  0.8621
   55MOL   C17420802   3.105   1.028   3.350  0.3519  0.2785 -0.6028
   55MOL   C17520803   3.138   0.878   3.344 -0.0457 -1.0607 -0.2502
   55MOL   C17620804   3.219   0.857   3.218 -0.2259  0.0416  0.5107
   55MOL   C17720805   3.180   0.715   3.153  0.1136  0.7494 -0.5240
   55MOL   C17820806   3.267   0.669   3.037  0.1626  0.1619 -0.2025
   55MOL   C17920807   3.212   0.983   3.132 -0.4155 -0.1039  0.1387
   55MOL   H18020808   3.275   1.135   3.273  0.2309  1.2165 -0.8764
   55MOL   H18120809   2.998   1.046   3.347  0.5629  1.4788 -0.9549
   55MOL   H18220810   3.132   1.069   3.447  1.4266 -1.7248 -0.0320
   55MOL   H18320811   3.176   0.834   3.437  1.7212 -0.0296 -0.4705
   55MOL   H18420812   3.040   0.831   3.335 -1.2776  1.8164 -2.4488
   55MOL   H18520813   3.321   0.841   3.252  0.0000 -1.6900 -0.9042
   55MOL   H18620814   3.079   0.715   3.114 -0.1212  0.6680  0.0855
   55MOL   H18720815   3.188   0.640   3.231 -1.2965  0.1571 -0.9376
   55MOL   H18820816   3.366   0.638   3.071 -0.5058 -2.1494 -0.2617
   55MOL   H18920817   3.278   0.744   2.959  0.3254 -1.5406 -1.8418
   55MOL   H19020818   3.134   0.977   3.056 -1.6479  0.8684  1.2901
   55MOL   H19120819   3.309   1.003   3.087 -0.1188  3.1161  2.0482
   55MOL   C19220820   3.209   0.541   2.975  0.6479  0.2423 -0.1154
   55MOL   C19320821   3.204   0.423   3.063  0.2839 -0.2134  0.6195
   55MOL   C19420822   3.213   0.303   2.965 -0.2178 -0.5677 -0.0122
   55MOL   C19520823   3.236   0.354   2.824  0.0945 -0.0321  0.0439
   55MOL   C19620824   3.107   0.338   2.740  0.7609  0.5140 -0.0297
   55MOL   C19720825   3.101   0.203   2.664  0.7087  0.9263 -0.0989
   55MOL   C19820826   3.280   0.495   2.841  0.0678 -0.3144 -0.6057
   55MOL   H19920827   3.106   0.565   2.951 -0.0057 -1.6237  0.7099
   55MOL   H20020828   3.277   0.421   3.143  1.6791 -0.5125 -0.6499
   55MOL   H20120829   3.100   0.424   3.097 -0.1586 -0.1767 -0.6991
   55MOL   H20220830   3.125   0.239   2.971 -1.3500  1.0455  1.1820
   55MOL   H20320831   3.308   0.256   2.989 -0.6550 -0.8443  1.2308
   55MOL   H20420832   3.305   0.288   2.772 -2.0968 -1.4813 -1.0854
   55MOL   H20520833   3.108   0.421   2.670 -2.6085  1.0993  0.5122
   55MOL   H20620834   3.020   0.358   2.802 -1.4388 -1.2513 -2.4489
   55MOL   H20720835   3.144   0.128   2.731  2.1550 -0.0901 -2.1049
   55MOL   H20820836   3.155   0.203   2.570 -1.7674  0.1387 -1.5686
   55MOL   H20920837   3.253   0.570   2.767 -1.7276 -0.4103 -0.0968
   55MOL   H21020838   3.388   0.489   2.847 -0.0130 -2.1999 -0.5898
   55MOL   C21120839   2.964   0.135   2.637  0.6489 -0.6147  0.1397
   55MOL   C21220840   2.990   7.628   2.611 -0.2561 -0.0881  0.2097
   55MOL   C21320841   2.916   7.590   2.488  0.1552  0.2165  1.0471
   55MOL   C21420842   2.820   0.057   2.451  0.2960 -0.0527  1.2814
   55MOL   C21520843   2.774   0.074   2.305  0.0824  0.3972  0.1040
   55MOL   C21620844   2.681   7.610   2.254  0.1259 -0.0441 -0.0024
   55MOL   C21720845   2.898   0.182   2.507  0.5513  0.5337  0.7436
   55MOL   H21820846   2.896   0.141   2.722  0.0408 -1.1403 -0.3032
   55MOL   H21920847   3.094   7.602   2.592 -0.0149 -0.9228  2.5831
   55MOL   H22020848   2.962   7.584   2.706  1.0934  1.7510  1.4835
   55MOL   H22120849   2.994   7.579   2.413  0.4636  1.9561  1.1044
   55MOL   H22220850   2.856   7.499   2.491 -1.2481  0.9769 -2.2913
   55MOL   H22320851   2.730   0.050   2.512 -1.3180 -3.1148 -1.3249
   55MOL   H22420852   2.868   0.080   2.249 -0.0031 -0.3490 -0.1184
   55MOL   H22520853   2.734   0.174   2.291 -0.8704 -0.1904 -1.4742
   55MOL   H22620854   2.722   7.509   2.265  0.2918 -0.1109 -1.1743
   55MOL   H22720855   2.588   7.618   2.310  1.0608  0.6278  1.4900
   55MOL   H22820856   2.842   0.275   2.510  0.3417  0.3838  1.4424
   55MOL   H22920857   2.974   0.203   2.431  0.6673 -0.1477  0.6632
   55MOL   C23020858   2.648   7.620   2.102 -0.0265 -0.2498 -0.6594
   55MOL   C23120859   2.539   7.520   2.059 -0.3213 -0.2583 -1.0646
   55MOL   C23220860   2.575   7.482   1.916 -0.3007 -0.5535  0.6102
   55MOL   C23320861   2.729   7.500   1.902  0.2505  0.2916 -0.3303
   55MOL   C23420862   2.776   7.551   1.755  0.6797 -0.4438  0.1104
   55MOL   C23520863   2.758   7.443   1.652 -0.1801 -0.1597 -0.6538
   55MOL   C23620864   2.774   7.587   2.017 -0.0658 -0.6513  0.3412
   55MOL   H23720865   2.610   0.073   2.080  0.7208  0.0072 -0.7924
   55MOL   H23820866   2.538   7.437   2.130 -0.4655 -0.3585 -1.1833
   55MOL   H23920867   2.437   7.559   2.068 -0.0307  0.0784  0.9383
   55MOL   H24020868   2.523   7.547   1.847  2.4964  0.4025 -0.6847
   55MOL   H24120869   2.552   7.377   1.897 -1.5487 -0.2125  0.1896
   55MOL   H24220870   2.774   7.402   1.920  1.5638  0.9277 -0.0995
   55MOL   H24320871   2.877   7.590   1.765  0.5568 -0.0890 -0.0323
   55MOL   H24420872   2.715   7.633   1.718 -0.2628 -0.3446  1.8410
   55MOL   H24520873   2.831   7.367   1.677 -1.2016 -0.8588  0.2882
   55MOL   H24620874   2.666   7.385   1.658  0.5924 -1.1737  2.0759
   55MOL   H24720875   2.825   0.028   1.978  1.0611 -0.7399  1.5638
   55MOL   H24820876   2.841   7.533   2.085 -0.7396 -0.2491  1.3311
   55MOL   C24920877   2.770   7.498   1.505 -0.3665 -0.0824 -0.5075
   55MOL   C25020878   2.787   7.382   1.408  0.1239 -0.0750 -0.2201
   55MOL   C25120879   2.673   7.389   1.305 -0.7578  0.3589  0.4022
   55MOL   C25220880   2.569   7.479   1.367 -0.1116 -0.4801 -0.2543
   55MOL   C25320881   2.469   7.554   1.271  0.5641  0.1854  0.0589
   55MOL   C25420882   2.399   7.455   1.178  0.3564 -0.6770 -0.4071
   55MOL   C25520883   2.646   7.578   1.460  0.3063 -0.0876 -0.3061
   55MOL   H25620884   2.868   7.546   1.502 -0.1362 -0.3702  1.6181
   55MOL   H25720885   2.878   7.381   1.347  0.0756  1.2519 -0.3493
   55MOL   H25820886   2.776   7.287   1.459  1.9754 -0.4432 -0.4509
   55MOL   H25920887   2.639   7.290   1.274 -1.0881  0.8380 -0.8271
   55MOL   H26020888   2.724   7.433   1.219  0.4583 -0.5644  0.6458
   55MOL   H26120889   2.503   7.411   1.422 -0.1281 -0.1538  0.1351
   55MOL   H26220890   2.533   7.612   1.204  1.7572 -0.5778  0.5128
   55MOL   H26320891   2.398   7.622   1.318 -0.5007 -0.6090 -0.3821
   55MOL   H26420892   2.334   7.395   1.241 -1.3935  0.4930 -1.0283
   55MOL   H26520893   2.457   7.378   1.128  1.0337 -0.3463 -0.1373
   55MOL   H26620894   2.584   7.600   1.546 -0.1316  1.4946 -1.0232
   55MOL   H26720895   2.679   0.019   1.405 -1.7162  2.2659  2.2017
   55MOL   C26820896   2.318   7.511   1.058 -0.8403 -0.2648  0.5442
   55MOL   C26920897   2.263   7.402   0.962 -0.7345 -0.1598  0.1427
   55MOL   C27020898   2.329   7.432   0.822  0.7566  0.0181 -0.4683
   55MOL   C27120899   2.354   7.584   0.833  0.1606  0.1555  0.6483
   55MOL   C27220900   2.454   7.625   0.719  0.1424  0.1024 -0.3857
   55MOL   C27320901   2.425   0.109   0.653 -0.1877 -0.0105 -0.2217
   55MOL   C27420902   2.403   7.607   0.970  0.0877  0.4163 -0.1725
   55MOL   H27520903   2.233   7.563   1.102 -1.1458  0.1961 -0.5715
   55MOL   H27620904   2.289   7.301   0.992 -0.9651 -0.0055  0.8741
   55MOL   H27720905   2.156   7.407   0.943 -0.6502  0.9908 -0.0688
   55MOL   H27820906   2.425   7.380   0.813 -0.8454 -2.9795 -0.9328
   55MOL   H27920907   2.272   7.406   0.733  0.2051 -1.5274  0.3165
   55MOL   H28020908   2.262   7.636   0.809  0.4424  1.2570  1.9706
   55MOL   H28120909   2.451   7.548   0.642  0.2163 -0.1854 -0.1026
   55MOL   H28220910   2.558   7.623   0.752  0.0966  0.0902 -0.2400
   55MOL   H28320911   2.504   0.110   0.577 -0.3227  0.2138 -0.3624
   55MOL   H28420912   2.330   0.099   0.601 -0.0954 -0.4864 -0.2991
   55MOL   H28520913   2.503   7.566   0.981 -0.1393 -0.2503 -0.5372
   55MOL   H28620914   2.396   0.067   0.988 -3.2907  0.1751  0.2445
   55MOL   C28720915   2.431   0.234   0.735  0.5718 -0.2975  0.2647
   55MOL   C28820916   2.482   0.359   0.655  0.3659 -0.2358  1.4554
   55MOL   C28920917   2.376   0.466   0.675  0.5116  0.2576  0.0777
   55MOL   C29020918   2.314   0.435   0.812 -0.3001 -0.2508  0.5689
   55MOL   C29120919   2.180   0.514   0.838 -0.1342 -0.3244  0.0513
   55MOL   C29220920   2.137   0.496   0.983 -0.2164 -0.4454 -0.3246
   55MOL   C29320921   2.301   0.277   0.805  0.3004  0.0185  0.8174
   55MOL   H29420922   2.501   0.209   0.815 -1.2331 -1.0576  1.6377
   55MOL   H29520923   2.578   0.396   0.693 -0.0542  0.5015  1.8034
   55MOL   H29620924   2.491   0.347   0.547 -2.2169  1.2423  1.0471
   55MOL   H29720925   2.299   0.457   0.598  1.7011  0.2747 -1.1402
   55MOL   H29820926   2.398   0.572   0.663  1.5684 -0.0162 -0.4084
   55MOL   H29920927   2.395   0.465   0.877  0.2927 -0.9554  0.1640
   55MOL   H30020928   2.100   0.479   0.773  0.9343 -2.1718 -0.3181
   55MOL   H30120929   2.204   0.617   0.815  2.0418 -0.8088  0.0315
   55MOL   H30220930   2.220   0.528   1.045 -0.1355  2.7934 -1.9855
   55MOL   H30320931   2.115   0.393   1.008 -0.4980 -0.4699 -0.6652
   55MOL   H30420932   2.225   0.244   0.735 -0.4615  1.5232  0.9274
   55MOL   H30520933   2.272   0.227   0.898  0.7760 -2.4653 -0.3322
   55MOL   C30620934   2.019   0.586   1.017 -0.0966  0.1863 -0.1335
   55MOL   C30720935   1.895   0.531   0.952  0.2032  0.4261 -0.4297
   55MOL   C30820936   1.781   0.581   1.030 -0.3486  0.1613  0.0810
   55MOL   C30920937   1.830   0.645   1.159 -0.8296 -0.0416 -0.0939
   55MOL   C31020938   1.744   0.603   1.279 -0.7058  0.3139  0.8576
   55MOL   C31120939   1.593   0.635   1.272  0.3768  0.2969  0.4320
   55MOL   C31220940   1.983   0.600   1.171 -0.2441  0.0131 -0.1764
   55MOL   H31320941   2.041   0.679   0.965  2.4789 -0.2793  0.0823
   55MOL   H31420942   1.874   0.553   0.848  1.5895 -1.4825 -1.1319
   55MOL   H31520943   1.901   0.422   0.950  3.1552  0.5535 -0.7991
   55MOL   H31620944   1.719   0.654   0.978  1.2601  1.1399 -0.5226
   55MOL   H31720945   1.713   0.497   1.040  0.0055 -0.3870 -1.9512
   55MOL   H31820946   1.827   0.753   1.160 -1.3098 -0.0626  0.3659
   55MOL   H31920947   1.756   0.496   1.293 -1.0316  0.0826 -0.5477
   55MOL   H32020948   1.793   0.649   1.365  3.0338 -1.7068 -0.1075
   55MOL   H32120949   1.555   0.577   1.188  0.6889  1.2457 -0.3658
   55MOL   H32220950   1.586   0.741   1.251  0.5796 -0.0989 -1.7576
   55MOL   H32320951   1.986   0.504   1.222  1.1640  0.8280  1.3335
   55MOL   H32420952   2.047   0.667   1.228 -0.7380 -0.4059  0.8698
   55MOL   C32520953   1.525   0.591   1.405  0.3031  0.0530  0.2352
   55MOL   C32620954   1.568   0.678   1.522  0.6380 -0.0215 -0.4969
   55MOL   C32720955   1.431   0.698   1.591 -0.4751 -0.4074  0.0630
   55MOL   C32820956   1.327   0.708   1.480 -0.2663 -0.3134  0.2251
   55MOL   C32920957   1.177   0.711   1.529  0.1244  0.2268 -0.0416
   55MOL   C33020958   1.096   0.778   1.415 -0.3442 -0.4297 -0.2268
   55MOL   C33120959   1.370   0.599   1.381  0.0966 -0.3329  0.5062
   55MOL   H33220960   1.542   0.487   1.432 -1.4931 -0.1742  0.5553
   55MOL   H33320961   1.612   0.777   1.510 -0.2797  0.4103 -0.2971
   55MOL   H33420962   1.648   0.630   1.578 -1.3726 -1.0213  1.5806
   55MOL   H33520963   1.402   0.610   1.649 -1.6721 -1.2035 -1.7113
   55MOL   H33620964   1.441   0.790   1.648  1.6925  0.3524 -1.5064
   55MOL   H33720965   1.353   0.800   1.428  0.0779 -0.2798  0.4605
   55MOL   H33820966   1.152   0.606   1.543 -1.9384  0.5728 -0.8960
   55MOL   H33920967   1.167   0.765   1.623  0.7361 -0.1859  0.2626
   55MOL   H34020968   1.120   0.884   1.407 -0.1811 -0.2847  1.9106
   55MOL   H34120969   1.138   0.728   1.328 -0.6921 -1.6584  0.3146
   55MOL   H34220970   1.334   0.627   1.282 -2.1423 -1.2960  1.0064
   55MOL   H34320971   1.322   0.503   1.402  0.9576 -0.3946  2.3333
   55MOL   C34420972   0.942   0.758   1.442  0.2459 -0.3779 -0.0409
   55MOL   C34520973   0.848   0.849   1.364  0.0406 -0.2357  0.3391
   55MOL   C34620974   0.722   0.845   1.439  0.5250 -0.1590  0.8351
   55MOL   C34720975   0.758   0.824   1.588  0.3419 -0.0635 -0.3184
   55MOL   C34820976   0.664   0.714   1.643  0.1655 -0.4001 -0.2158
   55MOL   C34920977   0.516   0.767   1.649  1.0409  0.1725  0.2459
   55MOL   C35020978   0.905   0.785   1.590 -0.4205  0.4922 -0.0984
   55MOL   H35120979   0.915   0.657   1.415  1.9101 -0.7758 -0.2213
   55MOL   H35220980   0.838   0.806   1.265  0.8692 -1.6052  0.8388
   55MOL   H35320981   0.892   0.948   1.350 -4.0917  1.0813 -4.5082
   55MOL   H35420982   0.661   0.932   1.414  1.4006  0.5743  1.1905
   55MOL   H35520983   0.668   0.765   1.390 -0.3264  1.0597 -0.2524
   55MOL   H35620984   0.736   0.918   1.639 -0.7878 -1.0617  1.0735
   55MOL   H35720985   0.672   0.613   1.602  1.1153 -0.1462 -0.6969
   55MOL   H35820986   0.692   0.698   1.747 -0.8351  0.6682  0.2215
   55MOL   H35920987   0.483   0.799   1.550  2.2450 -0.4411 -0.3601
   55MOL   H36020988   0.504   0.857   1.711  0.0162  0.4325 -0.3269
   55MOL   H36120989   0.972   0.865   1.621  0.3256  0.0118 -0.4755
   55MOL   H36220990   0.924   0.700   1.654  1.5882  1.5773  0.7898
   55MOL   C36320991   0.427   0.649   1.704  0.3305  0.4638 -0.6463
   55MOL   C36420992   0.278   0.673   1.692 -0.3568  0.7200  0.4003
   55MOL   C36520993   0.205   0.576   1.786 -0.5320  0.5291  0.0032
   55MOL   C36620994   0.299   0.554   1.898  0.0145 -0.4558  0.2852
   55MOL   C36720995   0.260   0.614   2.034 -0.1497 -0.2108  0.2367
   55MOL   C36820996   0.141   0.540   2.096 -1.0250 -0.1626  0.2613
   55MOL   C36920997   0.437   0.612   1.852 -0.5510  0.0966 -0.3365
   55MOL   H37020998   0.445   0.561   1.641 -1.1291  0.0619 -0.5102
   55MOL   H37120999   0.264   0.775   1.728 -1.0847  0.5566  0.5952
   55MOL   H37221000   0.245   0.673   1.588  0.1273  0.5565  0.2473
   55MOL   H37321001   0.117   0.627   1.826  0.5703  1.5644  1.1407
   55MOL   H37421002   0.168   0.483   1.742  1.0585  0.4111 -1.1370
   55MOL   H37521003   0.309   0.448   1.919  0.8919 -0.3093  0.5975
   55MOL   H37621004   0.349   0.594   2.094 -0.4814 -1.9575  0.1828
   55MOL   H37721005   0.233   0.719   2.025  0.6791  0.1298  1.4998
   55MOL   H37821006   0.066   0.550   2.018  1.9681  1.3600 -2.5343
   55MOL   H37921007   0.098   0.572   2.191 -3.3754 -5.7349  1.2630
   55MOL   H38021008   0.468   0.707   1.896 -0.2107  0.6440 -1.7339
   55MOL   H38121009   0.514   0.539   1.878 -1.7502 -1.0086  0.1635
   55MOL   H38221010   0.153   0.432   2.089  1.7565  0.1649 -0.7275
   56MOL     C121011   1.096   6.790   5.867  0.0705  0.3285  0.7394
   56MOL     C221012   1.230   6.818   5.936  0.0180 -0.2147 -0.2049
   56MOL     C321013   1.202   6.917   6.053  0.1909  0.4331  0.1422
   56MOL     C421014   1.063   6.891   6.098  0.3589  0.3795  0.5167
   56MOL     C521015   0.998   7.009   6.172 -0.2967  0.0348  0.0950
   56MOL     C621016   0.889   6.960   6.263  0.2026 -0.6646 -0.5578
   56MOL     C721017   0.991   6.833   5.977 -0.3364  0.0273  0.4422
   56MOL     H821018   1.073   6.856   5.784  0.1034 -1.6905 -0.9065
   56MOL     H921019   1.302   6.852   5.863  0.5145 -1.0023 -0.0800
   56MOL    H1021020   1.262   6.729   5.990 -0.4838  0.2479  0.8918
   56MOL    H1121021   1.274   6.910   6.134  1.3114 -0.9251 -0.9597
   56MOL    H1221022   1.213   7.020   6.019  0.9520  0.9253  1.8189
   56MOL    H1321023   1.070   6.811   6.173 -0.1049  2.3561  2.7405
   56MOL    H1421024   1.078   7.059   6.227  0.9995 -0.5052 -1.2590
   56MOL    H1521025   0.976   7.087   6.099 -1.4935 -1.2528 -0.9641
   56MOL    H1621026   0.827   6.893   6.204  2.4356 -3.5026  0.2075
   56MOL    H1721027   0.934   6.907   6.347 -2.0832  0.1233  1.2173
   56MOL    H1821028   0.928   6.747   5.998  0.7328 -0.4861  1.6066
   56MOL    H1921029   0.928   6.912   5.938  1.2028  0.6515 -0.8763
   56MOL    H2021030   1.086   6.688   5.828 -0.2909  1.1473 -1.3688
   56MOL    C2121031   0.799   7.076   6.308  0.4802 -0.6105  0.1861
   56MOL    C2221032   0.665   7.031   6.372  0.5891  0.2081  0.1628
   56MOL    C2321033   0.688   7.053   6.527  0.0187  0.4697  0.2353
   56MOL    C2421034   0.770   7.182   6.525  0.6711  0.1196 -0.6258
   56MOL    C2521035   0.825   7.214   6.665  0.2818 -0.3032  0.4896
   56MOL    C2621036   0.889   7.349   6.693 -0.1436  0.6107  0.6983
   56MOL    C2721037   0.874   7.170   6.414 -0.0601  0.0619  0.8015
   56MOL    H2821038   0.775   7.138   6.222  0.2464  0.2436  0.8567
   56MOL    H2921039   0.588   7.101   6.340 -0.9867 -0.9351  1.3801
   56MOL    H3021040   0.637   6.930   6.343 -0.9878  0.6497  0.1365
   56MOL    H3121041   0.586   7.056   6.566 -0.1754  2.2863 -0.3422
   56MOL    H3221042   0.748   6.973   6.568  1.7490  1.2417 -0.7475
   56MOL    H3321043   0.703   7.267   6.512 -0.3049 -0.3757  0.9724
   56MOL    H3421044   0.895   7.131   6.682 -1.5218 -1.4714  2.4436
   56MOL    H3521045   0.741   7.197   6.732 -0.3268 -1.1724 -0.4621
   56MOL    H3621046   0.878   7.363   6.800 -0.1188 -0.0214  0.7884
   56MOL    H3721047   0.840   7.431   6.640 -0.0788 -0.2038 -0.6565
   56MOL    H3821048   0.898   7.269   6.377  1.2938 -0.1300  1.1149
   56MOL    H3921049   0.964   7.122   6.454  0.4865 -0.8202 -1.4217
   56MOL    C4021050   1.045   7.348   6.660 -1.2048 -0.3596  1.0037
   56MOL    C4121051   1.105   7.479   6.626  0.6141 -0.3946  0.8201
   56MOL    C4221052   1.254   7.453   6.645 -0.3418  1.0045  0.4137
   56MOL    C4321053   1.274   7.345   6.748  0.1106  0.5114 -0.4739
   56MOL    C4421054   1.368   7.233   6.700 -0.0158 -0.2238  1.0650
   56MOL    C4521055   1.514   7.285   6.685  0.4287  0.0045 -0.0835
   56MOL    C4621056   1.131   7.297   6.782 -0.2338 -0.0018  0.6291
   56MOL    H4721057   1.067   7.290   6.570 -3.8119  2.2246 -1.4231
   56MOL    H4821058   1.077   7.554   6.700  2.3413  0.6410  0.4622
   56MOL    H4921059   1.087   7.512   6.523  0.6952 -0.8351  0.6655
   56MOL    H5021060   1.293   7.434   6.545 -3.2831 -3.3775 -0.0135
   56MOL    H5121061   1.307   7.542   6.678 -0.3464  1.1174  0.1151
   56MOL    H5221062   1.315   7.379   6.843 -3.0831  1.3380  0.6935
   56MOL    H5321063   1.384   7.166   6.784  0.1652  0.7665  1.8302
   56MOL    H5421064   1.333   7.172   6.617 -3.3017  0.8279  1.6365
   56MOL    H5521065   1.537   7.333   6.780 -1.2504  1.5259 -0.4097
   56MOL    H5621066   1.512   7.360   6.607  0.2751  0.4864  0.3795
   56MOL    H5721067   1.122   7.189   6.790 -0.2175 -0.0048  0.6099
   56MOL    H5821068   1.090   7.350   6.868 -0.5757 -0.5008  0.7736
   56MOL    C5921069   1.620   7.177   6.647 -0.1300  0.5590 -0.0844
   56MOL    C6021070   1.749   7.239   6.632 -0.0761 -0.0725  0.1485
   56MOL    C6121071   1.859   7.132   6.640  0.3911  1.1952  0.2889
   56MOL    C6221072   1.785   7.016   6.714 -0.6120  0.3286 -0.0043
   56MOL    C6321073   1.767   6.894   6.628 -0.4357 -0.1270 -0.0037
   56MOL    C6421074   1.694   6.763   6.689 -0.8873 -0.4856 -0.5272
   56MOL    C6521075   1.651   7.073   6.757  0.2194  0.3878  0.3087
   56MOL    H6621076   1.597   7.133   6.550  0.5752 -2.9522  1.2512
   56MOL    H6721077   1.775   7.291   6.539  1.4176 -1.6081 -0.3202
   56MOL    H6821078   1.772   7.306   6.715  0.0444 -1.2141  1.0444
   56MOL    H6921079   1.893   7.118   6.538 -1.0959  0.3201 -0.0957
   56MOL    H7021080   1.953   7.169   6.680 -1.0646  4.0126  1.2699
   56MOL    H7121081   1.847   6.973   6.793 -0.2754  0.1681 -0.3491
   56MOL    H7221082   1.861   6.862   6.582 -0.0828  0.0751  0.5790
   56MOL    H7321083   1.704   6.928   6.546  0.3496  2.7625  0.5502
   56MOL    H7421084   1.592   6.795   6.710 -0.7248 -0.6262  0.5080
   56MOL    H7521085   1.681   6.688   6.612  0.6587 -2.0876  0.7320
   56MOL    H7621086   1.566   7.005   6.763  1.1747 -0.8324  0.3660
   56MOL    H7721087   1.656   7.120   6.855 -0.5282 -0.3534  0.7088
   56MOL    C7821088   1.768   6.686   6.799 -0.5390  0.4660  0.0571
   56MOL    C7921089   1.763   6.759   6.930 -0.5021 -0.4088  0.0994
   56MOL    C8021090   1.743   6.660   7.039  0.1692 -0.3853  0.2089
   56MOL    C8121091   1.741   6.518   6.969  0.4392 -0.5860 -0.0189
   56MOL    C8221092   1.643   6.423   7.046  0.2942 -0.3761 -0.1471
   56MOL    C8321093   1.679   6.416   7.197 -0.0417  0.9703 -0.1546
   56MOL    C8421094   1.707   6.543   6.822  0.1242  0.3770  0.2683
   56MOL    H8521095   1.870   6.669   6.765 -0.1423 -0.3480  1.6077
   56MOL    H8621096   1.844   6.829   6.949 -1.9904  2.2370 -2.8916
   56MOL    H8721097   1.679   6.827   6.942 -0.5818 -0.2255 -1.4225
   56MOL    H8821098   1.816   6.672   7.119  0.2010 -1.1273  0.2970
   56MOL    H8921099   1.642   6.677   7.077  0.2720  0.5574  0.0772
   56MOL    H9021100   1.835   6.462   6.974  1.9079  1.6377 -1.9996
   56MOL    H9121101   1.666   6.320   7.021  0.2227 -0.8412  1.5969
   56MOL    H9221102   1.543   6.463   7.033  0.7580  1.4382  1.5109
   56MOL    H9321103   1.652   6.510   7.244  2.4953  1.0512  1.2359
   56MOL    H9421104   1.787   6.411   7.209 -0.0354 -1.2846 -0.8402
   56MOL    H9521105   1.598   6.545   6.812  0.0793  0.6267  0.7497
   56MOL    H9621106   1.737   6.470   6.748  0.8763  1.1089 -0.1531
   56MOL    C9721107   1.601   6.305   7.272 -0.3396 -0.2230 -0.6233
   56MOL    C9821108   1.585   6.335   7.421  0.4975 -0.2039  1.0359
   56MOL    C9921109   1.663   6.233   7.489 -0.2686  0.0304  0.1241
   56MOL   C10021110   1.650   6.107   7.409 -0.1301  0.9685  0.2669
   56MOL   C10121111   1.759   6.001   7.446  0.2561 -0.2415 -0.0597
   56MOL   C10221112   1.747   5.922   7.574 -0.1332  0.1592 -0.5901
   56MOL   C10321113   1.653   6.160   7.266 -0.2538  0.4734  0.2619
   56MOL   H10421114   1.501   6.312   7.230 -1.0618 -2.0756  0.7033
   56MOL   H10521115   1.611   6.439   7.441  1.6650 -0.4118  0.6311
   56MOL   H10621116   1.484   6.319   7.459  0.1715 -1.3913 -0.2734
   56MOL   H10721117   1.767   6.261   7.472  0.5003 -1.7079  1.8151
   56MOL   H10821118   1.650   6.223   7.597  1.4342 -1.0179  0.2435
   56MOL   H10921119   1.551   6.062   7.410  0.2028  0.2084 -0.0970
   56MOL   H11021120   1.757   5.929   7.364 -0.1319 -0.7428  0.3858
   56MOL   H11121121   1.857   6.047   7.440  1.1893 -2.0943  0.6115
   56MOL   H11221122   1.838   5.866   7.593  0.6848  1.2164 -1.3410
   56MOL   H11321123   1.736   5.984   0.016 -0.1739 -1.9431  0.9199
   56MOL   H11421124   1.756   6.160   7.231 -0.7495  1.6089 -1.2483
   56MOL   H11521125   1.598   6.102   7.192  2.5703 -0.1579 -1.4120
   56MOL   C11621126   1.623   5.824   7.586 -0.4236  0.1283  0.7690
   56MOL   C11721127   1.631   5.713   0.043 -0.6515 -0.5224  0.0212
   56MOL   C11821128   1.521   5.731   0.145  0.4981 -0.0963 -0.2984
   56MOL   C11921129   1.411   5.802   0.059 -0.5425  0.1120  0.1178
   56MOL   C12021130   1.310   5.876   0.163 -0.1500  0.0343 -0.6856
   56MOL   C12121131   1.183   5.932   0.096 -0.8473  0.5245 -0.1509
   56MOL   C12221132   1.486   5.892   7.607  0.4376 -0.1625  0.2051
   56MOL   H12321133   1.609   5.771   7.492  1.4635  0.5832  0.2158
   56MOL   H12421134   1.730   5.695   0.084 -0.2265 -2.0812 -1.6317
   56MOL   H12521135   1.610   5.620   7.636  1.3519 -1.0519  0.1277
   56MOL   H12621136   1.561   5.805   0.214 -0.1369 -2.1339  2.3329
   56MOL   H12721137   1.479   5.644   0.195 -0.9036  1.0045  0.4836
   56MOL   H12821138   1.355   5.725   0.006  0.9140 -1.6517  1.1115
   56MOL   H12921139   1.363   5.943   0.231  0.1566 -2.1163  1.2647
   56MOL   H13021140   1.272   5.803   0.235  0.3035  1.1370  0.6933
   56MOL   H13121141   1.126   5.847   0.059  1.9253 -1.4513 -0.0507
   56MOL   H13221142   1.211   5.983   0.003  0.5596  0.8517  0.4389
   56MOL   H13321143   1.424   5.903   7.517  0.1286  0.6090  0.5098
   56MOL   H13421144   1.492   5.994   7.643 -0.5830  0.5714 -1.6187
   56MOL   C13521145   1.085   6.029   0.175  0.9899 -0.6027  0.0881
   56MOL   C13621146   0.957   6.053   0.096 -0.0543 -0.4681  0.3657
   56MOL   C13721147   0.859   6.074   0.214 -0.5240  0.4221  0.9718
   56MOL   C13821148   0.894   5.965   0.318  0.3800  0.6172 -1.2176
   56MOL   C13921149   0.832   5.990   0.457  0.2032 -0.1760  0.1234
   56MOL   C14021150   0.898   5.927   0.578  0.4464 -0.3812  0.1576
   56MOL   C14121151   1.047   5.970   0.312  0.5289  0.1879 -0.5510
   56MOL   H14221152   1.127   6.129   0.190 -3.1384  1.2674 -0.0907
   56MOL   H14321153   0.959   6.133   0.023 -1.0182  1.7737  2.6908
   56MOL   H14421154   0.929   5.957   0.052  0.9432 -1.4936  1.9087
   56MOL   H14521155   0.863   6.177   0.249  0.6021  1.2134 -1.3662
   56MOL   H14621156   0.761   6.062   0.166 -0.4795  0.4649  0.8700
   56MOL   H14721157   0.869   5.869   0.272 -4.1717 -1.4920  4.8952
   56MOL   H14821158   0.730   5.952   0.460 -0.5338  1.8281  1.4190
   56MOL   H14921159   0.824   6.096   0.483  0.1228  0.1388 -1.1456
   56MOL   H15021160   0.946   5.830   0.564 -0.3240 -0.5350 -1.5268
   56MOL   H15121161   0.978   5.996   0.604  0.3577 -0.0733 -0.3825
   56MOL   H15221162   1.087   5.869   0.319  0.3160 -0.1023 -2.9417
   56MOL   H15321163   1.093   6.028   0.392  0.3459 -0.1800 -0.1792
   56MOL   C15421164   0.805   5.926   0.709 -0.4906  0.4687 -0.3731
   56MOL   C15521165   0.889   5.898   0.835  0.0749  0.4437 -0.9224
   56MOL   C15621166   0.794   5.803   0.918 -0.4610 -0.0656  0.5507
   56MOL   C15721167   0.661   5.795   0.841 -0.4928  0.1275 -0.1178
   56MOL   C15821168   0.585   5.663   0.853 -0.7716 -0.3460  0.5127
   56MOL   C15921169   0.539   5.634   1.000  0.2037 -0.0656  0.1830
   56MOL   C16021170   0.704   5.815   0.694 -0.0414 -0.3890  0.3376
   56MOL   H16121171   0.751   6.019   0.728  0.6519  1.2182 -0.7003
   56MOL   H16221172   0.979   5.842   0.810  0.3006 -0.1184  1.0629
   56MOL   H16321173   0.923   5.981   0.897  1.8421 -0.2454 -0.9520
   56MOL   H16421174   0.840   5.704   0.924 -1.9141 -0.7055  1.5499
   56MOL   H16521175   0.782   5.838   1.021 -0.1685 -0.5845  0.7652
   56MOL   H16621176   0.594   5.875   0.875 -1.1516 -0.1204 -0.8072
   56MOL   H16721177   0.644   5.577   0.822  0.5481  0.5951  0.3458
   56MOL   H16821178   0.497   5.677   0.791 -0.7136  2.0413  0.9045
   56MOL   H16921179   0.633   5.632   1.055  0.1825  0.8574  0.2608
   56MOL   H17021180   0.479   5.722   1.026  2.8589  1.5862  0.9247
   56MOL   H17121181   0.624   5.834   0.623  1.4645 -1.8975 -1.8404
   56MOL   H17221182   0.762   5.733   0.651 -0.5793  0.3904 -1.9359
   56MOL   C17321183   0.463   5.504   1.035  0.2114 -0.3068 -0.7440
   56MOL   C17421184   0.532   5.374   1.000 -0.7061  0.4403  0.2541
   56MOL   C17521185   0.580   5.310   1.127 -0.5215  0.0417  0.2118
   56MOL   C17621186   0.480   5.352   1.231  0.3122  0.1420 -0.7895
   56MOL   C17721187   0.544   5.335   1.371 -0.6102  0.3211 -0.6019
   56MOL   C17821188   0.616   5.202   1.391  0.4764  0.6930  0.6383
   56MOL   C17921189   0.425   5.490   1.180 -0.2309 -0.3951 -0.5864
   56MOL   H18021190   0.372   5.501   0.975 -0.4947 -1.3705  0.3800
   56MOL   H18121191   0.609   5.385   0.925  0.0101 -1.4427  0.6939
   56MOL   H18221192   0.455   5.316   0.949  1.2437 -1.8035 -0.1844
   56MOL   H18321193   0.592   5.201   1.121 -0.8941 -0.0344  0.7562
   56MOL   H18421194   0.669   5.361   1.163  0.5942 -1.2400 -0.6827
   56MOL   H18521195   0.396   5.282   1.243  1.0128 -0.5096  0.4035
   56MOL   H18621196   0.477   5.363   1.452 -1.1435  0.9919 -1.2707
   56MOL   H18721197   0.616   5.415   1.387 -1.9542  1.0639  2.0911
   56MOL   H18821198   0.688   5.180   1.312  1.0462 -0.7934  1.5462
   56MOL   H18921199   0.549   5.117   1.381  3.9119 -2.2866  1.8162
   56MOL   H19021200   0.469   5.569   1.241 -1.1160 -2.3158  2.6520
   56MOL   H19121201   0.317   5.487   1.189 -0.5667  1.9976 -3.0538
   56MOL   C19221202   0.673   5.194   1.534 -0.0567  0.3825  0.1383
   56MOL   C19321203   0.738   5.057   1.562 -0.0756  0.6371 -0.1456
   56MOL   C19421204   0.728   5.034   1.711  0.3906 -0.1532 -0.0011
   56MOL   C19521205   0.588   5.081   1.749  0.2675 -0.5802  0.6846
   56MOL   C19621206   0.581   5.101   1.903  0.0424 -0.0504  0.1180
   56MOL   C19721207   0.582   4.971   1.987 -0.9575 -0.7023 -0.0151
   56MOL   C19821208   0.566   5.204   1.657  0.6633 -0.9727  0.4212
   56MOL   H19921209   0.744   5.276   1.542  0.6564  0.1343 -3.0050
   56MOL   H20021210   0.679   4.975   1.521  0.1044  0.1714  0.5085
   56MOL   H20121211   0.843   5.054   1.534 -0.6385 -0.5791 -2.1899
   56MOL   H20221212   0.812   5.093   1.749  0.0139 -0.2336  0.9714
   56MOL   H20321213   0.754   4.935   1.749  0.3104  0.4439  1.6549
   56MOL   H20421214   0.517   5.007   1.714 -1.7780  1.7184 -0.1904
   56MOL   H20521215   0.485   5.148   1.922  0.0664 -0.1565  0.5100
   56MOL   H20621216   0.660   5.174   1.922  0.5301 -0.3501 -0.7726
   56MOL   H20721217   0.575   5.005   2.091  0.1659  0.2638 -0.2316
   56MOL   H20821218   0.680   4.925   1.975 -0.5857  0.1485 -0.3207
   56MOL   H20921219   0.591   5.295   1.711 -3.1010 -0.1950  1.0073
   56MOL   H21021220   0.460   5.213   1.633  0.6568 -1.2031  0.3601
   56MOL   C21121221   0.477   4.868   1.960  0.7002  0.4169 -0.1415
   56MOL   C21221222   0.328   4.909   1.958  0.0141  0.1255  0.1584
   56MOL   C21321223   0.254   4.785   2.006 -0.1344  0.1950 -0.2072
   56MOL   C21421224   0.354   4.678   2.045  0.2355 -1.4614  0.0137
   56MOL   C21521225   0.317   4.604   2.166 -0.5122  0.1891 -0.7112
   56MOL   C21621226   0.434   4.512   2.214  0.1808 -0.0004 -0.2243
   56MOL   C21721227   0.482   4.752   2.059  0.1253  0.0638 -0.4024
   56MOL   H21821228   0.486   4.826   1.860 -0.5709 -1.8091  0.6363
   56MOL   H21921229   0.315   4.992   2.028  1.7738  0.3423  0.2579
   56MOL   H22021230   0.298   4.934   1.856 -1.4896 -0.9300  0.3410
   56MOL   H22121231   0.185   4.810   2.087  1.5841  0.3047  1.2360
   56MOL   H22221232   0.193   4.748   1.923  0.4163 -0.5023 -0.3088
   56MOL   H22321233   0.366   4.612   1.959  0.3097 -0.5872 -0.6583
   56MOL   H22421234   0.229   4.544   2.139 -1.3660  0.4730  1.3966
   56MOL   H22521235   0.283   4.673   2.242 -0.1277 -1.1051  0.6694
   56MOL   H22621236   0.458   4.453   2.126 -1.4200  0.2478 -0.8345
   56MOL   H22721237   0.524   4.565   2.247  0.1729  1.0425 -1.8021
   56MOL   H22821238   0.554   4.675   2.030  0.4354  0.0889  0.3061
   56MOL   H22921239   0.500   4.776   2.164  3.7348 -2.1777 -0.3998
   56MOL   C23021240   0.394   4.406   2.318 -0.4185 -0.2357  0.6829
   56MOL   C23121241   0.389   4.458   2.463 -0.5038  0.4426  0.0343
   56MOL   C23221242   0.481   4.369   2.547  0.6352  0.3037 -1.2929
   56MOL   C23321243   0.565   4.282   2.445  0.2671 -0.2276 -0.3051
   56MOL   C23421244   0.603   4.141   2.493 -0.0522  0.8854 -0.2156
   56MOL   C23521245   0.660   4.146   2.631  0.3323 -0.2397  0.3258
   56MOL   C23621246   0.487   4.286   2.313  0.2498 -0.1238  0.4079
   56MOL   H23721247   0.294   4.374   2.286 -1.0817  0.8577  1.6028
   56MOL   H23821248   0.432   4.557   2.478  0.8993 -0.1332 -0.1862
   56MOL   H23921249   0.290   4.458   2.510 -1.2549 -1.6485 -1.4900
   56MOL   H24021250   0.428   4.297   2.609 -0.1389  1.7064 -0.2853
   56MOL   H24121251   0.545   4.425   2.616 -3.0542 -0.0929  2.6247
   56MOL   H24221252   0.653   4.344   2.427 -0.0535  0.1858 -0.4825
   56MOL   H24321253   0.666   4.102   2.412  0.7943 -0.6977  1.1879
   56MOL   H24421254   0.514   4.078   2.491  0.2256  0.4680  0.3795
   56MOL   H24521255   0.738   4.222   2.627 -0.2126  0.3531  0.8211
   56MOL   H24621256   0.595   4.180   2.712  3.6664  0.5583  2.7961
   56MOL   H24721257   0.427   4.197   2.292  0.2057 -0.1396  0.5941
   56MOL   H24821258   0.563   4.280   2.236  0.7652  1.2813  0.8014
   56MOL   C24921259   0.721   4.013   2.680 -0.4895 -0.1753 -0.6658
   56MOL   C25021260   0.803   4.024   2.804  0.1599  0.0367  0.1167
   56MOL   C25121261   0.755   3.915   2.894 -1.2023 -0.7076  0.3482
   56MOL   C25221262   0.604   3.904   2.867  0.6859  0.0636 -0.0279
   56MOL   C25321263   0.553   3.771   2.913 -0.1881 -0.3453 -0.5471
   56MOL   C25421264   0.408   3.744   2.857  0.1933 -0.5718 -0.3224
   56MOL   C25521265   0.606   3.920   2.711 -0.1957 -0.5879  0.1494
   56MOL   H25621266   0.772   3.967   2.595 -2.6857 -0.3523 -1.9104
   56MOL   H25721267   0.910   4.014   2.784  0.2821  0.1275  0.7267
   56MOL   H25821268   0.786   4.121   2.850 -0.9760 -1.2539  2.5261
   56MOL   H25921269   0.764   3.931   3.001  0.9362 -0.4863  0.1701
   56MOL   H26021270   0.812   3.825   2.868  2.8626  1.2850  1.8616
   56MOL   H26121271   0.545   3.987   2.905 -0.6322 -1.1744  0.6614
   56MOL   H26221272   0.557   3.767   3.021 -0.7063 -1.0658 -0.5508
   56MOL   H26321273   0.613   3.685   2.881  1.3832  0.0588  1.2315
   56MOL   H26421274   0.401   3.709   2.754  1.3058  3.1399 -1.7593
   56MOL   H26521275   0.349   3.836   2.861  0.0046 -0.7246  0.5213
   56MOL   H26621276   0.513   3.955   2.666 -0.1565 -1.2260 -0.4266
   56MOL   H26721277   0.625   3.822   2.669  0.3771 -0.9947  1.3304
   56MOL   C26821278   0.338   3.645   2.951  0.2435  0.1102  0.0362
   56MOL   C26921279   0.191   3.621   2.907 -0.3586 -0.4166  0.0581
   56MOL   C27021280   0.107   3.673   3.030  0.1288  1.0861 -0.3394
   56MOL   C27121281   0.199   3.648   3.154  0.2419 -0.0570  0.3777
   56MOL   C27221282   0.163   3.736   3.269 -0.1580  0.6565 -0.5825
   56MOL   C27321283   0.247   3.691   3.397 -0.0660 -0.2859 -0.7491
   56MOL   C27421284   0.337   3.684   3.101  0.3228  0.1021 -0.3526
   56MOL   H27521285   0.386   3.547   2.950 -1.5133 -0.7490 -1.1663
   56MOL   H27621286   0.157   3.684   2.824  3.1551 -1.6994 -2.4947
   56MOL   H27721287   0.174   3.518   2.874  0.9341 -0.8901  0.8586
   56MOL   H27821288   0.083   3.779   3.025 -0.5261  1.1631  3.0957
   56MOL   H27921289   0.012   3.626   3.053  0.5149 -1.0060 -2.8818
   56MOL   H28021290   0.190   3.544   3.185  1.3492  0.2237  1.6985
   56MOL   H28121291   0.056   3.723   3.288 -0.2635  1.9353 -0.2423
   56MOL   H28221292   0.179   3.842   3.252  1.1089  0.7241  0.8671
   56MOL   H28321293   0.253   3.584   3.415  2.1268  0.0835  0.9391
   56MOL   H28421294   0.354   3.708   3.387 -0.3639  1.9672 -0.4599
   56MOL   H28521295   0.368   3.786   3.121  0.7369 -0.4049  1.7403
   56MOL   H28621296   0.404   3.619   3.159 -0.0382  0.4805  0.5019
   56MOL   C28721297   0.193   3.753   3.528 -0.2279 -0.1566  0.4959
   56MOL   C28821298   0.213   3.660   3.640  0.5615 -0.3505 -0.3472
   56MOL   C28921299   0.182   3.750   3.761 -0.1886 -0.8988  0.3030
   56MOL   C29021300   0.249   3.889   3.729 -0.6684 -0.0770  0.0416
   56MOL   C29121301   0.376   3.917   3.805  0.1213  0.4083  0.2984
   56MOL   C29221302   0.346   3.968   3.941 -0.1992 -0.2832 -0.4260
   56MOL   C29321303   0.270   3.874   3.575 -0.0906 -0.0737 -0.2167
   56MOL   H29421304   0.089   3.782   3.520  0.7589  3.9346  1.3031
   56MOL   H29521305   0.144   3.576   3.629 -0.6451  0.4005  1.2897
   56MOL   H29621306   0.316   3.628   3.653  0.9017  1.7454  2.4443
   56MOL   H29721307   0.223   3.711   3.853  0.4919 -0.7701  0.0588
   56MOL   H29821308   0.073   3.757   3.762 -0.0781  2.0487 -0.7518
   56MOL   H29921309   0.184   3.974   3.748  0.1412  0.1652  1.8434
   56MOL   H30021310   0.439   3.996   3.763 -0.4696 -0.7748 -3.0027
   56MOL   H30121311   0.439   3.827   3.798  0.2861  0.6290 -1.2332
   56MOL   H30221312   0.278   3.903   3.996 -4.8645  2.1093 -3.0147
   56MOL   H30321313   0.287   4.060   3.936  1.5995  0.9994  0.9340
   56MOL   H30421314   0.374   3.875   3.543 -0.2623  0.8139 -0.7603
   56MOL   H30521315   0.219   3.955   3.522  2.2090  1.5979  0.0292
   56MOL   C30621316   0.483   3.977   4.024 -0.1378  0.1736 -0.8228
   56MOL   C30721317   0.464   4.028   4.168  0.1146  0.0337  0.0423
   56MOL   C30821318   0.558   3.950   4.264  0.8611 -0.4755 -0.0910
   56MOL   C30921319   0.649   3.874   4.164 -0.1610 -0.2795  0.3854
   56MOL   C31021320   0.738   3.762   4.228  0.1415  0.6574 -0.8434
   56MOL   C31121321   0.819   3.666   4.136  0.1423  0.3157 -0.6152
   56MOL   C31221322   0.558   3.842   4.045 -0.8175 -0.3968  0.5657
   56MOL   H31321323   0.561   4.032   3.971 -0.8819  1.4818 -0.5991
   56MOL   H31421324   0.506   4.129   4.165 -0.2658  0.1657 -1.3349
   56MOL   H31521325   0.358   4.035   4.191 -0.2195 -1.8567 -0.8464
   56MOL   H31621326   0.607   4.018   4.335  0.6072  1.4209 -1.6952
   56MOL   H31721327   0.506   3.879   4.328  1.6085  0.2629  1.3707
   56MOL   H31821328   0.715   3.953   4.127 -2.1507  1.1576 -0.1392
   56MOL   H31921329   0.812   3.809   4.292  0.4092 -1.3203  0.3112
   56MOL   H32021330   0.666   3.708   4.290  3.5489 -1.3968  1.4619
   56MOL   H32121331   0.904   3.718   4.093  0.4921 -0.2986 -0.6683
   56MOL   H32221332   0.757   3.629   4.054  1.0535 -0.3425 -1.0163
   56MOL   H32321333   0.481   3.768   4.069 -0.8887 -0.7383 -0.6926
   56MOL   H32421334   0.615   3.804   3.960 -2.7300 -0.7107 -0.6141
   56MOL   C32521335   0.858   3.537   4.217 -0.3987  0.4990 -0.7074
   56MOL   C32621336   0.927   3.433   4.126  0.5053 -0.3850 -0.1521
   56MOL   C32721337   1.019   3.360   4.223  0.1976  0.9193 -0.0289
   56MOL   C32821338   1.070   3.470   4.319  0.8367 -0.3003 -0.0776
   56MOL   C32921339   1.117   3.412   4.453  0.0751  0.5431  0.5400
   56MOL   C33021340   1.217   3.499   4.537 -0.5863 -0.1525 -0.0265
   56MOL   C33121341   0.950   3.572   4.331 -0.1486 -0.3151 -0.0450
   56MOL   H33221342   0.776   3.485   4.265  1.6376 -1.1758  1.0053
   56MOL   H33321343   0.984   3.495   4.058  0.6766 -0.7700 -0.3560
   56MOL   H33421344   0.854   3.382   4.064 -0.6318  1.4769 -0.3744
   56MOL   H33521345   0.967   3.278   4.273 -1.6729  1.4960 -0.9510
   56MOL   H33621346   1.100   3.315   4.166 -0.2580 -1.8722  1.4344
   56MOL   H33721347   1.156   3.519   4.274 -0.2259  0.8497 -0.8869
   56MOL   H33821348   1.033   3.366   4.505 -0.5655  1.3587  0.2242
   56MOL   H33921349   1.178   3.325   4.429  2.0772  2.3170 -1.0232
   56MOL   H34021350   1.278   3.559   4.470 -1.6329  1.7828  0.7386
   56MOL   H34121351   1.163   3.577   4.590 -1.8724 -0.0642 -1.4560
   56MOL   H34221352   0.992   3.670   4.314 -0.0808 -0.4099 -0.4242
   56MOL   H34321353   0.899   3.576   4.427 -1.5211 -0.3557 -0.7610
   56MOL   C34421354   1.289   3.414   4.643  0.3967  0.8139 -0.6551
   56MOL   C34521355   1.374   3.493   4.735  0.1952 -0.0454  0.8812
   56MOL   C34621356   1.454   3.383   4.812 -0.3876  0.4079  0.9755
   56MOL   C34721357   1.494   3.279   4.707 -0.6297  0.1999 -0.1541
   56MOL   C34821358   1.491   3.137   4.771  0.2295 -0.1068 -0.2708
   56MOL   C34921359   1.548   3.026   4.673  0.0084 -0.9730 -0.2535
   56MOL   C35021360   1.392   3.304   4.599 -0.8146  0.4601 -0.0158
   56MOL   H35121361   1.225   3.367   4.718 -0.9432  1.1303 -1.5789
   56MOL   H35221362   1.310   3.547   4.803  1.4099 -0.7908  2.6538
   56MOL   H35321363   1.445   3.557   4.682 -1.8890  2.4140  1.0060
   56MOL   H35421364   1.544   3.417   4.863  1.0591 -0.5368 -0.8728
   56MOL   H35521365   1.383   3.329   4.875 -0.9707 -0.4032 -0.3596
   56MOL   H35621366   1.594   3.299   4.670 -0.0800  0.0124  1.1827
   56MOL   H35721367   1.562   3.134   4.853  0.7544 -2.4365 -0.7565
   56MOL   H35821368   1.389   3.117   4.801  0.9404 -2.4093  0.7042
   56MOL   H35921369   1.654   3.045   4.654  0.5965 -3.5646  0.1925
   56MOL   H36021370   1.491   3.023   4.580 -1.3170 -0.6103  0.5429
   56MOL   H36121371   1.445   3.325   4.506  0.4673 -0.5751  0.4614
   56MOL   H36221372   1.344   3.213   4.563  1.1178 -0.9402  0.8735
   56MOL   C36321373   1.539   2.883   4.729  0.3167 -0.3556  0.1095
   56MOL   C36421374   1.407   2.820   4.779  0.3583 -0.2480  0.0954
   56MOL   C36521375   1.446   2.744   4.905  0.0792 -0.3881  0.3967
   56MOL   C36621376   1.571   2.808   4.956 -0.1108 -0.0213 -0.3217
   56MOL   C36721377   1.543   2.924   5.052 -0.3651  0.2003 -0.4756
   56MOL   C36821378   1.500   2.887   5.193  0.2738  0.5255  0.1685
   56MOL   C36921379   1.649   2.855   4.831  0.3400  0.0886 -0.1762
   56MOL   H37021380   1.568   2.821   4.643  1.2640 -1.1151  0.9650
   56MOL   H37121381   1.328   2.894   4.793  2.3175  2.4069 -2.3966
   56MOL   H37221382   1.371   2.756   4.699  3.6606  0.8866 -2.3858
   56MOL   H37321383   1.366   2.738   4.978 -0.7980  1.8575 -0.3602
   56MOL   H37421384   1.471   2.642   4.873 -0.9210 -0.1092 -1.3094
   56MOL   H37521385   1.633   2.736   5.010 -1.9226 -0.4969  1.1562
   56MOL   H37621386   1.639   2.967   5.078 -1.4696  1.9356  0.8525
   56MOL   H37721387   1.466   2.990   5.009  1.4407  1.7035 -1.4922
   56MOL   H37821388   1.562   2.801   5.219 -1.7670 -0.4677  1.8612
   56MOL   H37921389   1.396   2.855   5.187 -0.4004  2.7037 -0.1542
   56MOL   H38021390   1.727   2.931   4.836  2.1417 -1.8061  0.7907
   56MOL   H38121391   1.706   2.771   4.793 -1.3663 -0.9720 -0.4358
   56MOL   H38221392   1.507   2.955   5.278  2.9430 -0.8641  1.1054
   57MOL     C121393   4.905   6.457   6.631  0.2427 -0.9912 -0.0796
   57MOL     C221394   4.923   6.576   6.532  0.4400 -0.0720 -0.3051
   57MOL     C321395   4.843   6.697   6.577 -0.1325 -0.3028 -0.5500
   57MOL     C421396   4.819   6.667   6.728  1.4861  0.3766  0.1353
   57MOL     C521397   4.700   6.735   6.798 -0.1126  0.0896 -0.0922
   57MOL     C621398   4.718   6.753   6.952 -0.5410 -0.1073 -0.2374
   57MOL     C721399   4.812   6.513   6.733  0.1843  0.6818  0.2095
   57MOL     H821400   4.872   6.369   6.576  2.0015 -1.9258  0.3243
   57MOL     H921401   4.881   6.545   6.436 -0.5850 -1.2663  0.5023
   57MOL    H1021402   5.026   6.601   6.507  1.2468 -0.8590  2.0981
   57MOL    H1121403   4.903   6.788   6.582  1.7829 -1.5611 -0.6053
   57MOL    H1221404   4.746   6.708   6.528 -0.5158 -1.2853 -0.0082
   57MOL    H1321405   4.903   6.688   6.794  0.4205 -0.5944  1.8450
   57MOL    H1421406   4.700   6.832   6.750  3.4056 -0.4609 -1.3691
   57MOL    H1521407   4.609   6.690   6.759 -0.0246 -0.7722  0.6767
   57MOL    H1621408   4.713   6.656   7.002 -2.0013 -0.7389 -1.5545
   57MOL    H1721409   4.808   6.806   6.984 -2.2000  2.5629  0.0689
   57MOL    H1821410   4.821   6.469   6.833 -0.0347 -0.9637 -0.4895
   57MOL    H1921411   4.712   6.479   6.709  0.7700 -0.5944 -0.4421
   57MOL    H2021412   4.999   6.432   6.679 -0.7630 -0.6727  2.1360
   57MOL    C2121413   4.596   6.835   7.005 -0.2723  0.0284  0.1086
   57MOL    C2221414   4.593   6.847   7.158 -0.9612 -0.0950  0.0701
   57MOL    C2321415   4.532   6.981   7.188 -0.1599  0.3495 -0.4133
   57MOL    C2421416   4.495   7.042   7.057 -0.5079 -0.2600 -0.4698
   57MOL    C2521417   4.474   7.196   7.062  0.4299 -0.5342  0.1375
   57MOL    C2621418   4.369   7.250   7.164  0.1359 -0.4206 -0.1693
   57MOL    C2721419   4.587   6.979   6.959 -0.2496 -0.3578 -0.0147
   57MOL    H2821420   4.501   6.786   6.984  0.6273 -1.7772  0.1728
   57MOL    H2921421   4.534   6.762   7.190 -3.0680  1.0880 -0.5811
   57MOL    H3021422   4.695   6.842   7.197  0.1505 -1.1922 -2.8226
   57MOL    H3121423   4.448   6.976   7.256 -3.2170  0.5640 -4.0184
   57MOL    H3221424   4.602   7.046   7.240 -1.3950 -0.4140  2.2975
   57MOL    H3321425   4.401   6.992   7.032 -1.2822  0.6243  0.5714
   57MOL    H3421426   4.467   7.238   6.962  1.0728 -0.8204 -0.0250
   57MOL    H3521427   4.563   7.246   7.101 -0.9930  1.1147  1.3822
   57MOL    H3621428   4.397   7.228   7.267  0.1138  0.3960  0.0141
   57MOL    H3721429   4.279   7.188   7.162 -0.6581  0.6757  0.8362
   57MOL    H3821430   4.568   6.997   6.853  0.3845  1.8075  0.2097
   57MOL    H3921431   4.678   7.038   6.964 -1.0517  0.7956  1.5305
   57MOL    C4021432   4.315   7.396   7.129 -0.0311 -0.1323  0.6269
   57MOL    C4121433   4.214   7.400   7.009  0.0069 -0.0764  0.5136
   57MOL    C4221434   4.111   7.503   7.062  0.7204 -0.4036  0.4069
   57MOL    C4321435   4.098   7.467   7.209 -0.2292 -0.1434  0.1192
   57MOL    C4421436   4.011   7.571   7.293 -0.0856  0.0042  0.5346
   57MOL    C4521437   4.006   7.537   7.440  0.3079 -0.3919  0.1591
   57MOL    C4621438   4.240   7.455   7.261  0.0575 -0.1539 -0.3017
   57MOL    H4721439   4.402   7.459   7.109 -0.2981 -0.4081 -1.4988
   57MOL    H4821440   4.174   7.301   6.987 -0.7960  0.0805  1.2334
   57MOL    H4921441   4.252   7.434   6.913 -2.0576  1.5359  0.2365
   57MOL    H5021442   4.150   7.604   7.052  1.1290 -0.6738 -0.7373
   57MOL    H5121443   4.015   7.497   7.010  1.4746 -1.1858 -0.9177
   57MOL    H5221444   4.040   7.375   7.208  1.0130 -0.9730  1.8726
   57MOL    H5321445   4.052   0.025   7.293 -2.2938  0.9288  0.4421
   57MOL    H5421446   3.913   7.583   7.247  0.1740  2.0561  0.4817
   57MOL    H5521447   4.102   7.556   7.487  0.2128  0.2123  0.1197
   57MOL    H5621448   3.974   7.434   7.453 -0.3710 -0.6040 -2.9039
   57MOL    H5721449   4.279   7.555   7.282  0.4274 -0.8265  2.3554
   57MOL    H5821450   4.255   7.392   7.349 -1.5627 -1.5856 -1.0444
   57MOL    C5921451   3.907   7.634   7.511 -0.3609 -0.9682 -0.0918
   57MOL    C6021452   3.868   7.580   7.646  0.5360 -0.1763 -0.0844
   57MOL    C6121453   3.808   0.055   0.070  0.2915  0.3120 -0.2183
   57MOL    C6221454   3.905   0.164   0.038 -0.1122 -0.2597  0.8159
   57MOL    C6321455   3.856   0.312   0.049  0.0555  0.1902 -0.4415
   57MOL    C6421456   3.806   0.331   0.191  0.0673  0.2777  0.2888
   57MOL    C6521457   3.956   0.129   7.547 -0.5734 -0.1048 -0.0046
   57MOL    H6621458   3.814   7.623   7.456 -0.0266  0.9538 -1.0715
   57MOL    H6721459   3.801   7.494   0.008  0.3857 -0.0917 -0.3892
   57MOL    H6821460   3.952   7.542   0.058 -0.7461 -1.1854  1.1184
   57MOL    H6921461   3.711   0.090   0.034 -0.2898  0.2264  1.2400
   57MOL    H7021462   3.807   0.030   0.176 -1.0624 -0.9365 -0.4996
   57MOL    H7121463   3.984   0.153   0.112  1.0354 -1.3246 -0.5717
   57MOL    H7221464   3.777   0.323   7.621  0.8782  1.3060 -1.1527
   57MOL    H7321465   3.947   0.370   0.032  0.3098 -0.1766 -0.3588
   57MOL    H7421466   3.734   0.255   0.219  0.0672 -0.3571 -1.3751
   57MOL    H7521467   3.888   0.311   0.260  1.4134 -1.9316 -1.8755
   57MOL    H7621468   3.914   0.186   7.463  1.7271  0.4190 -0.8465
   57MOL    H7721469   4.064   0.138   7.551 -0.4161 -1.9335 -0.0714
   57MOL    C7821470   3.744   0.471   0.206  0.1231  0.0934 -0.4004
   57MOL    C7921471   3.688   0.499   0.344  0.3574 -0.0024 -0.0517
   57MOL    C8021472   3.731   0.643   0.380 -0.0467  0.5136 -0.6089
   57MOL    C8121473   3.791   0.713   0.259 -0.0812 -0.1880 -0.5066
   57MOL    C8221474   3.893   0.816   0.297 -0.4401  0.4482 -0.7694
   57MOL    C8321475   3.839   0.945   0.346 -0.6251 -0.4697 -0.1822
   57MOL    C8421476   3.841   0.586   0.174  0.4339  0.3764  0.3901
   57MOL    H8521477   3.661   0.485   0.136  0.3424  0.3015 -0.6183
   57MOL    H8621478   3.580   0.489   0.346  0.3470  0.1767  0.3651
   57MOL    H8721479   3.726   0.421   0.410 -0.4080 -0.8185 -0.5556
   57MOL    H8821480   3.644   0.697   0.418 -0.7303  0.2048 -1.7208
   57MOL    H8921481   3.803   0.646   0.463 -1.3329 -2.1009  0.6767
   57MOL    H9021482   3.714   0.773   0.210 -0.6805  1.1326  2.0173
   57MOL    H9121483   3.947   0.848   0.207  1.0683 -1.7598 -0.6903
   57MOL    H9221484   3.964   0.772   0.367 -0.4342 -0.0660 -1.0946
   57MOL    H9321485   3.767   0.934   0.427 -0.1403  0.7674  0.4218
   57MOL    H9421486   3.783   0.987   0.262 -0.6845 -0.3996 -0.1071
   57MOL    H9521487   3.940   0.568   0.216  0.8400  0.3902 -0.5349
   57MOL    H9621488   3.837   0.612   0.068  0.2345  1.0169  0.5568
   57MOL    C9721489   3.941   1.059   0.386  0.1806 -0.3176 -0.1558
   57MOL    C9821490   4.007   1.032   0.523  0.9808  0.0766 -0.0171
   57MOL    C9921491   3.936   1.125   0.620  0.5928  0.5505  0.0472
   57MOL   C10021492   3.911   1.246   0.539  0.1739 -1.0757 -0.1916
   57MOL   C10121493   3.805   1.339   0.606 -0.2483  0.8216  0.4660
   57MOL   C10221494   3.789   1.467   0.527  0.4983 -0.2254  0.3482
   57MOL   C10321495   3.862   1.190   0.408  0.4330 -0.3716  0.0395
   57MOL   H10421496   4.016   1.084   0.311  1.7677 -2.8794  0.5153
   57MOL   H10521497   4.000   0.928   0.555 -2.3794 -0.2616 -1.6951
   57MOL   H10621498   4.112   1.059   0.537  0.0872  2.9369  1.5561
   57MOL   H10721499   3.845   1.079   0.660  0.4904 -1.7723 -2.6442
   57MOL   H10821500   4.004   1.142   0.703 -0.8283  1.4354  1.0652
   57MOL   H10921501   4.007   1.294   0.523  0.1062 -1.0908 -0.6490
   57MOL   H11021502   3.714   1.286   0.634  0.6630 -0.9189  0.2663
   57MOL   H11121503   3.845   1.366   0.704  0.6291  0.5991  0.1748
   57MOL   H11221504   3.877   1.531   0.531 -0.2797  0.8222  0.8695
   57MOL   H11321505   3.772   1.451   0.421  0.3934  0.7779  0.2085
   57MOL   H11421506   3.755   1.176   0.417  0.5691 -0.1583  2.3588
   57MOL   H11521507   3.890   1.259   0.329  1.5420  2.0415  2.4424
   57MOL   C11621508   3.666   1.543   0.574 -0.9627  0.7687 -0.1463
   57MOL   C11721509   3.675   1.597   0.711  0.4415 -1.1088  0.0099
   57MOL   C11821510   3.590   1.723   0.714 -0.1391  0.1834 -0.7231
   57MOL   C11921511   3.611   1.789   0.579  0.2985 -0.1759  0.1308
   57MOL   C12021512   3.712   1.905   0.566  0.1759  0.0208 -1.2345
   57MOL   C12121513   3.685   2.031   0.649 -0.1706 -0.1532 -0.0743
   57MOL   C12221514   3.643   1.669   0.491  0.7471 -0.1389 -0.2711
   57MOL   H12321515   3.585   1.471   0.566 -1.0575  0.8236  0.3043
   57MOL   H12421516   3.776   1.634   0.724  0.2445 -0.1068 -1.2495
   57MOL   H12521517   3.664   1.523   0.791  0.1048  0.0072  1.0267
   57MOL   H12621518   3.621   1.791   0.793  1.7468  1.4452 -2.4855
   57MOL   H12721519   3.488   1.686   0.722  0.7418 -2.2326 -0.4697
   57MOL   H12821520   3.519   1.840   0.549  1.0494  0.6149 -0.8455
   57MOL   H12921521   3.718   1.926   0.459  0.7550 -0.6973 -1.3451
   57MOL   H13021522   3.811   1.869   0.593 -2.0627 -3.8678  2.5751
   57MOL   H13121523   3.688   2.012   0.756  2.2160  0.3035 -0.0315
   57MOL   H13221524   3.584   2.068   0.629  0.4381  0.7959 -1.4843
   57MOL   H13321525   3.570   1.635   0.418 -0.9943  1.5845  0.6320
   57MOL   H13421526   3.720   1.703   0.422 -0.5440  1.9648 -0.6947
   57MOL   C13521527   3.780   2.151   0.621  0.2696 -0.2572  0.0377
   57MOL   C13621528   3.733   2.213   0.490 -0.4760 -0.1637  0.2166
   57MOL   C13721529   3.784   2.360   0.495  0.3914 -0.4881  0.1412
   57MOL   C13821530   3.746   2.394   0.638  0.5655  0.1021  0.2678
   57MOL   C13921531   3.799   2.529   0.683 -0.3952 -0.4871 -0.2678
   57MOL   C14021532   3.787   2.557   0.834 -0.1247  0.1418 -0.0210
   57MOL   C14121533   3.774   2.259   0.728 -0.3899 -0.3535 -0.1295
   57MOL   H14221534   3.885   2.125   0.612 -0.1882 -1.5578 -1.9304
   57MOL   H14321535   3.781   2.167   0.403  1.5036 -0.5624  1.4793
   57MOL   H14421536   3.624   2.214   0.494 -0.4343  1.5246  1.7170
   57MOL   H14521537   3.890   2.363   0.472 -0.2130 -1.2354 -3.0104
   57MOL   H14621538   3.728   2.423   0.426  1.5531 -0.1777 -0.5311
   57MOL   H14721539   3.639   2.418   0.633  0.5968  0.2980  0.5323
   57MOL   H14821540   3.748   2.614   0.637 -2.4441 -1.0526  0.8861
   57MOL   H14921541   3.904   2.537   0.655 -0.1422 -0.9248  0.5619
   57MOL   H15021542   3.683   2.562   0.867 -0.9002  0.8635 -2.5116
   57MOL   H15121543   3.835   2.479   0.893 -0.1793  1.1975  1.4309
   57MOL   H15221544   3.699   2.240   0.805 -0.4410  2.1459  0.4662
   57MOL   H15321545   3.870   2.255   0.779 -0.0536 -0.3059 -0.7609
   57MOL   C15421546   3.840   2.696   0.881 -0.4791 -0.2341  0.0989
   57MOL   C15521547   3.876   2.694   1.027 -0.4913  0.4993  0.5008
   57MOL   C15621548   3.794   2.804   1.095  0.3342  0.6290 -0.9610
   57MOL   C15721549   3.758   2.905   0.984  0.1866  1.2309  0.2735
   57MOL   C15821550   3.630   2.990   1.009  0.6189 -0.6471  0.0014
   57MOL   C15921551   3.590   3.074   0.882 -0.1858  0.4828  0.2540
   57MOL   C16021552   3.751   2.812   0.862 -0.5561 -0.2562 -0.2882
   57MOL   H16121553   3.933   2.710   0.826 -1.8701 -3.4866 -3.2519
   57MOL   H16221554   3.848   2.597   1.069 -1.9397 -0.2532 -2.0811
   57MOL   H16321555   3.985   2.699   1.038 -0.3124 -0.2930 -0.7405
   57MOL   H16421556   3.705   2.767   1.146  1.7221 -0.0437  1.0442
   57MOL   H16521557   3.846   2.865   1.169 -0.7182  1.9724 -1.3241
   57MOL   H16621558   3.839   2.976   0.965  0.9414  0.3286  0.1067
   57MOL   H16721559   3.640   3.052   1.098 -0.9533  0.9397 -0.8784
   57MOL   H16821560   3.549   2.922   1.035 -0.1985  0.5139  0.5355
   57MOL   H16921561   3.671   3.134   0.842  0.1016  1.1498  1.8007
   57MOL   H17021562   3.572   3.005   0.799 -1.0211 -0.6405  1.3394
   57MOL   H17121563   3.776   2.869   0.773 -1.1043 -0.4920 -0.5925
   57MOL   H17221564   3.652   2.772   0.844 -1.2606  0.8476  1.0299
   57MOL   C17321565   3.461   3.152   0.921 -0.2357  0.0181 -0.0542
   57MOL   C17421566   3.415   3.256   0.822  0.3028 -0.2975 -0.2075
   57MOL   C17521567   3.269   3.273   0.861 -0.5018  0.7561 -0.1157
   57MOL   C17621568   3.232   3.158   0.960 -0.4479 -0.7219 -0.8582
   57MOL   C17721569   3.091   3.103   0.933  0.2930  0.0530  0.5369
   57MOL   C17821570   3.055   2.984   1.021 -0.2108 -0.0214 -0.1641
   57MOL   C17921571   3.340   3.060   0.933 -0.9045  1.4541  0.2863
   57MOL   H18021572   3.482   3.201   1.016  0.2735  0.5364 -0.4366
   57MOL   H18121573   3.416   3.213   0.723 -4.7037 -2.2427  0.4205
   57MOL   H18221574   3.472   3.348   0.836 -2.3389  1.6002 -1.3565
   57MOL   H18321575   3.264   3.372   0.908 -1.8789 -0.1266  1.6777
   57MOL   H18421576   3.206   3.272   0.773 -0.5887  2.6755 -0.1029
   57MOL   H18521577   3.241   3.188   1.064  0.0885 -2.7204 -0.3087
   57MOL   H18621578   3.086   3.090   0.825  0.9399  1.0336  0.3761
   57MOL   H18721579   3.021   3.182   0.962 -0.8390 -0.1620 -1.5138
   57MOL   H18821580   3.074   3.010   1.125 -0.1350 -1.8105  0.2774
   57MOL   H18921581   3.123   2.905   0.989 -1.9488 -0.5077 -2.8123
   57MOL   H19021582   3.320   2.994   0.849  0.2470  3.1043 -1.3261
   57MOL   H19121583   3.346   2.992   1.018 -1.5715  0.6641 -0.2878
   57MOL   C19221584   2.908   2.942   1.009 -0.1243 -0.2906  0.4992
   57MOL   C19321585   2.886   2.842   1.119 -0.6561  0.0805  0.3628
   57MOL   C19421586   2.760   2.776   1.072 -0.1553 -0.3357  0.5513
   57MOL   C19521587   2.789   2.749   0.918  0.2582 -0.4051  0.2540
   57MOL   C19621588   2.662   2.726   0.834  0.4017 -0.0176 -0.0218
   57MOL   C19721589   2.615   2.590   0.863  0.3635  0.2337 -0.1264
   57MOL   C19821590   2.856   2.879   0.876  0.4115  1.1902 -0.1657
   57MOL   H19921591   2.848   3.029   1.036  1.1977  0.3078  1.6394
   57MOL   H20021592   2.965   2.767   1.121 -0.7089 -0.0305 -1.0185
   57MOL   H20121593   2.873   2.892   1.215  0.9525 -1.4717  1.4176
   57MOL   H20221594   2.678   2.848   1.075  0.6834  0.7114 -0.7878
   57MOL   H20321595   2.755   2.684   1.130  1.7676 -0.0178  1.2280
   57MOL   H20421596   2.859   2.667   0.898 -0.3503 -0.1099 -3.3252
   57MOL   H20521597   2.688   2.741   0.730 -0.7669 -0.0929 -0.3312
   57MOL   H20621598   2.591   2.804   0.865 -0.7047 -0.6072 -1.0575
   57MOL   H20721599   2.608   2.565   0.969 -3.2578  2.8368  0.3286
   57MOL   H20821600   2.689   2.521   0.822 -1.1362 -0.3793 -1.8700
   57MOL   H20921601   2.787   2.955   0.840  2.1095  2.1864 -1.4085
   57MOL   H21021602   2.938   2.869   0.805 -2.1961  0.9109 -3.2397
   57MOL   C21121603   2.488   2.547   0.793 -0.2608 -0.2830 -0.2777
   57MOL   C21221604   2.443   2.408   0.820  0.2244 -0.5585  0.1698
   57MOL   C21321605   2.364   2.351   0.701  0.3003  0.2080  0.3001
   57MOL   C21421606   2.358   2.476   0.610  0.3084  0.2835  0.9653
   57MOL   C21521607   2.328   2.459   0.457 -0.5176  0.3254  0.1327
   57MOL   C21621608   2.284   2.579   0.381  0.1789 -0.6781 -0.7397
   57MOL   C21721609   2.484   2.561   0.643  0.1426  0.4228  0.4796
   57MOL   H21821610   2.407   2.613   0.826 -0.1607  0.3816 -1.3382
   57MOL   H21921611   2.529   2.344   0.840  0.2369 -0.7815 -0.5817
   57MOL   H22021612   2.388   2.407   0.914 -0.4385 -1.7467 -0.2208
   57MOL   H22121613   2.419   2.270   0.654 -0.2057  0.8171 -1.3865
   57MOL   H22221614   2.272   2.305   0.737  1.1366 -1.0124  0.8768
   57MOL   H22321615   2.276   2.534   0.653 -2.0494 -2.5673  0.4266
   57MOL   H22421616   2.258   2.378   0.435  0.0097  0.2535 -1.3717
   57MOL   H22521617   2.428   2.439   0.417 -0.3396  1.5579 -0.0517
   57MOL   H22621618   2.339   2.672   0.399 -0.9407  0.0448 -1.0202
   57MOL   H22721619   2.323   2.561   0.281 -0.3397 -0.5641 -0.9651
   57MOL   H22821620   2.458   2.656   0.599 -0.0563 -0.1265 -0.5906
   57MOL   H22921621   2.571   2.516   0.594 -1.1664  3.0024 -4.4880
   57MOL   C23021622   2.134   2.617   0.382  0.2104 -0.3407 -0.2459
   57MOL   C23121623   2.088   2.688   0.250 -0.7817  0.0344  0.1380
   57MOL   C23221624   2.016   2.812   0.286  0.5284 -0.2932 -0.3065
   57MOL   C23321625   2.059   2.834   0.436  0.0622 -0.0752 -0.7192
   57MOL   C23421626   1.956   2.916   0.520 -0.1104 -0.4171  0.2006
   57MOL   C23521627   2.013   2.957   0.664 -0.1900 -0.3294 -0.0805
   57MOL   C23621628   2.088   2.703   0.501 -0.7297  0.4328 -0.4157
   57MOL   H23721629   2.082   2.521   0.385 -1.0915  0.3910  1.0864
   57MOL   H23821630   2.173   2.720   0.189  0.9221 -2.7977  0.9424
   57MOL   H23921631   2.028   2.629   0.181  0.8198 -0.5396 -0.7977
   57MOL   H24021632   1.911   2.785   0.290  0.2537  0.8551  0.3558
   57MOL   H24121633   2.042   2.891   0.215  1.4871  0.5685  0.9722
   57MOL   H24221634   2.157   2.877   0.421  1.1608 -2.4331 -0.5574
   57MOL   H24321635   1.864   2.860   0.532 -0.0373 -0.5659  0.0693
   57MOL   H24421636   1.935   3.012   0.473  0.6845 -0.5091 -0.3645
   57MOL   H24521637   2.072   2.879   0.712  1.3997  2.3591  2.5867
   57MOL   H24621638   2.094   3.030   0.656 -1.0985  0.6610 -0.4179
   57MOL   H24721639   1.997   2.649   0.525 -0.4112 -0.5382 -1.3788
   57MOL   H24821640   2.160   2.698   0.583  0.3512  0.7552 -1.3230
   57MOL   C24921641   1.911   3.004   0.764 -0.0577 -0.9229  0.2309
   57MOL   C25021642   1.775   2.932   0.769 -0.4503 -0.0415  0.5169
   57MOL   C25121643   1.724   2.925   0.912  0.4311 -0.5181  0.1046
   57MOL   C25221644   1.860   2.905   0.987 -0.7331  0.6200 -1.1349
   57MOL   C25321645   1.843   2.928   1.135  0.8896  0.0723 -0.2410
   57MOL   C25421646   1.743   2.836   1.201 -0.3133 -0.0730 -0.6949
   57MOL   C25521647   1.956   2.993   0.908 -0.0266 -0.3690  0.3978
   57MOL   H25621648   1.887   3.108   0.743  0.3840 -0.9856 -0.6126
   57MOL   H25721649   1.694   2.974   0.710  0.9356  1.0731 -0.6045
   57MOL   H25821650   1.798   2.829   0.742  1.3068 -0.0435  1.9008
   57MOL   H25921651   1.659   2.838   0.913 -1.7488  1.0669 -1.4778
   57MOL   H26021652   1.676   3.017   0.945 -1.3670 -1.2172 -0.5444
   57MOL   H26121653   1.901   2.807   0.964 -0.8776 -0.1872  1.8498
   57MOL   H26221654   1.802   3.028   1.148  0.2795 -0.1833 -0.1803
   57MOL   H26321655   1.938   2.928   1.189  0.5872  2.4056  0.3556
   57MOL   H26421656   1.770   2.733   1.180  4.5852  0.5692  1.6298
   57MOL   H26521657   1.644   2.857   1.160 -0.1536 -1.7583 -1.9588
   57MOL   H26621658   2.048   2.935   0.911 -0.2253 -0.8739 -1.8123
   57MOL   H26721659   1.976   3.085   0.962 -0.3177  0.8950 -1.5945
   57MOL   C26821660   1.715   2.858   1.351 -0.1010 -0.1558  0.0494
   57MOL   C26921661   1.844   2.866   1.440  0.4916  0.5206  0.4410
   57MOL   C27021662   1.799   2.808   1.570 -0.1841  0.2841  0.2446
   57MOL   C27121663   1.646   2.785   1.567  0.1790  0.2513  0.4150
   57MOL   C27221664   1.589   2.681   1.671  0.8650  0.1933 -0.1246
   57MOL   C27321665   1.432   2.668   1.666  0.3291 -0.0644  0.3890
   57MOL   C27421666   1.621   2.754   1.424  0.4553 -0.2014 -0.3685
   57MOL   H27521667   1.675   2.959   1.361  0.4376  0.3465 -2.4129
   57MOL   H27621668   1.915   2.795   1.396  1.5065  0.4698  2.1062
   57MOL   H27721669   1.888   2.964   1.457  1.6302 -0.3092  2.4050
   57MOL   H27821670   1.856   2.716   1.574  0.5916  0.7978  1.0092
   57MOL   H27921671   1.838   2.857   1.659 -0.7980 -0.2669  0.8229
   57MOL   H28021672   1.600   2.881   1.590  1.5582  1.1589 -0.5397
   57MOL   H28121673   1.606   2.718   1.772  0.5560 -0.1078  0.0368
   57MOL   H28221674   1.647   2.589   1.667  1.3806  0.4311  1.5787
   57MOL   H28321675   1.386   2.763   1.638  1.0796 -0.4813 -2.4041
   57MOL   H28421676   1.395   2.603   1.588 -1.3342  0.5020  0.6939
   57MOL   H28521677   1.653   2.651   1.408  1.6370 -0.3076  2.4328
   57MOL   H28621678   1.523   2.778   1.384 -0.0344 -1.6120 -0.0369
   57MOL   C28721679   1.376   2.608   1.796  0.3809  0.6437  0.0922
   57MOL   C28821680   1.224   2.628   1.805  0.0810 -0.4854  0.4466
   57MOL   C28921681   1.168   2.518   1.903 -0.1420  0.1396  0.2945
   57MOL   C29021682   1.286   2.420   1.939 -0.8868 -0.2333 -0.3663
   57MOL   C29121683   1.239   2.270   1.943 -0.2132 -0.1215 -0.3638
   57MOL   C29221684   1.122   2.239   2.043  0.3292 -0.2730 -0.2710
   57MOL   C29321685   1.394   2.449   1.826  0.2641  0.1425 -0.0273
   57MOL   H29421686   1.413   2.656   1.887 -1.0325 -1.8550  2.0330
   57MOL   H29521687   1.200   2.732   1.824 -1.7861 -1.2674  2.5534
   57MOL   H29621688   1.178   2.611   1.707  2.2602 -1.0656 -0.5064
   57MOL   H29721689   1.096   2.454   1.854 -1.2943  1.0380  0.7991
   57MOL   H29821690   1.114   2.556   1.990 -2.6891 -2.4891 -0.0806
   57MOL   H29921691   1.333   2.452   2.032 -1.0792  1.5877 -0.8614
   57MOL   H30021692   1.336   2.221   1.945 -0.6313 -0.9759 -0.6889
   57MOL   H30121693   1.201   2.245   1.844 -0.4947 -1.1602 -0.0020
   57MOL   H30221694   1.024   2.277   2.013 -0.9058 -1.5203  1.9892
   57MOL   H30321695   1.139   2.288   2.139  1.3020  0.3806 -0.7725
   57MOL   H30421696   1.354   2.393   1.742  0.4082 -0.5115  0.3325
   57MOL   H30521697   1.494   2.415   1.854  0.2804 -1.4450 -1.9471
   57MOL   C30621698   1.106   2.087   2.067  0.5561 -0.1302 -0.2084
   57MOL   C30721699   1.237   2.018   2.111 -0.2509  0.0235 -0.0889
   57MOL   C30821700   1.181   1.895   2.187 -0.1042  0.2137 -0.4744
   57MOL   C30921701   1.027   1.900   2.199 -0.0085  0.0361 -0.2654
   57MOL   C31021702   0.969   1.859   2.343 -0.9474  0.3355 -0.6199
   57MOL   C31121703   0.982   1.710   2.358  0.5569 -0.0580 -0.7440
   57MOL   C31221704   0.995   2.050   2.160  0.4806 -0.7535  0.4923
   57MOL   H31321705   1.069   2.063   1.967 -1.7497  0.8002  0.3819
   57MOL   H31421706   1.309   2.002   2.032 -0.1799  0.3595 -0.0922
   57MOL   H31521707   1.282   2.079   2.190 -0.0360 -1.9957  1.3812
   57MOL   H31621708   1.207   1.804   2.132  0.2848  0.9109 -1.4492
   57MOL   H31721709   1.230   1.892   2.285  1.4535 -3.1815 -1.2758
   57MOL   H31821710   0.983   1.836   2.122  2.8037 -0.9840 -1.0677
   57MOL   H31921711   1.012   1.922   2.421 -4.8870  1.1659  0.9749
   57MOL   H32021712   0.865   1.892   2.348 -1.0043  0.2092 -0.9503
   57MOL   H32121713   1.084   1.688   2.325  0.4420  0.2309 -1.3070
   57MOL   H32221714   0.904   1.673   2.291  1.1460 -1.4294 -0.6902
   57MOL   H32321715   1.008   2.113   2.248 -0.1239 -0.6123  0.4874
   57MOL   H32421716   0.896   2.065   2.116  0.7791 -1.2727 -0.3698
   57MOL   C32521717   0.963   1.659   2.505  0.3853 -0.0841  0.7959
   57MOL   C32621718   0.916   1.514   2.512 -0.1093  0.0816 -0.6323
   57MOL   C32721719   0.983   1.457   2.625 -0.0848  0.5405  0.4512
   57MOL   C32821720   1.123   1.523   2.627  0.0935  0.2646  0.0943
   57MOL   C32921721   1.194   1.496   2.754 -1.2107 -0.1522 -0.0551
   57MOL   C33021722   1.352   1.507   2.742 -1.0275  0.1836 -0.1146
   57MOL   C33121723   1.097   1.670   2.597  0.0546  0.0478  0.2442
   57MOL   H33221724   0.873   1.703   2.548 -1.0867 -2.2452  0.0186
   57MOL   H33321725   0.935   1.457   2.421  0.0935 -0.6142 -0.1532
   57MOL   H33421726   0.809   1.520   2.531  0.0436 -1.1338  0.7392
   57MOL   H33521727   0.938   1.497   2.716 -2.4289 -0.6744 -0.1189
   57MOL   H33621728   0.974   1.349   2.612 -0.4302  0.6575 -0.2933
   57MOL   H33721729   1.181   1.477   2.546 -1.4073  0.6418 -1.2020
   57MOL   H33821730   1.167   1.563   2.835  0.1229 -0.0532  0.3323
   57MOL   H33921731   1.171   1.393   2.783  2.6380 -1.0567  0.1810
   57MOL   H34021732   1.392   1.427   2.681  2.1933  1.1699  0.6362
   57MOL   H34121733   1.371   1.598   2.685  0.5452  1.0086  1.6885
   57MOL   H34221734   1.182   1.728   2.561  0.5298 -2.3080 -2.6301
   57MOL   H34321735   1.062   1.730   2.682  4.2273  2.3070  0.5028
   57MOL   C34421736   1.433   1.514   2.877  0.2743  0.3761 -0.1368
   57MOL   C34521737   1.587   1.527   2.885 -0.2771  0.4852 -0.0004
   57MOL   C34621738   1.612   1.508   3.035 -0.6119 -0.0803  0.3436
   57MOL   C34721739   1.513   1.400   3.072  0.5197 -0.0499 -1.1947
   57MOL   C34821740   1.468   1.412   3.224  0.5314  0.2130  0.3445
   57MOL   C34921741   1.372   1.296   3.262 -0.4341 -0.9598 -0.1118
   57MOL   C35021742   1.402   1.405   2.971 -0.0777 -0.0037  0.0577
   57MOL   H35121743   1.396   1.605   2.924 -0.9245 -0.7102  1.0977
   57MOL   H35221744   1.617   1.627   2.854 -1.2861  0.8682  0.2360
   57MOL   H35321745   1.643   1.451   2.830  1.0543 -0.6962  2.9021
   57MOL   H35421746   1.715   1.487   3.067 -0.2224  1.0330 -0.1589
   57MOL   H35521747   1.583   1.599   3.086 -1.0082  1.4341 -2.4588
   57MOL   H35621748   1.565   1.311   3.036 -0.1001  0.2780 -2.9263
   57MOL   H35721749   1.567   1.399   3.268 -1.1350 -0.7516  3.9693
   57MOL   H35821750   1.430   1.511   3.248  0.9819  0.5894 -0.4600
   57MOL   H35921751   1.425   1.202   3.248 -1.5183 -1.4426 -1.0533
   57MOL   H36021752   1.276   1.310   3.212 -0.2811  0.5312 -0.0283
   57MOL   H36121753   1.391   1.314   2.912 -1.5689 -0.8099  1.5199
   57MOL   H36221754   1.307   1.434   3.016  1.4098  0.2192  3.1762
   57MOL   C36321755   1.352   1.285   3.421 -0.1932 -0.3484 -0.4346
   57MOL   C36421756   1.259   1.170   3.457  0.3418 -1.0699  0.7597
   57MOL   C36521757   1.162   1.210   3.572 -0.2975 -0.3971  0.4993
   57MOL   C36621758   1.195   1.356   3.600  0.0648  0.0256 -0.2980
   57MOL   C36721759   1.076   1.450   3.631 -0.9597 -0.2400 -0.4482
   57MOL   C36821760   1.030   1.440   3.772  0.1105  0.3617  0.6707
   57MOL   C36921761   1.280   1.402   3.484 -0.3386 -1.0412  0.2554
   57MOL   H37021762   1.446   1.278   3.475 -0.3379 -2.8292 -0.4455
   57MOL   H37121763   1.198   1.156   3.368  2.7889  2.0579 -1.5224
   57MOL   H37221764   1.308   1.073   3.470 -2.8374 -2.7879  0.3039
   57MOL   H37321765   1.059   1.209   3.535 -0.7830  1.1353  1.7716
   57MOL   H37421766   1.168   1.161   3.669 -3.5768  0.5481  1.2362
   57MOL   H37521767   1.264   1.355   3.684  1.9626 -1.9203 -1.8192
   57MOL   H37621768   1.101   1.555   3.618  0.3199 -0.3314  1.1771
   57MOL   H37721769   0.987   1.426   3.573 -0.5312 -1.4302 -0.6250
   57MOL   H37821770   1.015   1.335   3.797 -1.7924  0.2493 -0.8064
   57MOL   H37921771   0.933   1.484   3.797 -1.3137 -1.2738 -1.7704
   57MOL   H38021772   1.208   1.445   3.414  0.5227  0.3774  0.2182
   57MOL   H38121773   1.343   1.485   3.517  0.9059 -1.8610 -0.0423
   57MOL   H38221774   1.104   1.480   3.841  1.3484  0.1989 -0.5441
   58MOL     C121775   4.723   2.264   1.545  0.2188 -0.6429 -0.0290
   58MOL     C221776   4.645   2.159   1.619  0.6677  0.3486  0.6826
   58MOL     C321777   4.660   2.201   1.772  0.0667  0.4736 -0.5031
   58MOL     C421778   4.639   2.351   1.756  0.2202 -0.1476  0.6252
   58MOL     C521779   4.682   2.428   1.881  0.1023 -0.0547 -0.1313
   58MOL     C621780   4.561   2.417   1.979  0.2243 -0.2491 -0.2461
   58MOL     C721781   4.707   2.394   1.627  0.4530  0.7944 -0.2875
   58MOL     H821782   4.821   2.219   1.530  0.3354  0.0481 -1.4243
   58MOL     H921783   4.695   2.063   1.606 -1.2820 -0.8810  2.0193
   58MOL    H1021784   4.547   2.159   1.571  0.8785 -0.4388  0.2344
   58MOL    H1121785   4.588   2.153   1.839  1.2932  0.5872  0.9338
   58MOL    H1221786   4.760   2.170   1.802 -0.7819 -2.1498 -0.1749
   58MOL    H1321787   4.532   2.367   1.741  0.3445 -1.2108 -1.5442
   58MOL    H1421788   4.778   2.405   1.928 -0.1747  0.5875  0.7491
   58MOL    H1521789   4.678   2.534   1.857 -3.0129  0.8296  3.8046
   58MOL    H1621790   4.462   2.440   1.942 -0.0342  1.6872  1.5246
   58MOL    H1721791   4.546   2.314   2.010 -0.3154  0.1193  0.7640
   58MOL    H1821792   4.648   2.469   1.574 -2.6505 -0.1796  1.6648
   58MOL    H1921793   4.801   2.443   1.654  0.0526  1.4645 -0.0945
   58MOL    H2021794   4.682   2.273   1.445 -0.8704  0.0996  0.4823
   58MOL    C2121795   4.574   2.510   2.102 -0.1389 -0.8252  0.2277
   58MOL    C2221796   4.569   2.664   2.064 -0.2635  0.1700  0.3894
   58MOL    C2321797   4.517   2.738   2.194  0.0196 -0.7992  0.4264
   58MOL    C2421798   4.459   2.634   2.283 -0.0379  0.4353 -0.5233
   58MOL    C2521799   4.319   2.671   2.342 -0.0875  0.0619 -0.1188
   58MOL    C2621800   4.311   2.802   2.432  0.5454 -0.3554 -0.4026
   58MOL    C2721801   4.458   2.499   2.201  0.3376 -0.2206 -0.4123
   58MOL    H2821802   4.661   2.498   2.167 -0.4255  0.9932  0.9707
   58MOL    H2921803   4.662   2.692   2.015 -0.8390  0.3035 -0.6577
   58MOL    H3021804   4.494   2.680   1.986  0.7824  0.2528 -0.6180
   58MOL    H3121805   4.596   2.802   2.234  1.2118 -1.3320 -1.0026
   58MOL    H3221806   4.437   2.806   2.164  0.0094 -1.6191 -1.4783
   58MOL    H3321807   4.528   2.626   2.368 -0.1901  3.6746 -0.0600
   58MOL    H3421808   4.289   2.588   2.406  0.9531 -1.6960 -1.8746
   58MOL    H3521809   4.240   2.672   2.266  0.2513  0.1596 -0.4715
   58MOL    H3621810   4.342   2.887   2.371 -2.7371  0.4694 -0.9825
   58MOL    H3721811   4.387   2.814   2.509  1.5012 -0.8612 -1.2454
   58MOL    H3821812   4.475   2.407   2.257 -1.4928 -1.0256 -1.1518
   58MOL    H3921813   4.364   2.496   2.146  1.1699 -0.4989 -1.8450
   58MOL    C4021814   4.170   2.830   2.491  0.3384  0.3081 -0.2113
   58MOL    C4121815   4.158   2.953   2.577 -0.1700 -0.2739 -0.2929
   58MOL    C4221816   4.006   2.985   2.578 -0.2759  0.6511  0.1731
   58MOL    C4321817   3.949   2.923   2.446 -0.6792  0.2951  0.4161
   58MOL    C4421818   3.839   2.828   2.487  0.1890 -0.3554 -1.0113
   58MOL    C4521819   3.705   2.907   2.525 -0.1768  1.5327 -0.0657
   58MOL    C4621820   4.068   2.856   2.380 -0.5970  0.0266  0.1010
   58MOL    H4721821   4.138   2.745   2.552  0.8412  0.0342 -0.3346
   58MOL    H4821822   4.218   3.032   2.530 -0.1476 -0.9185 -1.3622
   58MOL    H4921823   4.194   2.955   2.680  3.2672  1.7976 -1.4175
   58MOL    H5021824   3.950   2.942   2.661  1.0164  0.9861  1.2313
   58MOL    H5121825   3.989   3.092   2.585  0.1261  0.7241  0.0529
   58MOL    H5221826   3.910   3.003   2.383 -1.5071 -0.5758 -0.1877
   58MOL    H5321827   3.806   2.758   2.410 -1.2018 -1.6318  0.7143
   58MOL    H5421828   3.858   2.768   2.576  1.8686 -0.0265 -1.1276
   58MOL    H5521829   3.661   2.955   2.437 -0.3813  0.4674 -0.5542
   58MOL    H5621830   3.716   2.991   2.593 -0.8407  0.0012  1.9883
   58MOL    H5721831   4.055   2.770   2.314  3.0680  0.2740 -1.0387
   58MOL    H5821832   4.113   2.931   2.315 -0.6049 -0.3118 -0.2996
   58MOL    C5921833   3.588   2.815   2.563  0.0095 -0.2529 -0.1252
   58MOL    C6021834   3.475   2.895   2.620 -0.4268  0.0544 -0.4179
   58MOL    C6121835   3.356   2.803   2.589 -0.6031 -0.0510  0.5762
   58MOL    C6221836   3.384   2.763   2.448 -0.1381  0.4554  0.5055
   58MOL    C6321837   3.308   2.636   2.388 -0.1583 -0.8858  0.6938
   58MOL    C6421838   3.173   2.676   2.335 -0.0698 -1.1145 -0.1145
   58MOL    C6521839   3.532   2.732   2.451  0.1230 -0.0119 -0.6238
   58MOL    H6621840   3.611   2.749   2.647  2.6014  0.4906 -0.2010
   58MOL    H6721841   3.478   2.920   2.726 -1.4077  3.0124 -1.0561
   58MOL    H6821842   3.469   2.988   2.564 -0.1049  0.0167 -0.5188
   58MOL    H6921843   3.370   2.717   2.655  3.1246  1.7403  2.2560
   58MOL    H7021844   3.256   2.844   2.602 -0.4232  0.5798 -0.0512
   58MOL    H7121845   3.366   2.852   2.388  0.4282  1.1987  1.4125
   58MOL    H7221846   3.294   2.564   2.469  2.0093 -0.8369  1.1341
   58MOL    H7321847   3.361   2.589   2.304 -0.1009 -0.7861  0.6744
   58MOL    H7421848   3.129   2.737   2.414 -1.6978 -0.1268 -1.7396
   58MOL    H7521849   3.184   2.733   2.243  0.8181  0.9283  1.2193
   58MOL    H7621850   3.552   2.625   2.457 -0.2295  0.0112  1.0560
   58MOL    H7721851   3.575   2.766   2.356  0.2758  1.2326 -0.1298
   58MOL    C7821852   3.086   2.553   2.321 -0.2867 -0.1264 -0.7568
   58MOL    C7921853   2.945   2.579   2.292 -0.2710  0.3053  0.7697
   58MOL    C8021854   2.893   2.439   2.256 -0.1325  0.0356 -0.6215
   58MOL    C8121855   3.006   2.360   2.192  0.0479 -0.6705  0.3041
   58MOL    C8221856   2.979   2.322   2.047  0.3202  0.2106  0.0441
   58MOL    C8321857   2.891   2.199   2.030  0.3264 -0.0248 -0.4081
   58MOL    C8421858   3.130   2.444   2.223  0.6569  0.7484  0.1938
   58MOL    H8521859   3.084   2.506   2.419  0.4973 -0.0316 -0.6864
   58MOL    H8621860   2.885   2.628   2.368 -1.0892 -2.3653  1.9195
   58MOL    H8721861   2.946   2.647   2.207 -0.3526 -1.2129 -0.4886
   58MOL    H8821862   2.868   2.382   2.345  2.0722  0.8280  0.5416
   58MOL    H8921863   2.810   2.437   2.185  0.7435 -0.8295 -1.6501
   58MOL    H9021864   3.005   2.267   2.249  0.9623  0.0271  1.4826
   58MOL    H9121865   3.079   2.297   2.012  0.9638  3.5690 -0.6053
   58MOL    H9221866   2.944   2.411   1.996  1.0559 -0.3274 -1.4063
   58MOL    H9321867   2.792   2.227   2.067  1.3006  1.4082  1.1855
   58MOL    H9421868   2.924   2.116   2.092 -1.2883  1.0580  1.9929
   58MOL    H9521869   3.152   2.489   2.127 -0.5372  1.5262  0.2768
   58MOL    H9621870   3.206   2.373   2.257 -0.6995  0.2900  2.4088
   58MOL    C9721871   2.865   2.154   1.891 -0.1892  0.9046  0.7948
   58MOL    C9821872   2.738   2.092   1.864  0.2658  0.6705 -0.0269
   58MOL    C9921873   2.759   2.013   1.727 -0.1466  0.5736 -0.0819
   58MOL   C10021874   2.912   1.991   1.711  0.3594 -0.7187  0.1882
   58MOL   C10121875   2.971   1.850   1.670  0.2588  0.2676 -0.1869
   58MOL   C10221876   3.117   1.839   1.630 -0.3247  0.0472 -0.0998
   58MOL   C10321877   2.970   2.051   1.846 -0.0447  0.8065  0.5216
   58MOL   H10421878   2.869   2.232   1.815 -1.3328  0.4636  0.2747
   58MOL   H10521879   2.713   2.020   1.942 -2.3910  0.5234 -0.9409
   58MOL   H10621880   2.665   2.173   1.868  1.0450  1.4531 -1.4073
   58MOL   H10721881   2.706   1.917   1.729 -0.5748  0.7743 -1.1258
   58MOL   H10821882   2.718   2.076   1.647  0.7371 -1.6330 -2.3641
   58MOL   H10921883   2.927   2.067   1.635  0.9905 -1.5865 -0.5657
   58MOL   H11021884   2.949   1.780   1.750  2.5924 -2.1226 -1.5389
   58MOL   H11121885   2.917   1.803   1.588  0.1181  2.2118 -1.2606
   58MOL   H11221886   3.187   1.870   1.707 -1.2254  2.3018 -0.1445
   58MOL   H11321887   3.131   1.735   1.599  1.4203  0.2460 -0.0055
   58MOL   H11421888   2.990   1.965   1.909  0.3163  1.4198  1.2441
   58MOL   H11521889   3.064   2.106   1.845  1.5721 -1.8365  0.8149
   58MOL   C11621890   3.157   1.931   1.513  0.1528 -0.1277 -0.2863
   58MOL   C11721891   3.180   2.080   1.544  0.2711  0.0330  0.5068
   58MOL   C11821892   3.302   2.133   1.457  0.1710  0.3066  0.6150
   58MOL   C11921893   3.349   2.006   1.377 -0.1479 -0.0053  0.7735
   58MOL   C12021894   3.500   2.004   1.334  0.0584  0.6469 -0.1833
   58MOL   C12121895   3.551   2.132   1.286  0.0767  0.2730 -0.5443
   58MOL   C12221896   3.284   1.887   1.447 -0.4871 -0.2719  0.0794
   58MOL   H12321897   3.082   1.926   1.434  2.0350 -0.5647 -2.0843
   58MOL   H12421898   3.207   2.091   1.650  0.0508  0.3401  0.5337
   58MOL   H12521899   3.097   2.147   1.521  2.4168  1.7018 -2.6068
   58MOL   H12621900   3.391   2.158   1.515  1.5851 -1.4884 -0.7016
   58MOL   H12721901   3.272   2.219   1.397  1.3936  0.5893  0.3915
   58MOL   H12821902   3.291   2.016   1.285  0.0985  1.7682  0.7945
   58MOL   H12921903   3.510   1.936   1.249  0.3056 -0.7529  0.9438
   58MOL   H13021904   3.555   1.957   1.415 -2.0384 -0.6886  0.5285
   58MOL   H13121905   3.559   2.210   1.362  0.5674 -0.4044  0.0965
   58MOL   H13221906   3.482   2.168   1.208  0.3263  0.8408 -0.5071
   58MOL   H13321907   3.254   1.802   1.385  1.7915 -1.1750  0.1518
   58MOL   H13421908   3.343   1.850   1.531 -3.3584 -3.1533  0.9174
   58MOL   C13521909   3.692   2.130   1.237  0.4955  0.1731 -0.3916
   58MOL   C13621910   3.750   2.273   1.203 -0.1355 -0.7305  0.2932
   58MOL   C13721911   3.903   2.255   1.186 -0.5130  0.2017 -0.2140
   58MOL   C13821912   3.931   2.129   1.276 -0.1565 -0.9152 -0.6796
   58MOL   C13921913   4.015   2.024   1.192 -0.7656 -0.0321 -1.1466
   58MOL   C14021914   3.944   1.962   1.075  0.8131 -0.7126 -0.5519
   58MOL   C14121915   3.802   2.084   1.340  0.1393  0.3818 -1.1507
   58MOL   H14221916   3.697   2.077   1.142  3.9852 -0.6089  0.1602
   58MOL   H14321917   3.697   2.311   1.115  0.3549  1.6203  0.9797
   58MOL   H14421918   3.739   2.346   1.283 -0.6236  0.6778 -1.0295
   58MOL   H14521919   3.930   2.236   1.082  1.4982  0.5311  0.2173
   58MOL   H14621920   3.962   2.344   1.210  0.8295 -0.7392  0.0915
   58MOL   H14721921   3.998   2.164   1.356  1.2377 -0.6041 -1.9505
   58MOL   H14821922   4.041   1.946   1.264  1.5934  1.4931 -0.2721
   58MOL   H14921923   4.105   2.072   1.152  0.4760 -1.2518  0.1311
   58MOL   H15021924   3.851   1.910   1.097 -0.1049  1.7103  1.4665
   58MOL   H15121925   3.911   2.043   1.010 -3.2127 -1.4037  0.5204
   58MOL   H15221926   3.789   2.129   1.438 -1.4792  0.6606 -1.4867
   58MOL   H15321927   3.799   1.978   1.367 -0.6108  1.0064  1.3647
   58MOL   C15421928   4.030   1.872   0.983 -0.5137  0.2818 -0.1964
   58MOL   C15521929   3.970   1.861   0.841 -0.2379 -0.6196 -0.4116
   58MOL   C15621930   4.071   1.756   0.788  0.4281 -0.3471  0.2381
   58MOL   C15721931   4.115   1.665   0.901 -0.3666  0.5509  0.0857
   58MOL   C15821932   4.060   1.529   0.880  0.3378 -0.2838 -0.4754
   58MOL   C15921933   4.114   1.446   0.762 -1.0501 -0.1598 -0.3176
   58MOL   C16021934   4.058   1.727   1.026 -0.4526  0.3719 -0.4056
   58MOL   H16121935   4.126   1.921   0.968 -0.0370 -0.2361  1.1230
   58MOL   H16221936   3.869   1.819   0.842 -0.7744  0.6244  1.4633
   58MOL   H16321937   3.967   1.953   0.783  1.1183  0.5708  1.3428
   58MOL   H16421938   4.034   1.694   0.707 -3.0801  1.5760  0.2849
   58MOL   H16521939   4.149   1.809   0.733  1.6066 -2.0820  0.2170
   58MOL   H16621940   4.223   1.657   0.912 -0.5230 -2.2635 -0.0185
   58MOL   H16721941   3.953   1.535   0.899  0.9942  0.1340  3.5931
   58MOL   H16821942   4.093   1.485   0.974  0.0795  1.6181  0.5227
   58MOL   H16921943   4.091   1.342   0.784  1.0582 -0.3331  1.3769
   58MOL   H17021944   4.075   1.462   0.662  0.5461 -0.5192 -1.0196
   58MOL   H17121945   4.119   1.716   1.115 -0.2340  1.1801 -0.4438
   58MOL   H17221946   3.960   1.687   1.051  0.6741 -1.4833  1.2039
   58MOL   C17321947   4.262   1.447   0.738 -0.9404 -0.3416 -0.5633
   58MOL   C17421948   4.342   1.390   0.853 -0.7515  0.1120  0.4001
   58MOL   C17521949   4.477   1.353   0.790 -0.8878  0.1174 -0.5870
   58MOL   C17621950   4.457   1.328   0.639  0.0530  0.4225  0.0710
   58MOL   C17721951   4.492   1.180   0.599  0.3885  0.0401  0.0521
   58MOL   C17821952   4.638   1.140   0.627  0.6280 -0.6851  0.3059
   58MOL   C17921953   4.311   1.358   0.614  0.1368 -0.2065 -0.6699
   58MOL   H18021954   4.304   1.546   0.722  1.0379 -0.9506  0.7467
   58MOL   H18121955   4.289   1.302   0.889 -0.4206  0.3778  1.5484
   58MOL   H18221956   4.353   1.467   0.929  0.6242  1.1558 -0.8254
   58MOL   H18321957   4.542   1.441   0.791  1.6574 -1.6813 -2.1643
   58MOL   H18421958   4.531   1.273   0.841  1.0883  0.5022 -2.0390
   58MOL   H18521959   4.518   1.392   0.575 -1.4255  2.8833  1.0464
   58MOL   H18621960   4.480   1.168   0.491 -3.0847  0.0544  0.3831
   58MOL   H18721961   4.430   1.102   0.643  1.5829 -0.6437  0.5438
   58MOL   H18821962   4.650   1.111   0.731  2.6855  0.5741  0.4385
   58MOL   H18921963   4.705   1.218   0.592 -3.0823  2.2644 -0.4824
   58MOL   H19021964   4.253   1.266   0.613 -2.2147  1.2692 -1.8962
   58MOL   H19121965   4.302   1.411   0.520 -0.2320 -0.2107 -0.6366
   58MOL   C19221966   4.680   1.019   0.540  0.5750  0.2790 -0.1380
   58MOL   C19321967   4.591   0.901   0.559 -0.0407 -0.4439  0.1284
   58MOL   C19421968   4.681   0.782   0.575 -0.2525  0.3482 -0.1455
   58MOL   C19521969   4.809   0.840   0.647  1.4638  0.3226  0.2829
   58MOL   C19621970   4.930   0.745   0.629 -0.7454  0.2798 -0.0901
   58MOL   C19721971   5.050   0.776   0.721 -0.1356 -0.0188 -0.0252
   58MOL   C19821972   4.826   0.974   0.577  0.4455  0.3832  0.5945
   58MOL   H19921973   4.683   1.039   0.432 -0.6745 -3.2740 -0.8784
   58MOL   H20021974   4.545   0.911   0.658  1.7913  1.1789  0.8309
   58MOL   H20121975   4.517   0.895   0.479 -0.8275  1.9735  0.6439
   58MOL   H20221976   4.699   0.742   0.475 -0.6789  0.5921 -0.3200
   58MOL   H20321977   4.633   0.713   0.643  0.7111  1.0856  1.3078
   58MOL   H20421978   4.785   0.853   0.753  2.2082  2.1641  0.2282
   58MOL   H20521979   4.961   0.744   0.524 -2.0029  0.7236 -0.4744
   58MOL   H20621980   4.888   0.645   0.641 -1.5898  0.6700  0.2659
   58MOL   H20721981   5.008   0.778   0.822  1.1689  0.6648  0.5159
   58MOL   H20821982   5.087   0.878   0.712  0.0314 -0.0323  0.4560
   58MOL   H20921983   4.879   0.964   0.482 -0.5500 -0.1967  0.0890
   58MOL   H21021984   4.879   1.043   0.642  0.9227  0.2135  0.3879
   58MOL   C21121985   5.173   0.682   0.714  0.4583 -0.3660 -0.1454
   58MOL   C21221986   5.275   0.712   0.814 -0.4646  0.1148 -0.0836
   58MOL   C21321987   5.391   0.618   0.782 -0.3543  0.0824 -0.7091
   58MOL   C21421988   5.376   0.589   0.629 -0.1999  0.3377  0.0314
   58MOL   C21521989   5.498   0.616   0.547 -0.0270 -0.4222  0.4865
   58MOL   C21621990   5.603   0.506   0.570  0.0120 -0.2954  0.2157
   58MOL   C21721991   5.256   0.674   0.585 -0.1229 -0.2065  0.1154
   58MOL   H21821992   5.133   0.583   0.734  1.1335 -0.2613  1.7727
   58MOL   H21921993   5.298   0.818   0.814 -0.0449  0.0417 -1.3629
   58MOL   H22021994   5.225   0.683   0.906  1.4336  1.4677  1.3954
   58MOL   H22121995   5.486   0.667   0.803 -1.9120  2.9033 -0.0004
   58MOL   H22221996   5.380   0.527   0.841  1.3111 -0.4227 -1.1573
   58MOL   H22321997   5.351   0.485   0.607 -1.8624  0.3158  1.9655
   58MOL   H22421998   5.529   0.719   0.562 -2.2886  0.3763  0.0383
   58MOL   H22521999   5.477   0.613   0.440  0.8264 -2.4996  0.3625
   58MOL   H22622000   5.610   0.465   0.671  1.4235 -1.5417 -0.3752
   58MOL   H22722001   5.556   0.423   0.517 -0.8736  0.3057  0.0386
   58MOL   H22822002   5.205   0.645   0.494 -2.6745 -1.3420  1.8539
   58MOL   H22922003   5.288   0.778   0.576 -0.8788 -0.0855 -1.2950
   58MOL   C23022004   5.736   0.544   0.511 -0.1604  0.1585  0.0598
   58MOL   C23122005   5.820   0.420   0.503 -0.1829 -0.4539 -0.1200
   58MOL   C23222006   5.962   0.476   0.482 -0.3365 -1.0468 -0.2961
   58MOL   C23322007   5.963   0.601   0.572 -0.2349 -0.5243  0.3703
   58MOL   C23422008   6.058   0.714   0.518 -0.1129 -0.3336 -1.0121
   58MOL   C23522009   6.079   0.833   0.610 -0.1331 -0.2536  0.7073
   58MOL   C23622010   5.819   0.650   0.584 -0.5925 -0.1126  0.7290
   58MOL   H23722011   5.725   0.575   0.407  1.9240 -0.4127 -0.3446
   58MOL   H23822012   5.826   0.363   0.596  0.8923  0.2082  0.2198
   58MOL   H23922013   5.788   0.353   0.423 -1.7796 -0.5214  0.5452
   58MOL   H24022014   5.969   0.524   0.385 -1.8475 -2.7182 -1.2421
   58MOL   H24122015   6.049   0.413   0.502  0.7185  0.3133 -0.5188
   58MOL   H24222016   6.000   0.574   0.671  1.9682 -0.2348 -0.3389
   58MOL   H24322017   6.039   0.755   0.418  1.7565 -0.9375 -1.6272
   58MOL   H24422018   6.156   0.666   0.515 -0.5620 -1.2557 -1.0376
   58MOL   H24522019   5.981   0.877   0.628 -0.0936 -0.3817  1.2285
   58MOL   H24622020   6.109   0.805   0.711 -2.6613  0.0029  1.5628
   58MOL   H24722021   5.803   0.747   0.537 -1.5632 -0.0515  1.1690
   58MOL   H24822022   5.786   0.666   0.686  0.3691 -0.4885  1.1044
   58MOL   C24922023   6.166   0.945   0.540 -0.2220  0.0880  0.8151
   58MOL   C25022024   6.174   1.079   0.613  0.4226  0.3248  0.0370
   58MOL   C25122025   6.287   1.148   0.526  0.0766 -0.1331  0.3965
   58MOL   C25222026   6.378   1.038   0.475  0.2543  0.6874  0.3857
   58MOL   C25322027   6.408   1.045   0.326  0.1296  0.1679  0.2735
   58MOL   C25422028   6.478   1.179   0.283 -0.0132  0.2309 -0.1006
   58MOL   C25522029   6.311   0.909   0.508 -0.2984  0.3254 -0.0154
   58MOL   H25622030   6.126   0.966   0.441  1.8496 -1.1824 -0.3261
   58MOL   H25722031   6.084   1.140   0.610  1.4341  1.9496  1.5419
   58MOL   H25822032   6.201   1.065   0.718 -0.4646  1.3798  0.4128
   58MOL   H25922033   6.339   1.226   0.581  1.0680 -1.1978  0.9861
   58MOL   H26022034   6.228   1.203   0.453  0.6215 -0.0452  0.0259
   58MOL   H26122035   6.467   1.052   0.536 -0.1969  1.7606  0.8240
   58MOL   H26222036   6.309   1.049   0.281  1.2745 -0.8821 -2.4169
   58MOL   H26322037   6.472   0.961   0.297  0.5858  0.6988 -0.2640
   58MOL   H26422038   6.582   1.170   0.315  0.1155 -1.0655 -0.8614
   58MOL   H26522039   6.425   1.266   0.322 -0.7673 -0.7158  1.0055
   58MOL   H26622040   6.363   0.863   0.593 -0.0173  0.3793 -0.1577
   58MOL   H26722041   6.304   0.844   0.421 -1.5127 -0.7164  0.8251
   58MOL   C26822042   6.499   1.185   0.130  0.1421 -0.6064 -0.0100
   58MOL   C26922043   6.546   1.319   0.079  0.2000  0.4640  0.5133
   58MOL   C27022044   6.521   1.321   7.574 -0.6297 -0.5911  0.1739
   58MOL   C27122045   6.387   1.253   7.569  0.1286  0.3597  0.2243
   58MOL   C27222046   6.271   1.345   7.530  0.4038  0.2519  0.7280
   58MOL   C27322047   6.242   1.461   7.618 -0.7814  0.0360  0.2792
   58MOL   C27422048   6.373   1.160   0.042  0.2670  0.8636  0.6878
   58MOL   H27522049   6.575   1.115   0.096  3.4101  1.7924  1.9384
   58MOL   H27622050   6.491   1.401   0.126  0.4626  0.5787  0.6221
   58MOL   H27722051   6.653   1.325   0.097  0.2237 -2.0356  1.4380
   58MOL   H27822052   6.530   1.424   7.539  0.2563 -0.8413 -0.3483
   58MOL   H27922053   6.603   1.263   7.532  0.4042  0.7451  0.2988
   58MOL   H28022054   6.401   1.181   7.489  2.4175  1.1038 -0.0593
   58MOL   H28122055   6.182   1.287   7.507  1.0841 -0.6082  0.2117
   58MOL   H28222056   6.299   1.372   7.428  2.6794 -0.5941  1.0965
   58MOL   H28322057   6.213   1.410   0.062  0.1197  1.8249  1.5923
   58MOL   H28422058   6.338   1.512   7.627 -1.0080  0.2402  1.5133
   58MOL   H28522059   6.279   1.181   0.092 -0.1370 -2.7807  1.6209
   58MOL   H28622060   6.362   1.057   0.009  0.1486  1.3166 -0.6955
   58MOL   C28722061   6.123   1.538   7.559  0.1494 -0.5050  0.4656
   58MOL   C28822062   6.037   1.626   0.000 -0.0875 -0.6401  0.1930
   58MOL   C28922063   5.995   1.752   7.571  1.3463 -0.6439 -1.0180
   58MOL   C29022064   6.073   1.748   7.441 -0.5296 -0.1437 -0.5755
   58MOL   C29122065   6.118   1.883   7.392 -0.0725 -0.1787  0.4156
   58MOL   C29222066   6.010   1.980   7.350 -0.1022 -0.0898  0.3237
   58MOL   C29322067   6.179   1.639   7.452 -0.1245  0.0431  0.4657
   58MOL   H29422068   6.052   1.469   7.512 -0.8449 -0.1181  1.4040
   58MOL   H29522069   5.954   1.570   0.043 -2.1758 -0.1876 -3.0994
   58MOL   H29622070   6.096   1.656   0.087  1.6022 -1.5370 -0.6117
   58MOL   H29722071   6.022   1.836   7.635  1.1285 -0.2381 -1.4511
   58MOL   H29822072   5.891   1.757   7.536  0.7454  2.4498  1.0251
   58MOL   H29922073   6.008   1.709   7.363 -0.4772  0.4172 -0.9092
   58MOL   H30022074   6.177   1.881   7.300  1.9621  2.6133  1.5789
   58MOL   H30122075   6.184   1.928   7.466 -0.1280  2.8844 -1.3090
   58MOL   H30222076   5.941   1.975   7.434  0.0811 -0.4582  0.4535
   58MOL   H30322077   5.959   1.955   7.257  0.1902  2.2553 -0.4872
   58MOL   H30422078   6.267   1.692   7.490  1.0415 -0.7256 -1.1291
   58MOL   H30522079   6.215   1.596   7.359  0.6354  1.3696  0.1235
   58MOL   C30622080   6.053   2.119   7.343 -0.4582 -0.1602 -0.3416
   58MOL   C30722081   6.152   2.143   7.230  0.4556 -0.2068 -0.1012
   58MOL   C30822082   6.169   2.288   7.241  0.4374 -0.1138 -0.3603
   58MOL   C30922083   6.033   2.351   7.288  0.7939  0.0210 -0.3621
   58MOL   C31022084   5.957   2.432   7.180  0.1289  0.2767 -0.2946
   58MOL   C31122085   6.026   2.565   7.148  0.9096  1.0234 -0.4696
   58MOL   C31222086   5.947   2.229   7.322  0.2554 -0.4801 -0.3811
   58MOL   H31322087   6.092   2.144   7.442  0.8460 -2.2474 -0.2883
   58MOL   H31422088   6.247   2.090   7.223  0.6322 -0.4492  3.3367
   58MOL   H31522089   6.110   2.115   7.133 -0.2427  2.9584 -0.7574
   58MOL   H31622090   6.248   2.311   7.313  1.1980 -0.3522 -1.1181
   58MOL   H31722091   6.195   2.332   7.145  2.1270  0.0933  0.1776
   58MOL   H31822092   6.068   2.410   7.373  2.5114  1.2105 -1.8275
   58MOL   H31922093   5.931   2.376   7.091  1.6451 -1.8013  0.5277
   58MOL   H32022094   5.860   2.465   7.217  0.5867  2.5479 -1.0190
   58MOL   H32122095   6.120   2.543   7.099  0.3139 -0.0566 -1.1358
   58MOL   H32222096   6.056   2.610   7.243  0.2159  1.2690 -0.3652
   58MOL   H32322097   5.889   2.202   7.234 -1.4609  0.5601  0.4313
   58MOL   H32422098   5.882   2.237   7.408  1.2499 -1.5474  0.4965
   58MOL   C32522099   5.961   2.668   7.057 -0.5628 -0.2024 -0.3585
   58MOL   C32622100   5.838   2.730   7.119 -0.2284  0.3001  0.1460
   58MOL   C32722101   5.823   2.869   7.059  0.5123  0.2308  1.0217
   58MOL   C32822102   5.963   2.917   7.060  0.8503 -0.0187  0.3616
   58MOL   C32922103   5.991   3.038   6.971  0.6463  0.8872 -0.5602
   58MOL   C33022104   5.929   3.173   7.023 -0.6687  0.0207  0.5686
   58MOL   C33122105   6.049   2.793   7.030 -0.5881  0.0801 -0.0558
   58MOL   H33222106   5.941   2.621   6.961 -3.3588 -0.8039  0.4748
   58MOL   H33322107   5.855   2.723   7.226 -0.3454 -1.6783  0.0587
   58MOL   H33422108   5.749   2.678   7.083 -0.5463  1.2508 -0.4676
   58MOL   H33522109   5.784   2.868   6.958  1.3632 -0.3355  0.6941
   58MOL   H33622110   5.769   2.936   7.127  0.0971  0.0116  0.9031
   58MOL   H33722111   5.972   2.942   7.166 -0.7948  1.2328  0.2288
   58MOL   H33822112   6.099   3.058   6.969  0.8452  0.4268  2.8266
   58MOL   H33922113   5.958   3.015   6.869 -1.9127  0.0074  0.4317
   58MOL   H34022114   5.822   3.156   7.033 -0.6658 -0.2584  0.1619
   58MOL   H34122115   5.973   3.199   7.119 -1.3620  0.4836  0.7615
   58MOL   H34222116   6.144   2.791   7.083  0.0131  1.6342 -1.0741
   58MOL   H34322117   6.077   2.799   6.925 -1.6653 -0.6888 -0.3961
   58MOL   C34422118   5.941   3.294   6.928  0.7009  0.7173  0.0352
   58MOL   C34522119   6.077   3.363   6.913 -0.2101  0.4678  0.1817
   58MOL   C34622120   6.056   3.517   6.908  0.2996 -0.5774 -0.5466
   58MOL   C34722121   5.943   3.535   6.998  0.4603 -0.1341 -0.4571
   58MOL   C34822122   5.864   3.663   6.982  0.3404  0.4996  0.0836
   58MOL   C34922123   5.767   3.696   7.096  0.5058  0.1776  0.5096
   58MOL   C35022124   5.852   3.413   6.968  0.1417  0.4344  0.1405
   58MOL   H35122125   5.916   3.275   6.824  1.4912 -0.6322  0.0825
   58MOL   H35222126   6.129   3.335   6.822 -0.1076  0.4924  0.2330
   58MOL   H35322127   6.146   3.344   6.996  0.2680  1.6378  0.0544
   58MOL   H35422128   6.148   3.559   6.948 -0.0625 -0.8564  0.5814
   58MOL   H35522129   6.044   3.538   6.801  1.2918  0.0316 -0.5445
   58MOL   H35622130   5.969   3.525   7.103  0.3007  2.1085 -0.1641
   58MOL   H35722131   5.941   3.740   6.979  1.7214 -0.7991  1.7024
   58MOL   H35822132   5.806   3.671   6.889 -1.0025  1.5178  0.9797
   58MOL   H35922133   5.819   3.687   7.191 -0.7273  0.0537  1.1942
   58MOL   H36022134   5.692   3.617   7.095 -0.2291  0.8626  0.7416
   58MOL   H36122135   5.782   3.376   7.043 -0.2428 -1.6155 -1.1754
   58MOL   H36222136   5.787   3.447   6.886 -2.0567  1.0868  2.1032
   58MOL   C36322137   5.713   3.839   7.074  0.3907 -0.8394 -0.4159
   58MOL   C36422138   5.813   3.950   7.110 -0.5104  0.2020  0.1878
   58MOL   C36522139   5.726   4.076   7.132  0.1408  0.1670 -0.2252
   58MOL   C36622140   5.581   4.022   7.162 -0.0162 -0.7538 -0.3490
   58MOL   C36722141   5.527   4.083   7.300  0.1146  0.3339  0.1941
   58MOL   C36822142   5.392   4.029   7.337  0.7220  0.3142 -0.2255
   58MOL   C36922143   5.588   3.865   7.161  0.4517  0.2967  0.4594
   58MOL   H37022144   5.690   3.853   6.969 -0.7691  0.0163 -0.0620
   58MOL   H37122145   5.858   3.948   7.209 -1.7280  0.1750  0.7403
   58MOL   H37222146   5.884   3.968   7.028 -1.1311  0.4695 -0.2928
   58MOL   H37322147   5.774   4.136   7.209  3.5141 -1.3346 -1.0523
   58MOL   H37422148   5.720   4.141   7.045  1.2919 -0.4254 -0.7688
   58MOL   H37522149   5.515   4.055   7.082  0.4537  4.1741  1.1580
   58MOL   H37622150   5.596   4.079   7.384  1.3665  0.3417 -0.8287
   58MOL   H37722151   5.527   4.189   7.276 -0.5223  0.4737  0.7943
   58MOL   H37822152   5.382   3.922   7.348 -0.8087  0.4672 -0.0764
   58MOL   H37922153   5.314   4.063   7.268  1.5095  0.8203 -0.8800
   58MOL   H38022154   5.605   3.828   7.262 -0.0915  0.5675  0.6533
   58MOL   H38122155   5.494   3.825   7.124  1.7545 -2.1410 -0.3114
   58MOL   H38222156   5.366   4.070   7.435  0.3595  0.9601 -0.5879
   59MOL     C122157   2.383   6.065   4.799 -0.2346  0.2764  0.5044
   59MOL     C222158   2.526   6.005   4.809 -0.1593 -0.2219 -0.5974
   59MOL     C322159   2.609   6.106   4.889  0.9410  1.1168  0.3637
   59MOL     C422160   2.510   6.213   4.951  0.2461  0.9367 -0.6713
   59MOL     C522161   2.573   6.350   4.983  0.5500 -0.7911 -0.0546
   59MOL     C622162   2.657   6.356   5.105  0.8349  0.4398  0.0229
   59MOL     C722163   2.404   6.214   4.842 -0.4531  0.5458  0.5273
   59MOL     H822164   2.341   6.054   4.699  0.1486 -0.6286  0.4381
   59MOL     H922165   2.573   5.989   4.711  1.1824  0.3898 -0.0638
   59MOL    H1022166   2.532   5.910   4.862  1.1523  0.2696  0.1475
   59MOL    H1122167   2.668   6.058   4.967 -1.0743 -0.4864  0.9528
   59MOL    H1222168   2.666   6.151   4.808 -1.1789  2.2409 -0.5542
   59MOL    H1322169   2.457   6.164   5.033  2.6571  2.3724  1.8517
   59MOL    H1422170   2.635   6.380   4.898 -0.9664  2.8023  0.0247
   59MOL    H1522171   2.495   6.426   4.974 -2.6420 -4.0914 -1.6357
   59MOL    H1622172   2.749   6.298   5.104  1.5013  1.3595  2.5507
   59MOL    H1722173   2.706   6.453   5.109 -0.1985  1.1137 -2.7027
   59MOL    H1822174   2.307   6.250   4.875 -0.0368  1.8766  0.3138
   59MOL    H1922175   2.424   6.270   4.751  0.5979 -2.4924 -1.2135
   59MOL    H2022176   2.313   6.013   4.864 -0.9338  0.6265  0.0356
   59MOL    C2122177   2.578   6.330   5.240 -0.1921 -0.2299 -0.2007
   59MOL    C2222178   2.664   6.353   5.373  0.5263  0.3877  0.8972
   59MOL    C2322179   2.560   6.394   5.481 -0.3013 -0.1629 -0.3007
   59MOL    C2422180   2.422   6.415   5.413 -0.6606 -0.4857  0.4190
   59MOL    C2522181   2.351   6.535   5.471 -0.0075 -0.2558 -0.2745
   59MOL    C2622182   2.222   6.558   5.379  0.2193 -0.0590 -0.0432
   59MOL    C2722183   2.463   6.428   5.264  0.0533  0.2223 -0.3785
   59MOL    H2822184   2.531   6.232   5.246  1.7117 -1.0694  1.5694
   59MOL    H2922185   2.720   6.263   5.400  2.0619  1.5869  1.7792
   59MOL    H3022186   2.751   6.417   5.361  0.9956 -0.1729  1.2855
   59MOL    H3122187   2.556   6.312   5.553  0.4958  1.5051  1.6901
   59MOL    H3222188   2.600   6.489   5.518  0.1699  0.4618 -2.3489
   59MOL    H3322189   2.363   6.323   5.414 -0.0095 -0.9264 -1.4421
   59MOL    H3422190   2.412   6.625   5.467  0.4742 -0.5659  0.0358
   59MOL    H3522191   2.322   6.517   5.574  2.1230  1.3822  0.6486
   59MOL    H3622192   2.182   6.459   5.355 -0.4031 -0.1207  1.2328
   59MOL    H3722193   2.259   6.596   5.284  1.0207  0.3924  0.4479
   59MOL    H3822194   2.390   6.400   5.188  0.1251  0.5305 -0.5622
   59MOL    H3922195   2.495   6.531   5.249  2.6086 -0.1425  2.1908
   59MOL    C4022196   2.112   6.656   5.429 -1.2731  0.3716 -0.2681
   59MOL    C4122197   2.047   6.604   5.548  0.2208  0.1006 -0.1334
   59MOL    C4222198   1.989   6.735   5.599 -0.4390 -0.3701 -0.1123
   59MOL    C4322199   2.086   6.849   5.574 -0.6337 -0.1902 -0.5700
   59MOL    C4422200   2.033   6.998   5.551  1.0777 -0.0788 -0.4594
   59MOL    C4522201   2.136   7.102   5.574 -0.3154 -0.7785  0.2816
   59MOL    C4622202   2.161   6.802   5.451  0.3375  0.6321  0.1782
   59MOL    H4722203   2.036   6.649   5.351 -1.4076 -1.6883  0.0261
   59MOL    H4822204   2.122   6.563   5.616 -1.5672  0.7421  2.3052
   59MOL    H4922205   1.982   6.518   5.529  1.3132 -0.5769 -0.8663
   59MOL    H5022206   1.898   6.762   5.545  0.6576  1.0559 -1.2921
   59MOL    H5122207   1.954   6.715   5.701 -3.5966 -0.1205 -1.0876
   59MOL    H5222208   2.148   6.843   5.664  0.8917  2.0980 -1.4171
   59MOL    H5322209   1.993   6.989   5.450 -0.0544 -2.5629  0.1596
   59MOL    H5422210   1.948   7.011   5.619  1.2575  2.3988 -0.6738
   59MOL    H5522211   2.211   7.093   5.496 -0.8028 -0.1103 -0.2726
   59MOL    H5622212   2.185   7.071   5.666  2.7973  0.3029 -0.9414
   59MOL    H5722213   2.146   6.873   5.369  0.2063  1.0826  0.5857
   59MOL    H5822214   2.268   6.802   5.470  0.3573  0.0999  0.0608
   59MOL    C5922215   2.081   7.244   5.558  0.0293  0.7087  0.1333
   59MOL    C6022216   2.005   7.310   5.678 -0.2833  0.6558 -0.5256
   59MOL    C6122217   2.039   7.458   5.666 -0.0992 -0.5703  0.3190
   59MOL    C6222218   2.179   7.468   5.609 -0.4208  0.3612 -0.4224
   59MOL    C6322219   2.205   7.604   5.532 -0.0972  0.2240  0.5291
   59MOL    C6422220   2.204   0.079   5.628  0.4453  0.3485 -0.0327
   59MOL    C6522221   2.199   7.337   5.535  0.4082  0.1100  0.4694
   59MOL    H6622222   2.018   7.247   5.470 -0.8047  1.4672  0.7490
   59MOL    H6722223   1.897   7.298   5.666 -0.1625  1.1866 -2.3631
   59MOL    H6822224   2.032   7.274   5.777  1.1835 -0.7049 -1.3943
   59MOL    H6922225   1.966   7.516   5.610  1.2480  0.8832  0.0331
   59MOL    H7022226   2.034   7.490   5.770 -0.0730 -2.0626  0.8020
   59MOL    H7122227   2.242   7.470   5.698  0.4434 -1.2894 -0.9799
   59MOL    H7222228   2.123   7.621   5.463  0.2539  0.1238  0.0853
   59MOL    H7322229   2.295   7.608   5.471 -0.9062  1.5480 -0.6063
   59MOL    H7422230   2.203   0.171   5.571 -0.2418 -0.6346 -1.6335
   59MOL    H7522231   2.112   0.080   5.686 -1.3791  1.7145 -2.8444
   59MOL    H7622232   2.202   7.356   5.427  0.3871  0.0803  0.4638
   59MOL    H7722233   2.292   7.288   5.562 -0.7454 -1.1925  2.1589
   59MOL    C7822234   2.320   0.073   5.727 -0.7429  0.7022  0.1493
   59MOL    C7922235   2.397   0.205   5.733  0.5054 -0.6914 -0.4530
   59MOL    C8022236   2.471   0.209   5.868 -0.1282 -0.0780  0.1653
   59MOL    C8122237   2.404   0.096   5.951 -0.0485 -0.6499 -0.1910
   59MOL    C8222238   2.374   0.138   6.093 -0.2593 -0.2615 -0.0038
   59MOL    C8322239   2.489   0.161   6.184 -0.3890  0.2970  0.0119
   59MOL    C8422240   2.282   0.053   5.875 -0.4804 -0.7660 -0.0644
   59MOL    H8522241   2.392   7.646   5.694  0.2664  1.3437  0.8756
   59MOL    H8622242   2.463   0.201   5.646 -0.8351 -3.4508 -1.3831
   59MOL    H8722243   2.332   0.291   5.717 -0.4232 -0.9754  1.7174
   59MOL    H8822244   2.579   0.194   5.872 -0.2732 -1.6342 -0.9124
   59MOL    H8922245   2.446   0.302   5.918 -1.4888 -0.7322  0.7553
   59MOL    H9022246   2.476   0.014   5.948 -0.1931 -0.7980  0.3533
   59MOL    H9122247   2.305   0.075   6.150 -0.7570  1.0400  0.8426
   59MOL    H9222248   2.316   0.229   6.081 -2.1561 -1.4839 -0.3673
   59MOL    H9322249   2.570   0.217   6.137 -0.1184  1.9823  2.3893
   59MOL    H9422250   2.526   0.063   6.212 -0.8981  0.0295 -0.2566
   59MOL    H9522251   2.194   0.112   5.900 -1.0266 -2.2370  1.5574
   59MOL    H9622252   2.268   7.594   5.893  3.9337 -1.6552 -1.1558
   59MOL    C9722253   2.454   0.229   6.314 -0.2717 -0.1117 -0.1077
   59MOL    C9822254   2.573   0.224   6.415 -0.1740  0.0158 -0.9662
   59MOL    C9922255   2.511   0.235   6.555 -0.9920 -0.0647 -0.2543
   59MOL   C10022256   2.361   0.221   6.535 -0.2017  0.1744  0.3525
   59MOL   C10122257   2.284   0.143   6.651  0.0641  0.1932 -0.5617
   59MOL   C10222258   2.243   0.230   6.775  0.1699 -0.5789  0.0328
   59MOL   C10322259   2.339   0.162   6.395 -0.2183  0.3721 -0.4937
   59MOL   H10422260   2.432   0.336   6.305  0.1747  0.1202  1.4202
   59MOL   H10522261   2.614   0.124   6.410  0.2703  0.1335  0.2810
   59MOL   H10622262   2.646   0.303   6.397  0.0124  0.0825  0.0670
   59MOL   H10722263   2.551   0.154   6.616 -2.0318 -0.7436 -0.4670
   59MOL   H10822264   2.533   0.330   6.603 -1.6373 -0.5605  1.0623
   59MOL   H10922265   2.325   0.324   6.536  0.1712  0.3084  2.3365
   59MOL   H11022266   2.185   0.104   6.630 -0.8482  0.3748  3.0924
   59MOL   H11122267   2.345   0.057   6.679  0.9817  0.6739 -1.0393
   59MOL   H11222268   2.336   0.258   6.824 -0.1384  2.4742 -1.0273
   59MOL   H11322269   2.194   0.320   6.738  2.3685  0.6090 -0.0386
   59MOL   H11422270   2.344   0.055   6.377 -1.5293  0.4251 -1.2441
   59MOL   H11522271   2.243   0.193   6.354  0.3908  1.1177 -1.3897
   59MOL   C11622272   2.145   0.154   6.872  0.9319  0.4062 -0.8382
   59MOL   C11722273   2.139   0.217   7.014  0.4080  0.4569 -0.0878
   59MOL   C11822274   1.986   0.231   7.048  0.2954 -0.5770 -0.3082
   59MOL   C11922275   1.916   0.134   6.950 -0.4892 -0.3436 -0.0878
   59MOL   C12022276   1.767   0.167   6.938 -0.5224 -0.7492 -0.0758
   59MOL   C12122277   1.689   0.169   7.070  0.6752  0.6502  0.2757
   59MOL   C12222278   1.992   0.156   6.825 -0.7018 -0.5419  0.3341
   59MOL   H12322279   2.171   0.048   6.879 -0.2221  0.2407  1.2969
   59MOL   H12422280   2.192   0.310   7.033  0.4171  0.5375 -0.5030
   59MOL   H12522281   2.175   0.146   7.089 -2.9560  1.1711  2.3412
   59MOL   H12622282   1.957   0.333   7.023  1.2486 -0.1309  0.4080
   59MOL   H12722283   1.971   0.221   7.155 -0.3470  2.6732 -0.0538
   59MOL   H12822284   1.927   0.030   6.980  0.9892 -0.0716  0.3456
   59MOL   H12922285   1.729   0.079   6.886  0.4459 -0.5860 -1.0786
   59MOL   H13022286   1.754   0.258   6.880 -2.1113 -0.6073  0.4922
   59MOL   H13122287   1.585   0.192   7.044  0.8037  0.6643 -0.2253
   59MOL   H13222288   1.716   0.240   7.148  0.3173 -0.1515  1.1434
   59MOL   H13322289   1.992   0.077   6.750  2.0800 -0.6259  0.3560
   59MOL   H13422290   1.965   0.256   6.791 -0.2842 -0.6786 -0.4027
   59MOL   C13522291   1.670   0.028   7.134 -0.0017 -0.1007 -0.0676
   59MOL   C13622292   1.589   0.043   7.263 -0.0521  0.1063 -1.0748
   59MOL   C13722293   1.513   7.553   7.275  0.3410 -0.1807  0.5049
   59MOL   C13822294   1.531   7.482   7.150 -0.1146  0.4663 -0.3591
   59MOL   C13922295   1.622   7.355   7.158  0.0635 -0.6012 -0.3763
   59MOL   C14022296   1.567   7.239   7.237 -0.1152 -0.2370 -0.3849
   59MOL   C14122297   1.577   7.585   7.048  0.1161 -0.6272 -0.1253
   59MOL   H14222298   1.761   7.622   7.164  2.0168  3.0834 -0.2596
   59MOL   H14322299   1.654   0.059   7.349 -0.9104  1.0961 -0.6066
   59MOL   H14422300   1.519   0.126   7.263 -0.8794 -0.5314  1.5904
   59MOL   H14522301   1.554   7.497   7.359  1.6961  1.0853  0.7124
   59MOL   H14622302   1.409   7.569   7.300  0.3048  2.5578 -1.2231
   59MOL   H14722303   1.439   7.437   7.113  0.4126 -2.2002  1.4639
   59MOL   H14822304   1.719   7.379   7.202 -0.0286 -0.2563 -0.3654
   59MOL   H14922305   1.644   7.324   7.056 -2.0302 -1.9006 -0.4714
   59MOL   H15022306   1.558   7.260   7.344  1.0295 -0.8541 -0.1542
   59MOL   H15122307   1.472   7.213   7.190 -0.2759 -1.7777  0.7365
   59MOL   H15222308   1.493   7.645   7.013  0.9474  1.2854  1.0371
   59MOL   H15322309   1.629   7.538   6.965  2.5552 -0.9526  1.5388
   59MOL   C15422310   1.662   7.115   7.232  0.3609 -0.3017  0.1136
   59MOL   C15522311   1.581   6.986   7.257  0.2497  0.2910  0.8778
   59MOL   C15622312   1.664   6.889   7.350  0.7520 -0.3892  0.2415
   59MOL   C15722313   1.809   6.952   7.338 -0.5700 -0.1488 -0.2455
   59MOL   C15822314   1.907   6.922   7.454 -0.2387 -0.1157  0.1597
   59MOL   C15922315   1.930   6.774   7.478 -0.0954  0.3725  0.1998
   59MOL   C16022316   1.776   7.106   7.334 -0.3973 -0.0925  0.2682
   59MOL   H16122317   1.691   7.100   7.129  0.6362 -0.2147  0.1780
   59MOL   H16222318   1.478   6.997   7.290 -0.2186  0.0049 -0.4551
   59MOL   H16322319   1.564   6.939   7.160  0.4066  0.2986  0.8463
   59MOL   H16422320   1.619   6.900   7.449  1.0205 -1.9099  0.5373
   59MOL   H16522321   1.654   6.785   7.319 -3.1937 -0.2274  0.6720
   59MOL   H16622322   1.860   6.917   7.249  3.2188  1.1670  1.3176
   59MOL   H16722323   1.877   6.970   7.546  0.2284  0.0972  0.2000
   59MOL   H16822324   1.999   6.966   7.417 -0.0155 -0.0589  0.7902
   59MOL   H16922325   1.842   6.722   7.517  0.8716 -0.5952  1.1057
   59MOL   H17022326   1.952   6.727   7.382 -0.8185  0.4234  0.0038
   59MOL   H17122327   1.865   7.162   7.305 -1.1499  0.4899 -0.9403
   59MOL   H17222328   1.737   7.143   7.429  1.5723  0.1936  0.9889
   59MOL   C17322329   2.048   6.734   7.555 -0.5330 -0.2835  0.3152
   59MOL   C17422330   2.185   6.767   7.499  0.4261  0.4198 -0.4988
   59MOL   C17522331   2.274   6.740   7.623 -0.1311  0.0380  0.1986
   59MOL   C17622332   2.197   6.778   0.098 -0.1702 -0.1382  0.8139
   59MOL   C17722333   2.252   6.910   0.158  0.0789 -0.2165  0.6024
   59MOL   C17822334   2.374   6.918   0.251  0.0899 -0.5450 -0.9053
   59MOL   C17922335   2.044   6.784   0.052 -0.0482 -0.0585  0.9341
   59MOL   H18022336   2.044   6.625   7.554 -0.4640 -0.3033  1.7081
   59MOL   H18122337   2.196   6.870   7.465 -1.7617  0.5809 -0.7903
   59MOL   H18222338   2.215   6.711   7.410  0.5410  0.9897 -0.8240
   59MOL   H18322339   2.308   6.637   7.620 -0.9683 -0.1984 -2.1284
   59MOL   H18422340   2.359   6.808   7.612 -0.9020  0.8948 -0.4823
   59MOL   H18522341   2.209   6.706   0.179  2.4470 -0.6190  0.0397
   59MOL   H18622342   2.172   6.945   0.224  0.2118  0.4830  0.3992
   59MOL   H18722343   2.258   6.994   0.089  0.6694 -2.3512 -2.0606
   59MOL   H18822344   2.460   6.869   0.203  0.1447 -0.8586 -0.4884
   59MOL   H18922345   2.338   6.858   0.334 -0.0542  3.2995  1.9228
   59MOL   H19022346   1.990   6.878   0.052  0.8192  0.4847 -1.5071
   59MOL   H19122347   1.984   6.718   0.115  1.7502 -0.1272  2.6423
   59MOL   C19222348   2.409   7.059   0.287 -0.2254  0.2064  0.1107
   59MOL   C19322349   2.544   7.069   0.361  0.3290 -0.5573  0.2066
   59MOL   C19422350   2.543   7.214   0.400 -0.2773 -0.2157  0.8415
   59MOL   C19522351   2.396   7.256   0.431  0.0280  0.4831 -0.4164
   59MOL   C19622352   2.368   7.392   0.364 -0.3883  0.5598 -0.4139
   59MOL   C19722353   2.234   7.448   0.404  0.2735 -1.2200  0.6948
   59MOL   C19822354   2.313   7.136   0.376 -1.0895 -0.6465  0.5255
   59MOL   H19922355   2.409   7.111   0.191 -2.3192 -0.7790 -0.4663
   59MOL   H20022356   2.551   7.015   0.456 -1.0033  0.1388  0.7060
   59MOL   H20122357   2.626   7.049   0.293  0.6335  0.1178  0.3775
   59MOL   H20222358   2.580   7.287   0.327  0.0989 -0.6059  0.6442
   59MOL   H20322359   2.605   7.235   0.488  0.5585 -2.2893  0.7577
   59MOL   H20422360   2.373   7.268   0.537 -2.8010  2.3833 -1.1604
   59MOL   H20522361   2.370   7.368   0.258  0.6296 -1.2758 -0.0065
   59MOL   H20622362   2.450   7.462   0.380 -1.0764  1.5914 -1.2777
   59MOL   H20722363   2.230   7.481   0.508  1.2318 -0.5008  0.5089
   59MOL   H20822364   2.167   7.362   0.401  0.3883 -1.2617 -1.4609
   59MOL   H20922365   2.215   7.152   0.330 -0.1444 -1.9728 -2.0648
   59MOL   H21022366   2.300   7.071   0.463 -0.6564 -0.4098  0.7687
   59MOL   C21122367   2.177   7.564   0.314 -1.0517 -0.0210  0.0601
   59MOL   C21222368   2.178   7.530   0.166  0.0290 -0.4483  0.0841
   59MOL   C21322369   2.282   7.616   0.099 -0.4892 -0.5334  0.2471
   59MOL   C21422370   2.269   0.101   0.182  0.1258 -0.6403  0.3280
   59MOL   C21522371   2.390   0.196   0.158  0.1343  0.2694  0.0767
   59MOL   C21622372   2.373   0.327   0.231 -0.3205 -0.7052  0.5684
   59MOL   C21722373   2.258   0.047   0.321 -0.3682 -0.0029 -0.4045
   59MOL   H21822374   2.076   7.586   0.349 -0.6370  1.4517  0.3673
   59MOL   H21922375   2.202   7.426   0.147 -1.0939 -0.5042 -1.0755
   59MOL   H22022376   2.080   7.558   0.129 -0.1181  0.5548  1.1783
   59MOL   H22122377   2.381   7.575   0.117  0.6689  2.0181 -0.1711
   59MOL   H22222378   2.267   7.617   7.638 -0.8410 -1.3225  0.2843
   59MOL   H22322379   2.174   0.141   0.149 -0.7250 -2.0830  0.9825
   59MOL   H22422380   2.393   0.214   0.051  0.8223  0.7501  0.1727
   59MOL   H22522381   2.482   0.144   0.186  1.2866  2.5601  0.6685
   59MOL   H22622382   2.278   0.371   0.202  0.3858  0.3343 -0.2334
   59MOL   H22722383   2.360   0.304   0.337  0.4668  0.1308  0.8549
   59MOL   H22822384   2.227   0.111   0.404 -0.9515 -0.5229 -0.2187
   59MOL   H22922385   2.361   0.022   0.345 -0.4634 -0.4814 -0.4769
   59MOL   C23022386   2.483   0.425   0.200 -0.2119  0.4957  0.2117
   59MOL   C23122387   2.619   0.366   0.244  0.3187 -0.5542  0.8820
   59MOL   C23222388   2.714   0.489   0.253  0.2977  0.7142  0.5455
   59MOL   C23322389   2.625   0.598   0.317 -0.1967 -0.9021  0.1244
   59MOL   C23422390   2.654   0.749   0.284 -0.1590  0.1126  0.2810
   59MOL   C23522391   2.784   0.789   0.336 -0.6871 -0.6514 -0.0447
   59MOL   C23622392   2.479   0.551   0.284 -0.1477 -0.4079 -0.4062
   59MOL   H23722393   2.476   0.453   0.095  0.1740  0.8389  0.2773
   59MOL   H23822394   2.591   0.320   0.339 -2.0913 -3.1630 -0.9914
   59MOL   H23922395   2.649   0.286   0.177 -2.2798 -0.7282 -0.1538
   59MOL   H24022396   2.746   0.513   0.152 -0.7678 -0.9618 -0.2243
   59MOL   H24122397   2.803   0.481   0.315  0.6340  0.2799  0.0160
   59MOL   H24222398   2.629   0.595   0.426 -2.1274 -2.3636  0.1845
   59MOL   H24322399   2.575   0.815   0.318 -0.4107  1.7666 -3.2351
   59MOL   H24422400   2.653   0.753   0.175  0.5692  2.2367  0.3451
   59MOL   H24522401   2.773   0.756   0.439 -2.0405 -1.3661 -0.4057
   59MOL   H24622402   2.866   0.738   0.286 -1.3538 -1.3358 -0.4585
   59MOL   H24722403   2.430   0.630   0.228  0.9099  0.6139  0.0729
   59MOL   H24822404   2.428   0.547   0.380  1.3867  0.3401  0.4719
   59MOL   C24922405   2.807   0.939   0.327 -0.8779  0.4003  0.7770
   59MOL   C25022406   2.942   0.983   0.380 -1.0252 -0.6580 -0.1459
   59MOL   C25122407   2.969   1.123   0.315 -0.6180 -0.2109  0.0187
   59MOL   C25222408   2.869   1.120   0.193  0.2773  0.8885  0.2808
   59MOL   C25322409   2.762   1.229   0.197  0.6473  0.8200  0.6248
   59MOL   C25422410   2.743   1.314   0.070  0.2172  0.0615 -0.5065
   59MOL   C25522411   2.808   0.980   0.173 -0.6248 -0.3213 -0.6087
   59MOL   H25622412   2.729   0.994   0.380 -1.0822  1.9348 -1.0963
   59MOL   H25722413   2.955   0.989   0.488  0.9638 -1.1634 -0.3374
   59MOL   H25822414   3.014   0.916   0.333  0.6883 -0.4134  2.0569
   59MOL   H25922415   3.066   1.130   0.266 -0.3929 -1.0158  0.3389
   59MOL   H26022416   2.955   1.207   0.383 -0.7458  0.4017 -0.7587
   59MOL   H26122417   2.930   1.133   0.104 -0.1299  2.5338  0.2292
   59MOL   H26222418   2.786   1.308   0.268 -0.4539  1.8481 -0.1136
   59MOL   H26322419   2.664   1.192   0.226  0.4113  1.4230  0.6043
   59MOL   H26422420   2.699   1.263   7.631 -3.8666 -2.3164  2.8292
   59MOL   H26522421   2.842   1.352   0.042 -0.0836  1.9479  0.8971
   59MOL   H26622422   2.873   0.929   0.101 -1.3179  0.3062 -1.7024
   59MOL   H26722423   2.713   0.985   0.121 -0.2386 -0.5756 -1.3580
   59MOL   C26822424   2.656   1.435   0.112 -0.2664 -0.0443  0.5065
   59MOL   C26922425   2.514   1.417   0.168  0.0359 -0.2288  0.2867
   59MOL   C27022426   2.419   1.522   0.126  0.1819  0.9904 -0.2470
   59MOL   C27122427   2.503   1.613   0.030 -0.1353  0.0030  0.2625
   59MOL   C27222428   2.422   1.665   7.559 -0.7762 -0.5240  0.3406
   59MOL   C27322429   2.324   1.771   7.599  1.0482 -0.3317  0.2228
   59MOL   C27422430   2.627   1.515   7.635 -0.3272 -0.5364 -0.3364
   59MOL   H27522431   2.706   1.502   0.183 -4.1000 -0.0066  3.3176
   59MOL   H27622432   2.479   1.322   0.128  0.3053 -0.1553 -0.1263
   59MOL   H27722433   2.510   1.399   0.275  0.3710  0.1978  0.3732
   59MOL   H27822434   2.330   1.481   0.079  0.1269  1.9787 -1.0116
   59MOL   H27922435   2.385   1.593   0.202  0.1749 -0.3626  1.0430
   59MOL   H28022436   2.558   1.694   0.078 -1.2727  0.7978  0.2423
   59MOL   H28122437   2.374   1.577   7.515 -0.1617 -0.6218 -0.1328
   59MOL   H28222438   2.490   1.699   7.482 -1.3635 -2.0517 -0.8656
   59MOL   H28322439   2.257   1.729   0.027 -0.3848 -0.3475 -1.0185
   59MOL   H28422440   2.380   1.852   7.645  0.6580  0.6884 -1.0456
   59MOL   H28522441   2.582   1.456   7.556 -0.8081  1.3722 -1.5227
   59MOL   H28622442   2.705   1.587   7.610  1.0216 -1.3964  1.2583
   59MOL   C28722443   2.239   1.821   7.473 -0.1730  0.0959 -0.0534
   59MOL   C28822444   2.094   1.868   7.511  0.1515  0.5872  0.3902
   59MOL   C28922445   2.053   1.951   7.391  0.0278 -0.0722 -1.2085
   59MOL   C29022446   2.179   1.986   7.310  0.3685 -0.3905 -0.3238
   59MOL   C29122447   2.191   2.138   7.266  0.0821  0.1188  0.2204
   59MOL   C29222448   2.092   2.176   7.161  0.3687  0.1238  0.4094
   59MOL   C29322449   2.296   1.934   7.388 -0.0213 -0.4350 -0.9063
   59MOL   H29422450   2.227   1.737   7.405  1.4321  0.6132 -0.9962
   59MOL   H29522451   2.028   1.783   7.531  2.0738 -1.5974 -2.1921
   59MOL   H29622452   2.094   1.934   7.598 -1.6829 -0.5067  1.2409
   59MOL   H29722453   1.985   2.031   7.422  0.2254 -0.6963  0.9152
   59MOL   H29822454   1.992   1.887   7.327 -1.4714  0.4636 -0.3338
   59MOL   H29922455   2.172   1.928   7.218 -0.6668 -1.6752  0.5500
   59MOL   H30022456   2.294   2.144   7.232 -0.8384 -1.5351 -3.0883
   59MOL   H30122457   2.176   2.203   7.352  1.5614  0.0903  0.5088
   59MOL   H30222458   2.035   2.266   7.184  2.3771  1.8676 -1.2075
   59MOL   H30322459   2.013   2.102   7.151  0.0104  0.8734 -2.9805
   59MOL   H30422460   2.344   2.011   7.449  0.6634 -2.0278  0.6006
   59MOL   H30522461   2.368   1.901   7.314  0.7810  1.0772 -0.8171
   59MOL   C30622462   2.142   2.205   7.024 -0.3085 -0.4197  1.4525
   59MOL   C30722463   2.211   2.086   6.942 -0.3618  0.3972  0.6083
   59MOL   C30822464   2.185   2.124   6.794 -0.4876 -1.0940  0.1694
   59MOL   C30922465   2.101   2.255   6.789  0.2262  0.1123 -0.1698
   59MOL   C31022466   1.998   2.261   6.676  0.5442 -0.3642 -0.3216
   59MOL   C31122467   2.069   2.267   6.544 -0.4225 -0.0960  0.1712
   59MOL   C31222468   2.039   2.264   6.930  0.4877  0.0236 -0.7095
   59MOL   H31322469   2.218   2.283   7.032 -0.6801 -0.0784  1.7039
   59MOL   H31422470   2.319   2.083   6.956 -0.4285  1.0597  1.2991
   59MOL   H31522471   2.169   1.988   6.962 -1.7727  1.3670  2.6443
   59MOL   H31622472   2.271   2.126   6.727 -1.4250 -2.4541 -1.1007
   59MOL   H31722473   2.125   2.041   6.757 -2.9080  1.1869 -1.1527
   59MOL   H31822474   2.167   2.340   6.776 -0.1275  0.5089  0.6153
   59MOL   H31922475   1.924   2.182   6.674 -0.3452  0.4918 -1.5430
   59MOL   H32022476   1.941   2.353   6.685  1.1176 -0.2121  2.2421
   59MOL   H32122477   2.123   2.174   6.526  0.3537  0.6144 -1.2588
   59MOL   H32222478   2.151   2.338   6.544 -0.5685  0.1330 -3.0386
   59MOL   H32322479   1.954   2.195   6.927  0.5096 -0.1435  1.5705
   59MOL   H32422480   2.003   2.366   6.945  0.1715  0.2766 -2.9517
   59MOL   C32522481   1.967   2.277   6.432  0.0672  0.1135 -0.4596
   59MOL   C32622482   1.870   2.396   6.442 -0.3715 -0.2850 -0.2436
   59MOL   C32722483   1.832   2.420   6.297  0.0535  0.3262 -0.2979
   59MOL   C32822484   1.968   2.400   6.220  0.1189  0.2990 -0.0369
   59MOL   C32922485   1.943   2.395   6.065 -0.0615 -0.6735  0.0367
   59MOL   C33022486   2.059   2.435   5.974  0.2359 -0.6571 -0.2533
   59MOL   C33122487   2.034   2.284   6.291  0.1606 -0.1102  0.0494
   59MOL   H33222488   1.897   2.194   6.442  1.6430 -0.9877  2.0881
   59MOL   H33322489   1.920   2.485   6.478  1.4161 -1.2405 -0.3096
   59MOL   H33422490   1.789   2.374   6.511 -0.5754 -0.6624 -0.5946
   59MOL   H33522491   1.769   2.339   6.259 -0.8874  0.9010  0.0295
   59MOL   H33622492   1.775   2.512   6.299 -2.2261 -1.0234 -1.6175
   59MOL   H33722493   2.031   2.489   6.231 -0.2962  0.5415  0.3902
   59MOL   H33822494   1.914   2.291   6.045 -2.9665  0.0315  0.3614
   59MOL   H33922495   1.859   2.457   6.034 -0.5534 -0.4129  1.8642
   59MOL   H34022496   2.023   2.418   5.872  1.0104  3.0852 -1.2293
   59MOL   H34122497   2.077   2.541   5.992 -0.5007 -0.5782  0.0591
   59MOL   H34222498   2.141   2.303   6.303  0.1119 -1.1344  2.5433
   59MOL   H34322499   2.030   2.186   6.242 -0.8007 -0.2204  0.3416
   59MOL   C34422500   2.193   2.352   5.998 -0.0438 -0.1060  0.2835
   59MOL   C34522501   2.304   2.396   5.901  1.1691 -0.2308 -0.6368
   59MOL   C34622502   2.295   2.321   5.767 -1.0325 -0.8474  0.0469
   59MOL   C34722503   2.215   2.197   5.794 -0.5675  0.1266 -0.2157
   59MOL   C34822504   2.271   2.060   5.754 -0.4409  0.3412  0.1271
   59MOL   C34922505   2.173   1.941   5.784 -0.3626 -0.4697 -0.0793
   59MOL   C35022506   2.198   2.206   5.946 -0.2437  0.5805 -0.0128
   59MOL   H35122507   2.233   2.358   6.099  1.3462  1.6183 -0.3406
   59MOL   H35222508   2.396   2.371   5.953  0.6945 -1.6823 -0.4733
   59MOL   H35322509   2.312   2.504   5.898  0.5190 -0.1067  1.2380
   59MOL   H35422510   2.239   2.375   5.690 -0.2999  0.3315  0.3232
   59MOL   H35522511   2.392   2.305   5.720 -0.6167  2.8061 -0.5039
   59MOL   H35622512   2.117   2.220   5.753  0.5138  2.0270 -1.8473
   59MOL   H35722513   2.294   2.064   5.647 -1.7265  3.6857 -0.0797
   59MOL   H35822514   2.360   2.036   5.812 -2.1953  0.1466  2.8275
   59MOL   H35922515   2.074   1.968   5.748 -0.5891 -2.0234 -0.6612
   59MOL   H36022516   2.150   1.920   5.888 -0.9371 -0.1477 -0.1387
   59MOL   H36122517   2.115   2.148   5.985  0.9957 -0.8025  0.6250
   59MOL   H36222518   2.271   2.140   5.991 -3.5383 -1.4765  2.4971
   59MOL   C36322519   2.223   1.810   5.720 -0.7180 -0.0633 -0.1052
   59MOL   C36422520   2.115   1.698   5.724 -1.0007 -2.0515 -0.0633
   59MOL   C36522521   2.179   1.586   5.793  0.2941  0.0416 -0.1008
   59MOL   C36622522   2.324   1.603   5.770 -0.5287 -0.3214  0.4480
   59MOL   C36722523   2.400   1.515   5.861  0.0562  0.0673 -0.8895
   59MOL   C36822524   2.552   1.522   5.863 -0.8130  1.0591 -0.3373
   59MOL   C36922525   2.344   1.750   5.791 -0.3193  0.0251 -0.4387
   59MOL   H37022526   2.258   1.817   5.617  0.2391  0.1143  0.2231
   59MOL   H37122527   2.019   1.727   5.765 -0.5580  0.0619 -0.4323
   59MOL   H37222528   2.101   1.677   5.618 -0.3365  2.6969 -1.2195
   59MOL   H37322529   2.175   1.596   5.902  0.7269 -0.6937 -0.0083
   59MOL   H37422530   2.132   1.492   5.763  1.2733 -0.1554 -1.0586
   59MOL   H37522531   2.354   1.572   5.670  0.1046 -0.6600  0.7443
   59MOL   H37622532   2.377   1.533   5.966 -0.9045  0.6133 -1.1860
   59MOL   H37722533   2.374   1.411   5.841 -1.0857  0.1568  0.0803
   59MOL   H37822534   2.575   1.627   5.847  3.1479  0.3716  0.1789
   59MOL   H37922535   2.599   1.464   5.784  2.5232  1.4047  1.2780
   59MOL   H38022536   2.333   1.765   5.898  0.1130 -0.8273 -0.2680
   59MOL   H38122537   2.439   1.800   5.771  0.2754 -0.6245  0.7161
   59MOL   H38222538   2.589   1.477   5.956  1.0705  1.5076 -0.8531
   60MOL     C122539   3.964   2.652   1.400 -0.2442  0.3777 -0.4928
   60MOL     C222540   3.901   2.744   1.503  0.4854  0.4416  0.0556
   60MOL     C322541   3.832   2.658   1.609  0.1376 -0.4630 -0.0638
   60MOL     C422542   3.851   2.514   1.569  0.2966 -0.9914  0.1529
   60MOL     C522543   3.740   2.421   1.602  0.8393  0.2073  0.3076
   60MOL     C622544   3.697   2.404   1.745  0.2019 -0.6670 -0.3391
   60MOL     C722545   3.882   2.524   1.418 -0.1536 -0.2202 -0.1892
   60MOL     H822546   3.963   2.693   1.299 -1.1496 -0.2729 -0.7599
   60MOL     H922547   3.828   2.807   1.451  0.8975 -0.4009 -1.5665
   60MOL    H1022548   3.978   2.812   1.538 -1.5826  2.9562 -0.1266
   60MOL    H1122549   3.875   2.668   1.709  1.0083  0.7181 -0.5459
   60MOL    H1222550   3.727   2.686   1.612  0.3085  0.5089 -2.2282
   60MOL    H1322551   3.941   2.484   1.621 -0.7224 -0.2704  2.4226
   60MOL    H1422552   3.654   2.440   1.538  1.1252 -0.8160 -0.3899
   60MOL    H1522553   3.765   2.324   1.559 -0.5107  0.2082 -0.5048
   60MOL    H1622554   3.780   2.374   1.810  0.8050 -0.6788 -1.1142
   60MOL    H1722555   3.650   2.499   1.769 -1.5024 -0.2818 -4.8451
   60MOL    H1822556   3.934   2.434   1.385  0.6131 -0.0509  0.5561
   60MOL    H1922557   3.787   2.527   1.365 -0.2028  0.2515 -0.0685
   60MOL    H2022558   4.069   2.639   1.425 -0.2991 -2.1468 -1.3995
   60MOL    C2122559   3.588   2.301   1.762  0.2134  0.4195 -0.2141
   60MOL    C2222560   3.631   2.156   1.741 -0.0855  0.7093  0.5338
   60MOL    C2322561   3.523   2.066   1.808  0.2830  0.0674  0.3261
   60MOL    C2422562   3.439   2.164   1.890  0.2830 -0.5167 -0.5426
   60MOL    C2522563   3.395   2.125   2.031 -0.3817 -0.2610 -0.9797
   60MOL    C2622564   3.317   1.990   2.036  0.4116 -0.5412  0.4494
   60MOL    C2722565   3.528   2.290   1.901  0.9655  0.0550  0.5793
   60MOL    H2822566   3.510   2.321   1.688 -1.6968 -2.2372  0.9935
   60MOL    H2922567   3.639   2.130   1.635 -1.9974  2.3161 -0.0320
   60MOL    H3022568   3.727   2.145   1.791 -1.2784 -2.9675  2.1888
   60MOL    H3122569   3.471   2.006   1.734 -0.1172  0.1163  0.5642
   60MOL    H3222570   3.573   2.005   1.883 -1.4090 -0.5464  0.9603
   60MOL    H3322571   3.356   2.197   1.828 -0.1007  1.8494  1.1709
   60MOL    H3422572   3.336   2.206   2.074  1.0872  0.6806 -0.6999
   60MOL    H3522573   3.484   2.117   2.093  0.5971  1.1229 -2.1601
   60MOL    H3622574   3.391   1.919   1.999  0.2532 -0.4911  0.0303
   60MOL    H3722575   3.237   1.987   1.962  0.7637  0.3189  0.0225
   60MOL    H3822576   3.458   2.371   1.922  0.2411 -0.7788  1.5060
   60MOL    H3922577   3.606   2.289   1.978  0.7938  0.5544  0.7601
   60MOL    C4022578   3.277   1.943   2.179 -0.3730  0.3828 -0.2956
   60MOL    C4122579   3.189   2.042   2.257 -0.4812  0.3130  0.1016
   60MOL    C4222580   3.063   1.959   2.290 -0.5923  1.1546 -0.2232
   60MOL    C4322581   3.058   1.843   2.186  0.4266  1.0753  0.1164
   60MOL    C4422582   2.954   1.728   2.200  0.2956  0.0607  0.1614
   60MOL    C4522583   2.809   1.775   2.195  0.0899 -0.1904 -0.1127
   60MOL    C4622584   3.201   1.808   2.173  0.0080  0.2179  0.2549
   60MOL    H4722585   3.359   1.913   2.245 -0.5811  1.8532  0.6567
   60MOL    H4822586   3.164   2.117   2.182  3.8483  1.2884 -0.5223
   60MOL    H4922587   3.239   2.097   2.337  0.6531  0.5230 -0.7332
   60MOL    H5022588   3.061   1.917   2.390 -2.4116  0.3226 -0.5839
   60MOL    H5122589   2.971   2.018   2.289 -1.1546  0.2987 -0.0298
   60MOL    H5222590   3.023   1.879   2.089  2.5391 -0.7832 -1.3971
   60MOL    H5322591   2.971   1.658   2.118 -1.0940 -2.2753  1.8108
   60MOL    H5422592   2.977   1.673   2.291  1.9198  0.8178  0.2143
   60MOL    H5522593   2.801   1.858   2.125 -3.2165 -1.1090 -0.9264
   60MOL    H5622594   2.785   1.820   2.292  1.4695  2.7859 -1.0865
   60MOL    H5722595   3.231   1.732   2.246 -0.1836 -1.3290 -1.2443
   60MOL    H5822596   3.225   1.754   2.081 -0.4338  1.1140 -0.3864
   60MOL    C5922597   2.712   1.654   2.158  0.0934 -0.1797 -0.0276
   60MOL    C6022598   2.564   1.684   2.180  0.3661  0.2336 -0.3630
   60MOL    C6122599   2.486   1.670   2.047 -0.1475 -0.0725 -0.6343
   60MOL    C6222600   2.593   1.665   1.944 -0.0051  0.9362  0.6868
   60MOL    C6322601   2.551   1.583   1.823 -0.6536 -0.3432  0.3922
   60MOL    C6422602   2.654   1.584   1.705  0.0052  0.5282 -0.2745
   60MOL    C6522603   2.716   1.603   2.013 -0.1023  0.4038 -0.3020
   60MOL    H6622604   2.741   1.574   2.226 -0.1090 -1.0916 -0.9942
   60MOL    H6722605   2.521   1.612   2.249  1.3447  0.5905  0.6431
   60MOL    H6822606   2.540   1.783   2.220 -0.4832 -1.3633  3.2225
   60MOL    H6922607   2.437   1.574   2.063 -1.7717  1.0062  1.0515
   60MOL    H7022608   2.416   1.750   2.023  0.8886  0.6779 -1.1968
   60MOL    H7122609   2.616   1.767   1.910  0.2075  0.5942 -0.2000
   60MOL    H7222610   2.461   1.627   1.780  0.4338  0.3465 -1.2162
   60MOL    H7322611   2.540   1.481   1.860  1.0277 -0.6409  0.1199
   60MOL    H7422612   2.723   1.666   1.722  1.7216 -0.9057 -0.1315
   60MOL    H7522613   2.703   1.488   1.721  3.6609  2.1332 -1.3406
   60MOL    H7622614   2.711   1.494   2.009 -0.7403  0.3575  1.2216
   60MOL    H7722615   2.808   1.648   1.975 -0.0840  0.1175 -0.6050
   60MOL    C7822616   2.603   1.602   1.568  0.3311 -0.4547 -1.0166
   60MOL    C7922617   2.708   1.579   1.458 -0.7829  0.4158 -0.3759
   60MOL    C8022618   2.627   1.560   1.336  0.1208 -0.0806 -0.1053
   60MOL    C8122619   2.490   1.513   1.377  1.2006  0.4313  0.0952
   60MOL    C8222620   2.452   1.376   1.313 -0.2835  0.2703  0.1537
   60MOL    C8322621   2.418   1.391   1.162  0.5801  0.8672 -0.7557
   60MOL    C8422622   2.496   1.501   1.528  0.2223  0.8165  0.0761
   60MOL    H8522623   2.553   1.699   1.561 -0.0650 -0.6300 -0.6459
   60MOL    H8622624   2.789   1.651   1.449  0.8423 -1.3800 -0.5373
   60MOL    H8722625   2.752   1.479   1.464 -2.0437 -0.2074 -1.3544
   60MOL    H8822626   2.615   1.655   1.285  0.9665  0.9806  1.6290
   60MOL    H8922627   2.670   1.498   1.258 -0.3552  1.6546 -1.7659
   60MOL    H9022628   2.411   1.581   1.346  1.4320 -0.5889 -2.8639
   60MOL    H9122629   2.360   1.349   1.363 -0.3845  1.9719  0.8855
   60MOL    H9222630   2.533   1.309   1.342  0.8442  0.9184 -1.3762
   60MOL    H9322631   2.406   1.287   1.132 -1.8639  0.6282  0.8920
   60MOL    H9422632   2.509   1.424   1.113  1.4250  0.1251  0.2868
   60MOL    H9522633   2.528   1.402   1.562 -1.4448  0.5170  0.8752
   60MOL    H9622634   2.402   1.516   1.582  1.1792 -1.8526  2.6339
   60MOL    C9722635   2.298   1.475   1.109 -0.0304  0.3246  0.2728
   60MOL    C9822636   2.162   1.482   1.175  0.5764  0.5168  0.7214
   60MOL    C9922637   2.055   1.457   1.068 -0.3330 -0.8409  0.0954
   60MOL   C10022638   2.118   1.492   0.937  0.4900 -0.2463  0.3599
   60MOL   C10122639   2.053   1.407   0.827  0.4887  0.0653  0.0889
   60MOL   C10222640   2.120   1.425   0.691 -0.3051 -0.4361  0.3041
   60MOL   C10322641   2.267   1.459   0.960  0.0752  0.2738  0.1795
   60MOL   H10422642   2.329   1.579   1.121 -1.3640  0.6515  0.9826
   60MOL   H10522643   2.158   1.408   1.254 -0.7538 -0.4636 -0.2467
   60MOL   H10622644   2.144   1.582   1.213 -0.0752  0.1064  1.4899
   60MOL   H10722645   2.015   1.356   1.068 -0.9418 -0.6062  0.8279
   60MOL   H10822646   1.976   1.532   1.073 -1.0946 -1.6092 -0.5991
   60MOL   H10922647   2.096   1.597   0.918  3.2543 -0.4004 -4.4156
   60MOL   H11022648   2.070   1.304   0.859  1.7591  0.2782  0.1577
   60MOL   H11122649   1.946   1.428   0.828  0.3673 -0.4161 -1.5301
   60MOL   H11222650   2.112   1.533   0.682  1.6226 -0.3446 -0.5859
   60MOL   H11322651   2.227   1.408   0.683 -0.4150 -0.3866 -1.3432
   60MOL   H11422652   2.284   1.354   0.935 -2.0126 -0.6018  2.1981
   60MOL   H11522653   2.347   1.514   0.911  0.6669  0.4560  1.3324
   60MOL   C11622654   2.042   1.367   0.571 -0.2359  0.5503 -0.4635
   60MOL   C11722655   1.903   1.436   0.545 -0.2160 -0.2523 -0.2696
   60MOL   C11822656   1.873   1.406   0.401 -0.8899  0.9479  0.9487
   60MOL   C11922657   2.002   1.374   0.327  1.0186 -0.5036 -0.3855
   60MOL   C12022658   2.031   1.473   0.211 -0.6999  0.6268 -0.5763
   60MOL   C12122659   1.928   1.468   0.095 -0.1317 -0.1990  0.1789
   60MOL   C12222660   2.114   1.383   0.433  0.1146  0.4518 -0.0481
   60MOL   H12322661   2.024   1.260   0.585 -2.9559  0.9624 -0.5979
   60MOL   H12422662   1.919   1.543   0.534  0.1124 -0.2139  0.5102
   60MOL   H12522663   1.828   1.407   0.618 -0.4419 -0.9379 -0.7674
   60MOL   H12622664   1.802   1.466   0.344  1.7067  2.3189 -0.9054
   60MOL   H12722665   1.825   1.308   0.403  1.2521 -0.2148 -1.9336
   60MOL   H12822666   1.980   1.274   0.287 -1.7362 -0.0279 -0.1703
   60MOL   H12922667   2.126   1.447   0.164  0.1079  1.0101  0.8190
   60MOL   H13022668   2.052   1.575   0.243  2.3382 -0.2649  0.4982
   60MOL   H13122669   1.872   1.561   0.091 -0.3206 -0.3276 -0.1122
   60MOL   H13222670   1.861   1.387   0.124 -0.0505 -0.0761  0.7251
   60MOL   H13322671   2.182   1.297   0.423  1.2923  1.4331 -0.6076
   60MOL   H13422672   2.185   1.465   0.425 -0.7182  1.2362  0.5549
   60MOL   C13522673   1.996   1.461   7.604  0.4745  0.1677 -0.0653
   60MOL   C13622674   2.070   1.332   7.578  0.1780 -0.0597 -0.5265
   60MOL   C13722675   2.087   1.352   7.425  0.1233  0.4291 -0.5129
   60MOL   C13822676   1.959   1.414   7.371 -0.6102  0.6510  0.0288
   60MOL   C13922677   1.976   1.494   7.237 -0.2754 -0.1639  1.0007
   60MOL   C14022678   1.845   1.554   7.190 -0.2407 -0.5579 -0.7206
   60MOL   C14122679   1.896   1.490   7.488 -0.3889 -0.2898 -0.6714
   60MOL   H14222680   2.067   1.544   7.608  0.7579 -0.1636  2.8577
   60MOL   H14322681   2.163   1.317   7.633 -0.9065 -1.8754  0.8677
   60MOL   H14422682   2.003   1.252   7.608 -0.0419  1.0379  2.0826
   60MOL   H14522683   2.168   1.425   7.424 -1.6733  2.4842 -2.7352
   60MOL   H14622684   2.108   1.253   7.386  0.0344 -0.2144  1.0306
   60MOL   H14722685   1.894   1.333   7.341 -0.3576  0.6932 -0.6562
   60MOL   H14822686   2.018   1.424   7.166  1.2701  2.2884 -0.5850
   60MOL   H14922687   2.051   1.573   7.246 -1.1510  0.7497  0.3954
   60MOL   H15022688   1.767   1.477   7.195 -0.0047 -0.8369 -1.2977
   60MOL   H15122689   1.802   1.617   7.267  0.3627 -2.5373  1.2721
   60MOL   H15222690   1.803   1.445   7.523  0.8147  0.9053  4.5230
   60MOL   H15322691   1.898   1.599   7.483 -0.6422 -0.2274  0.4053
   60MOL   C15422692   1.833   1.621   7.052 -0.3556  0.4879 -0.5857
   60MOL   C15522693   1.913   1.757   7.040 -0.6658 -0.5497  0.4493
   60MOL   C15622694   1.848   1.830   6.921 -0.2817 -0.1398 -0.4350
   60MOL   C15722695   1.697   1.794   6.939  0.5672 -0.5932  0.4468
   60MOL   C15822696   1.614   1.900   7.020  0.3269 -0.2219  0.3925
   60MOL   C15922697   1.615   2.043   6.967 -0.2447 -1.0397 -0.3435
   60MOL   C16022698   1.687   1.664   7.016  0.9880 -0.4234 -0.0864
   60MOL   H16122699   1.865   1.554   6.971  0.0704 -0.7321  0.5608
   60MOL   H16222700   1.908   1.817   7.131  2.1011  0.3111  0.0956
   60MOL   H16322701   2.021   1.743   7.034 -0.7644 -0.6158 -1.3213
   60MOL   H16422702   1.865   1.937   6.929  0.0311 -0.0363 -2.2573
   60MOL   H16522703   1.890   1.803   6.824 -0.8960  0.1358 -0.7801
   60MOL   H16622704   1.675   1.782   6.833  0.7712 -2.1121  0.5714
   60MOL   H16722705   1.650   1.905   7.123  0.5744 -2.5219  0.4338
   60MOL   H16822706   1.510   1.867   7.026  0.2965 -0.3447 -0.8231
   60MOL   H16922707   1.708   2.086   7.003 -2.1808  3.0139  0.1008
   60MOL   H17022708   1.621   2.047   6.858 -0.9337  4.0994 -0.3274
   60MOL   H17122709   1.642   1.580   6.963 -1.0695  0.6862 -0.1422
   60MOL   H17222710   1.617   1.677   7.098 -2.1227  1.4317 -2.9317
   60MOL   C17322711   1.498   2.139   7.016 -0.0083  0.6802 -0.2498
   60MOL   C17422712   1.520   2.284   6.973 -0.2000  0.0606 -0.7495
   60MOL   C17522713   1.386   2.327   6.904 -0.3618  0.5942 -0.2661
   60MOL   C17622714   1.287   2.226   6.955 -0.0971 -0.1617 -0.8818
   60MOL   C17722715   1.156   2.231   6.880 -0.4118  0.3418  0.3649
   60MOL   C17822716   1.080   2.356   6.893  0.1774  0.0612  0.2558
   60MOL   C17922717   1.364   2.097   6.961 -0.3705 -0.9147  0.3698
   60MOL   H18022718   1.492   2.126   7.124 -0.7159  3.3610  0.0749
   60MOL   H18122719   1.603   2.298   6.903  1.1895 -3.4027  0.0883
   60MOL   H18222720   1.536   2.359   7.050  2.6723 -0.0545 -1.1660
   60MOL   H18322721   1.364   2.429   6.934 -2.5729  0.2557 -0.6958
   60MOL   H18422722   1.398   2.338   6.796  1.7834  1.8141  0.0548
   60MOL   H18522723   1.260   2.256   7.056 -0.3319 -1.8509 -0.4373
   60MOL   H18622724   1.094   2.146   6.909 -0.8423  0.5072 -0.0752
   60MOL   H18722725   1.194   2.219   6.778  1.8771  3.7974  0.7117
   60MOL   H18822726   1.136   2.432   6.839 -1.7058  1.0177 -0.3769
   60MOL   H18922727   1.057   2.386   6.995 -0.6314  0.4815 -0.0419
   60MOL   H19022728   1.362   2.052   6.861 -0.0276 -2.3782  1.0052
   60MOL   H19122729   1.312   2.018   7.017  1.5273 -1.4254  1.4488
   60MOL   C19222730   0.949   2.345   6.829  0.4414 -0.3852 -0.2212
   60MOL   C19322731   0.874   2.481   6.807 -0.1312  0.9384 -0.2011
   60MOL   C19422732   0.734   2.425   6.793 -1.0359 -1.1058  0.2054
   60MOL   C19522733   0.716   2.311   6.889 -0.1386 -0.0708  0.2859
   60MOL   C19622734   0.600   2.223   6.838  0.1278  0.4215  0.0807
   60MOL   C19722735   0.455   2.289   6.853  0.3396 -0.1315  0.2186
   60MOL   C19822736   0.857   2.245   6.905 -0.2664 -0.2711 -0.1200
   60MOL   H19922737   0.958   2.307   6.727 -0.4837 -0.1148 -0.4092
   60MOL   H20022738   0.877   2.555   6.887  1.5203 -0.8242  1.4229
   60MOL   H20122739   0.902   2.525   6.711  1.2546  0.4781 -0.0149
   60MOL   H20222740   0.721   2.397   6.689  0.5938  0.4740 -0.4458
   60MOL   H20322741   0.649   2.489   6.819 -3.4145 -3.0412 -2.4137
   60MOL   H20422742   0.688   2.357   6.983 -3.0355  2.2806 -1.6363
   60MOL   H20522743   0.585   2.131   6.894 -1.2682 -0.2376 -1.3301
   60MOL   H20622744   0.606   2.194   6.733  2.0876  0.1788  0.2543
   60MOL   H20722745   0.450   2.361   6.772 -0.8501  0.2622  0.6309
   60MOL   H20822746   0.453   2.342   6.948  0.9534 -0.0856  0.2077
   60MOL   H20922747   0.857   2.150   6.853  1.1291  1.8768 -4.2637
   60MOL   H21022748   0.883   2.233   7.010  2.9936  0.8464 -0.7377
   60MOL   C21122749   0.323   2.209   6.841 -0.3982 -0.4125  0.4380
   60MOL   C21222750   0.193   2.292   6.827 -0.6401  0.0051  0.6712
   60MOL   C21322751   0.080   2.208   6.877 -0.0686 -0.0395 -0.2756
   60MOL   C21422752   0.138   2.064   6.908  0.3087  0.0377 -0.0150
   60MOL   C21522753   0.072   1.980   7.019  0.1645  0.2292  0.3721
   60MOL   C21622754   0.081   1.827   7.002 -0.4824  0.2745 -0.0550
   60MOL   C21722755   0.281   2.109   6.950 -0.0633 -0.0732  0.4639
   60MOL   H21822756   0.325   2.148   6.751 -0.3964  0.2328  0.0014
   60MOL   H21922757   0.204   2.392   6.869 -0.3559  0.0503  0.4957
   60MOL   H22022758   0.182   2.316   6.721 -0.3154 -1.9904  0.1694
   60MOL   H22122759   0.052   2.244   6.976  0.8161  0.2312 -0.1149
   60MOL   H22222760   0.001   2.206   6.802 -1.6527 -2.9539  1.3986
   60MOL   H22322761   0.134   2.004   6.818 -2.1545  1.3651 -0.8327
   60MOL   H22422762   7.613   1.998   7.003  0.1172 -0.6870 -0.3891
   60MOL   H22522763   0.094   2.026   7.116 -1.6655  2.5592 -0.2693
   60MOL   H22622764   0.040   1.797   6.906 -0.3775  0.3433 -0.1220
   60MOL   H22722765   0.186   1.798   6.998 -0.1050  1.5894 -0.0141
   60MOL   H22822766   0.359   2.033   6.952  0.0217 -0.1111 -1.9636
   60MOL   H22922767   0.272   2.149   7.051  1.8143 -0.1962  0.6951
   60MOL   C23022768   0.015   1.754   7.108  0.2876 -0.4127 -0.4159
   60MOL   C23122769   0.094   1.745   7.245  0.4872 -0.4431  0.0590
   60MOL   C23222770   0.029   1.626   7.313  0.2696  0.1324  0.1974
   60MOL   C23322771   0.032   1.524   7.205  0.4131 -0.2500 -0.0085
   60MOL   C23422772   7.596   1.400   7.236 -0.7621 -0.0062  0.2388
   60MOL   C23522773   7.596   1.297   7.110  0.0619  0.6812 -0.1437
   60MOL   C23622774   7.643   1.603   7.081  0.3385  0.1265 -0.6283
   60MOL   H23722775   7.561   1.791   7.121  0.3175 -0.6160  0.4587
   60MOL   H23822776   0.203   1.748   7.243  0.4472  1.4962 -0.6364
   60MOL   H23922777   0.077   1.833   7.307  0.3258  0.4254 -1.2005
   60MOL   H24022778   7.571   1.654   7.326  0.0501 -0.9040  0.6630
   60MOL   H24122779   0.081   1.604   7.405  0.5827 -0.3897 -0.1033
   60MOL   H24222780   0.136   1.496   7.190  0.5198  0.3410 -0.3983
   60MOL   H24322781   7.492   1.419   7.262 -0.3625  0.6752  1.3509
   60MOL   H24422782   7.645   1.344   7.316 -0.3737  0.7950  0.5713
   60MOL   H24522783   7.550   1.336   7.019  0.4914  1.6485  0.0495
   60MOL   H24622784   0.053   1.282   7.085 -0.2525  0.6271 -1.4676
   60MOL   H24722785   7.535   1.600   7.063 -0.2134  1.3961  2.1825
   60MOL   H24822786   0.036   1.572   6.985  0.9628  0.3779 -0.4527
   60MOL   C24922787   7.525   1.164   7.137 -0.5960  0.2846 -0.0444
   60MOL   C25022788   7.370   1.163   7.138 -1.0995  0.0768  0.9681
   60MOL   C25122789   7.325   1.094   7.008 -0.8672 -0.8855 -0.3513
   60MOL   C25222790   7.452   1.078   6.923  0.8093 -0.1735  0.0595
   60MOL   C25322791   7.453   0.963   6.822  0.1353 -0.0080  0.2518
   60MOL   C25422792   7.566   0.971   6.721 -0.1898 -0.2544 -0.2030
   60MOL   C25522793   7.562   1.066   7.027 -0.9837  0.0144 -0.6280
   60MOL   H25622794   7.551   1.124   7.235 -1.8664  1.1639  0.6677
   60MOL   H25722795   7.338   1.093   7.215  0.0300 -2.0630 -0.4815
   60MOL   H25822796   7.323   1.258   7.164 -0.6038  0.5018  0.3213
   60MOL   H25922797   7.255   1.157   6.954 -0.1985  0.4653  0.3243
   60MOL   H26022798   7.270   1.004   7.035  0.0850 -0.9251  1.6060
   60MOL   H26122799   7.472   1.166   6.863 -0.7265  0.3406  0.3031
   60MOL   H26222800   7.355   0.959   6.775  1.0827 -2.1828 -1.6822
   60MOL   H26322801   7.455   0.868   6.876 -1.6183 -0.4943 -0.4893
   60MOL   H26422802   0.012   0.971   6.777 -0.2033  0.9939 -0.1712
   60MOL   H26522803   7.550   1.064   6.668 -0.6241 -0.9612 -1.3250
   60MOL   H26622804   0.018   1.081   6.996 -1.4515  2.4700 -1.1222
   60MOL   H26722805   7.565   0.966   7.069  1.2822  0.8035  1.2261
   60MOL   C26822806   7.555   0.858   6.626 -0.0743 -0.0312 -0.1508
   60MOL   C26922807   0.003   0.889   6.512 -0.0483  0.6766  0.2469
   60MOL   C27022808   7.592   0.836   6.382  0.0024 -0.3601  0.0178
   60MOL   C27122809   7.460   0.766   6.428 -0.2550 -0.5072  0.1855
   60MOL   C27222810   7.357   0.757   6.320  0.8969  0.6204 -0.8891
   60MOL   C27322811   7.375   0.633   6.232  0.2709 -0.3277  0.4261
   60MOL   C27422812   7.420   0.840   6.551 -0.5155  0.2776 -0.5119
   60MOL   H27522813   7.583   0.763   6.672  1.2020  1.1090  1.4782
   60MOL   H27622814   0.009   0.996   6.492 -1.3779  0.8120  0.5269
   60MOL   H27722815   0.109   0.868   6.525 -0.3112  0.1300  1.5636
   60MOL   H27822816   7.587   0.925   6.319 -1.5125 -1.5076 -1.5243
   60MOL   H27922817   0.016   0.765   6.340 -2.6965 -2.2402 -1.4897
   60MOL   H28022818   7.483   0.667   6.468 -1.1383 -1.3136 -1.2505
   60MOL   H28122819   7.353   0.850   6.265  1.0427  1.1840  0.0456
   60MOL   H28222820   7.264   0.758   6.377  1.3006  2.1196 -0.2431
   60MOL   H28322821   7.479   0.631   6.199  0.0802 -0.8039 -0.1467
   60MOL   H28422822   7.363   0.544   6.293 -1.6295  1.2612  2.4455
   60MOL   H28522823   7.389   0.941   6.523 -0.9290  1.0522  2.5828
   60MOL   H28622824   7.344   0.789   6.609  0.6131  0.3637  1.0848
   60MOL   C28722825   7.290   0.632   6.110  0.5400 -0.3444  0.3156
   60MOL   C28822826   7.299   0.529   5.994 -0.5663  0.3521 -0.1895
   60MOL   C28922827   7.161   0.507   5.939 -0.4598  0.0703 -0.1760
   60MOL   C29022828   7.064   0.607   6.007 -0.1262 -0.1899 -0.2702
   60MOL   C29122829   6.921   0.569   6.015  0.3392 -1.0852  0.2570
   60MOL   C29222830   6.833   0.682   6.076 -0.9487  0.6627 -0.1133
   60MOL   C29322831   7.140   0.625   6.144  0.1371 -0.2033 -0.0612
   60MOL   H29422832   7.300   0.730   6.062 -0.5864  0.0795  0.9164
   60MOL   H29522833   7.374   0.564   5.923  0.5250  1.9387  1.6747
   60MOL   H29622834   7.339   0.433   6.024 -0.2725 -0.0229 -1.7318
   60MOL   H29722835   7.127   0.404   5.948 -1.0330  0.1527 -1.3175
   60MOL   H29822836   7.161   0.518   5.830 -1.5931  0.6895 -0.1219
   60MOL   H29922837   7.068   0.700   5.949 -0.8664  0.5165  0.7908
   60MOL   H30022838   6.901   0.482   6.078 -1.2967 -1.1693 -0.3538
   60MOL   H30122839   6.891   0.538   5.915  0.8581 -0.9258  0.0505
   60MOL   H30222840   6.864   0.779   6.037 -0.3866  0.5212 -0.0236
   60MOL   H30322841   6.853   0.692   6.183 -0.5058  0.1232 -0.1404
   60MOL   H30422842   7.124   0.542   6.213  2.0299  0.3585  1.0837
   60MOL   H30522843   7.106   0.713   6.198  1.5244  0.3864 -0.1378
   60MOL   C30622844   6.683   0.668   6.043  0.8417  0.0435 -0.0614
   60MOL   C30722845   6.625   0.534   6.098 -0.2177  0.6758 -0.1232
   60MOL   C30822846   6.485   0.558   6.152 -0.5130 -0.2253  0.2850
   60MOL   C30922847   6.455   0.704   6.106 -0.1283 -0.1324 -0.7003
   60MOL   C31022848   6.350   0.776   6.195 -0.4633  0.2575  0.2590
   60MOL   C31122849   6.316   0.915   6.143 -0.2452 -0.0980  0.1359
   60MOL   C31222850   6.594   0.770   6.109  0.0315 -0.2374  0.0176
   60MOL   H31322851   6.665   0.675   5.936 -1.1098 -0.2476  0.2233
   60MOL   H31422852   6.614   0.458   6.021 -0.6179  2.3932 -1.7889
   60MOL   H31522853   6.680   0.505   6.187  2.4833  0.3225 -1.8723
   60MOL   H31622854   6.419   0.479   6.117 -0.1596  0.2374 -1.4544
   60MOL   H31722855   6.486   0.560   6.261  0.5977 -1.8657  0.3349
   60MOL   H31822856   6.429   0.713   6.001  1.0550 -2.2030 -1.2104
   60MOL   H31922857   6.263   0.712   6.185 -0.1753 -0.2107  0.7009
   60MOL   H32022858   6.384   0.780   6.299  1.8044  1.8955 -0.4984
   60MOL   H32122859   6.317   0.908   6.035  0.0049  3.3203 -0.1312
   60MOL   H32222860   6.400   0.979   6.171  0.3707 -0.4147 -1.0013
   60MOL   H32322861   6.628   0.779   6.212 -0.2359 -0.8612  0.1647
   60MOL   H32422862   6.576   0.871   6.072 -1.9173 -0.3146  0.7019
   60MOL   C32522863   6.178   0.969   6.195  0.4414  0.0505  0.6991
   60MOL   C32622864   6.190   0.986   6.350  0.5439 -0.0575  0.2931
   60MOL   C32722865   6.128   1.123   6.377  0.1513  0.4948 -0.7685
   60MOL   C32822866   6.058   1.175   6.245  0.2468  0.7059 -0.0082
   60MOL   C32922867   5.912   1.142   6.214 -0.2761  0.0084  0.0287
   60MOL   C33022868   5.815   1.236   6.299  0.1139  0.7450 -0.4381
   60MOL   C33122869   6.147   1.106   6.139 -0.3042 -0.4201  0.2745
   60MOL   H33222870   6.096   0.899   6.179 -0.0006  0.5465  0.8169
   60MOL   H33322871   6.293   0.992   6.384  1.2162 -1.5614 -1.4075
   60MOL   H33422872   6.141   0.909   6.411 -0.6024  0.4276 -0.0019
   60MOL   H33522873   6.072   1.144   6.468  2.4155 -2.6120  1.4162
   60MOL   H33622874   6.210   1.192   6.389  1.0461 -0.3766 -1.7441
   60MOL   H33722875   6.076   1.282   6.239 -0.5240  0.8706  0.5040
   60MOL   H33822876   5.891   1.159   6.108 -0.2942 -0.9865 -0.1253
   60MOL   H33922877   5.883   1.039   6.232  1.3142 -0.5516 -0.4957
   60MOL   H34022878   5.830   1.218   6.405  1.6996  0.7324 -0.6553
   60MOL   H34122879   5.842   1.340   6.277 -0.3250  0.7678 -0.8840
   60MOL   H34222880   6.236   1.166   6.122 -1.0389  1.1679  1.8657
   60MOL   H34322881   6.098   1.101   6.042  1.0180 -4.1863 -0.2747
   60MOL   C34422882   5.658   1.224   6.268 -0.9051 -0.0187  0.5744
   60MOL   C34522883   5.575   1.308   6.358  0.4970 -0.3409 -0.4583
   60MOL   C34622884   5.435   1.254   6.318 -0.3704 -0.7079 -0.3899
   60MOL   C34722885   5.452   1.109   6.288  0.1438  0.2101 -0.4356
   60MOL   C34822886   5.380   1.052   6.160 -0.3408  0.2830 -0.0653
   60MOL   C34922887   5.360   0.900   6.166  0.8573  0.2637  0.0871
   60MOL   C35022888   5.609   1.085   6.286  0.2300  0.1132 -0.5882
   60MOL   H35122889   5.641   1.254   6.165  2.1384 -1.6323 -0.4789
   60MOL   H35222890   5.612   1.408   6.335  1.0097 -1.3653 -4.4446
   60MOL   H35322891   5.580   1.292   6.466 -0.3762  0.7485 -0.2369
   60MOL   H35422892   5.380   1.275   6.409 -0.8498  0.8207 -1.0089
   60MOL   H35522893   5.386   1.318   6.244  2.7567 -1.1390 -2.9860
   60MOL   H35622894   5.409   1.061   6.376  1.6048 -1.5976 -0.6905
   60MOL   H35722895   5.288   1.110   6.149 -0.7542  0.0224  1.8208
   60MOL   H35822896   5.437   1.070   6.069 -0.6755  0.5407 -0.2245
   60MOL   H35922897   5.322   0.858   6.260 -0.1900  0.2932 -0.3162
   60MOL   H36022898   5.460   0.859   6.150  1.5430  2.1789 -0.6463
   60MOL   H36122899   5.655   1.041   6.375  0.4843  1.8927  0.1853
   60MOL   H36222900   5.643   1.018   6.207 -1.0828 -0.1210 -0.9584
   60MOL   C36322901   5.266   0.833   6.050 -0.7957 -0.4128 -0.2396
   60MOL   C36422902   5.118   0.887   6.045 -0.0863  0.2604 -0.4720
   60MOL   C36522903   5.024   0.776   5.991  0.5641  0.3858 -0.1915
   60MOL   C36622904   5.113   0.649   5.981  0.0781  0.5188  0.2500
   60MOL   C36722905   5.055   0.517   6.036 -0.1018 -0.2469  0.3080
   60MOL   C36822906   5.159   0.399   6.003 -0.0563  0.2344  0.0453
   60MOL   C36922907   5.249   0.682   6.056 -0.3552  0.1375  0.1550
   60MOL   H37022908   5.304   0.852   5.950  1.3477 -0.2746  0.5597
   60MOL   H37122909   5.089   0.908   6.148 -0.7598 -0.2722 -0.5579
   60MOL   H37222910   5.108   0.977   5.985  2.4687  0.6243 -0.4335
   60MOL   H37322911   4.944   0.766   6.064 -0.9279 -0.4449 -1.8840
   60MOL   H37422912   4.976   0.806   5.898  2.3305 -0.5822 -1.4578
   60MOL   H37522913   5.130   0.638   5.874 -1.8512 -0.2121  0.0188
   60MOL   H37622914   5.054   0.522   6.145  0.5360  0.2929  0.2967
   60MOL   H37722915   4.960   0.496   5.986  0.7041  2.2277 -2.3947
   60MOL   H37822916   5.115   0.304   6.033 -0.8560  0.2356 -1.0734
   60MOL   H37922917   5.261   0.405   6.042  0.0041  0.5732 -0.1669
   60MOL   H38022918   5.235   0.654   6.160  1.7858 -0.3064  0.3562
   60MOL   H38122919   5.330   0.618   6.019 -0.4250 -0.3734  0.8639
   60MOL   H38222920   5.169   0.405   5.895 -0.2077  0.0121  0.0188
   61MOL     C122921   5.690   1.369   1.932 -0.2124  0.2184  0.3087
   61MOL     C222922   5.833   1.330   1.970 -0.1385 -0.1052  0.2664
   61MOL     C322923   5.848   1.193   1.901 -0.0171 -0.4344  0.7550
   61MOL     C422924   5.735   1.184   1.790  0.1423  0.6646 -0.1378
   61MOL     C522925   5.695   1.047   1.740  0.6593  0.1752 -0.0292
   61MOL     C622926   5.795   0.985   1.648  0.2966  0.1193  0.1396
   61MOL     C722927   5.621   1.250   1.856  0.1210 -0.3991 -0.4164
   61MOL     H822928   5.629   1.391   2.020 -2.7367 -3.1677 -0.5179
   61MOL     H922929   5.846   1.326   2.078  1.8130 -0.0856  0.0649
   61MOL    H1022930   5.889   1.416   1.931  0.3842 -1.5966 -2.3562
   61MOL    H1122931   5.947   1.164   1.866  1.4373  3.3905  1.3802
   61MOL    H1222932   5.822   1.133   1.988 -0.5173  0.6481  1.3715
   61MOL    H1322933   5.769   1.244   1.706  1.3373  0.1042 -0.0538
   61MOL    H1422934   5.685   0.984   1.828  0.1220  0.5272  0.1635
   61MOL    H1522935   5.600   1.052   1.688  1.5902 -0.2513 -1.8107
   61MOL    H1622936   5.734   0.933   1.574  0.4528  0.1523 -0.0124
   61MOL    H1722937   5.828   1.065   1.581 -1.9407 -0.8783 -2.2751
   61MOL    H1822938   5.547   1.278   1.781  0.6666 -0.6483 -1.0406
   61MOL    H1922939   5.569   1.187   1.928 -0.1010  1.8904  1.4892
   61MOL    H2022940   5.693   1.447   1.856  2.5941 -0.8059 -0.6950
   61MOL    C2122941   5.890   0.879   1.697  0.7224 -0.0795 -0.3864
   61MOL    C2222942   5.822   0.754   1.750 -0.0906 -0.7571 -0.2076
   61MOL    C2322943   5.848   0.632   1.655 -0.7712 -0.1838  0.0758
   61MOL    C2422944   5.992   0.666   1.611 -0.5678  0.4654  0.1214
   61MOL    C2522945   6.052   0.593   1.486  0.0378  0.0821  0.1896
   61MOL    C2622946   6.093   0.452   1.529  0.0412 -0.2015 -0.3092
   61MOL    C2722947   5.985   0.817   1.589  0.8003  0.0616 -0.1128
   61MOL    H2822948   5.952   0.931   1.770 -0.1014  0.7679 -0.2807
   61MOL    H2922949   5.856   0.732   1.851 -0.6844 -1.1049 -0.0802
   61MOL    H3022950   5.714   0.765   1.763 -0.0656 -0.7832  0.0263
   61MOL    H3122951   5.835   0.541   1.713  1.9041 -0.2753  0.6018
   61MOL    H3222952   5.786   0.631   1.565 -2.3258 -0.1419  1.1318
   61MOL    H3322953   6.050   0.644   1.701 -1.6159  1.5824  1.0864
   61MOL    H3422954   6.135   0.649   1.443  0.1939 -0.6832 -0.5066
   61MOL    H3522955   5.980   0.598   1.405  0.4765  2.8151 -0.0732
   61MOL    H3622956   6.021   0.406   1.596 -0.6570  1.0063 -0.2246
   61MOL    H3722957   6.170   0.457   1.606 -2.2486 -0.1480  2.0395
   61MOL    H3822958   6.086   0.858   1.594  0.8761  0.1664 -2.1102
   61MOL    H3922959   5.950   0.833   1.487  1.9377  1.9855 -0.2107
   61MOL    C4022960   6.102   0.356   1.408  0.4486 -0.6494  0.7596
   61MOL    C4122961   6.163   0.219   1.430 -0.2703 -0.3289  1.0603
   61MOL    C4222962   6.059   0.111   1.399 -0.1016 -0.2810 -0.0415
   61MOL    C4322963   5.934   0.193   1.411 -0.1031 -0.7769 -0.2688
   61MOL    C4422964   5.804   0.144   1.352 -0.5998 -0.1328 -0.0786
   61MOL    C4522965   5.755   0.014   1.418 -0.5982 -0.4858  0.1702
   61MOL    C4622966   5.968   0.324   1.343  0.2004  0.7048 -0.1519
   61MOL    H4722967   6.171   0.408   1.342  0.6743 -0.3459  1.2315
   61MOL    H4822968   6.186   0.205   1.536 -0.9249  1.3609  1.4465
   61MOL    H4922969   6.251   0.203   1.367 -1.2137  0.2750 -0.4278
   61MOL    H5022970   6.081   0.083   1.296 -1.7209  0.8074 -0.7083
   61MOL    H5122971   6.059   0.024   1.465 -1.1014  0.0013  0.3402
   61MOL    H5222972   5.918   0.200   1.519 -1.5363 -2.4754 -0.3520
   61MOL    H5322973   5.724   0.217   1.347 -1.8086 -1.1475  3.3426
   61MOL    H5422974   5.827   0.130   1.246  2.1071  1.2435  0.2903
   61MOL    H5522975   5.763   0.017   1.527 -1.3127 -0.1205  0.2163
   61MOL    H5622976   5.820   7.580   1.386 -0.1091 -0.0299  0.0113
   61MOL    H5722977   5.988   0.319   1.235 -3.0661 -1.1144 -0.7348
   61MOL    H5822978   5.891   0.401   1.350  0.1086  0.9612 -3.0118
   61MOL    C5922979   5.609   7.626   1.375 -0.3879  0.5641  0.7847
   61MOL    C6022980   5.590   7.561   1.235 -0.4757 -0.2775  1.0503
   61MOL    C6122981   5.448   7.498   1.240 -0.5103  0.5277 -0.5099
   61MOL    C6222982   5.461   7.421   1.372  0.0316  0.6246  0.4765
   61MOL    C6322983   5.329   7.392   1.451  0.0350  0.1355  0.1336
   61MOL    C6422984   5.223   7.301   1.379 -0.3245  0.4558 -0.4619
   61MOL    C6522985   5.548   7.517   1.467 -0.0570  0.0320  0.9332
   61MOL    H6622986   5.552   0.072   1.383 -0.6557  0.4930 -0.2389
   61MOL    H6722987   5.598   7.628   1.149 -0.4745 -0.6151  0.7841
   61MOL    H6822988   5.668   7.486   1.219  0.6394  0.9991  0.4608
   61MOL    H6922989   5.371   7.575   1.243 -0.9926 -0.0002  1.0622
   61MOL    H7022990   5.440   7.437   1.150 -0.0532  2.0427 -1.6150
   61MOL    H7122991   5.508   7.325   1.349  0.0967  0.2262  2.1950
   61MOL    H7222992   5.280   7.487   1.474 -0.6640 -0.0146 -0.7180
   61MOL    H7322993   5.354   7.347   1.547 -1.4790 -0.2557  0.3630
   61MOL    H7422994   5.192   7.329   1.278  0.8472  0.0203 -0.9451
   61MOL    H7522995   5.287   7.214   1.370 -1.5793 -0.4384 -0.9795
   61MOL    H7622996   5.486   7.571   1.538  1.4314  1.0165  1.5310
   61MOL    H7722997   5.614   7.455   1.527 -1.0894  0.7096  2.7875
   61MOL    C7822998   5.103   7.267   1.461 -0.2654 -0.6387 -0.2829
   61MOL    C7922999   5.008   7.186   1.379  0.2629 -0.1132  1.0619
   61MOL    C8023000   4.986   7.055   1.455  0.7249 -0.5710  0.3524
   61MOL    C8123001   5.021   7.082   1.603  0.0469  0.7066  0.1028
   61MOL    C8223002   5.057   6.962   1.686 -0.8600  0.4254 -0.0501
   61MOL    C8323003   5.130   6.846   1.617 -0.7347  0.7862 -0.4751
   61MOL    C8423004   5.135   7.184   1.584 -0.3462 -0.1399 -0.4912
   61MOL    H8523005   5.060   7.361   1.495  1.4819 -0.1594  0.7004
   61MOL    H8623006   4.916   7.239   1.354  1.6597  0.8653 -2.2785
   61MOL    H8723007   5.059   7.165   1.285  0.9245  2.2759  0.8342
   61MOL    H8823008   4.883   7.026   1.434  0.7355 -0.1935 -0.2111
   61MOL    H8923009   5.058   6.988   1.410 -0.1426 -0.3738 -1.3531
   61MOL    H9023010   4.939   7.135   1.652 -1.2483 -2.0708  1.0351
   61MOL    H9123011   4.966   6.927   1.735  0.3009 -2.6789  0.0422
   61MOL    H9223012   5.118   6.999   1.767  0.0038 -2.4943  0.6835
   61MOL    H9323013   5.223   6.882   1.571  0.5275  1.1081  2.2039
   61MOL    H9423014   5.071   6.801   1.538 -1.5995  1.3176 -0.1473
   61MOL    H9523015   5.223   7.121   1.563  0.8367  1.3368 -0.0328
   61MOL    H9623016   5.161   7.233   1.677  1.1982 -0.1307 -0.9016
   61MOL    C9723017   5.179   6.736   1.715  0.0651 -0.4334 -0.2269
   61MOL    C9823018   5.250   6.626   1.639  0.7187 -0.4753  0.2781
   61MOL    C9923019   5.205   6.493   1.709 -0.4901 -0.5509  0.1397
   61MOL   C10023020   5.124   6.530   1.824 -0.4141 -0.0218  0.7984
   61MOL   C10123021   5.014   6.443   1.879 -0.0323 -0.0508 -0.8978
   61MOL   C10223022   5.079   6.325   1.952 -0.0148 -0.2432 -0.4730
   61MOL   C10323023   5.062   6.671   1.787 -0.0745  0.1191 -0.9639
   61MOL   H10423024   5.262   6.768   1.778  0.4728 -0.0615 -0.9389
   61MOL   H10523025   5.225   6.629   1.533 -1.0236  0.7970  0.7115
   61MOL   H10623026   5.358   6.632   1.647  0.9101 -0.7652 -1.8870
   61MOL   H10723027   5.147   6.436   1.636  1.5158 -1.4671 -0.7564
   61MOL   H10823028   5.292   6.434   1.737 -2.7148 -2.1342  4.1850
   61MOL   H10923029   5.198   6.548   1.902 -0.5609 -2.2954  1.5061
   61MOL   H11023030   4.935   6.492   1.936 -0.1278 -1.8238  0.5276
   61MOL   H11123031   4.952   6.412   1.795 -1.5008  0.7319 -0.1239
   61MOL   H11223032   5.151   6.286   1.880  0.2090  2.0909 -1.5408
   61MOL   H11323033   5.135   6.357   2.040  1.4398  0.4256 -1.6319
   61MOL   H11423034   4.980   6.654   1.717 -1.3220 -0.7045  0.6726
   61MOL   H11523035   5.035   6.726   1.877 -0.0367  0.8013 -1.3661
   61MOL   C11623036   4.978   6.216   1.994 -0.3647  0.1386  0.4236
   61MOL   C11723037   5.049   6.100   2.065  0.2247  0.1068  0.3265
   61MOL   C11823038   4.940   6.031   2.147  0.7465  0.0580 -0.3906
   61MOL   C11923039   4.850   6.148   2.193  1.1084 -0.1224  0.0467
   61MOL   C12023040   4.871   6.177   2.348  0.6113 -0.0117 -0.1123
   61MOL   C12123041   4.815   6.311   2.402  0.2743 -0.2887 -0.1672
   61MOL   C12223042   4.880   6.265   2.095  0.3377 -0.0667 -0.4456
   61MOL   H12323043   4.923   6.170   1.912 -0.3012 -2.1379  1.6457
   61MOL   H12423044   5.123   6.152   2.126  0.2469 -0.6270  0.9279
   61MOL   H12523045   5.105   6.032   2.000 -0.7725  0.1074 -0.5384
   61MOL   H12623046   4.975   5.969   2.230 -1.0490  1.0757  1.1836
   61MOL   H12723047   4.876   5.981   2.074 -3.5131  2.9770  1.1430
   61MOL   H12823048   4.749   6.111   2.173  1.0017  0.9505 -1.4735
   61MOL   H12923049   4.979   6.182   2.363  0.8812 -0.0867 -1.9224
   61MOL   H13023050   4.824   6.098   2.407  2.3231 -0.5491  0.5768
   61MOL   H13123051   4.706   6.306   2.407  0.1664  1.0705 -0.7020
   61MOL   H13223052   4.851   6.390   2.336 -1.4067 -0.1825 -0.9923
   61MOL   H13323053   4.788   6.312   2.060 -0.2751 -0.2370  0.9116
   61MOL   H13423054   4.941   6.333   2.154  1.4729  0.7594 -2.5352
   61MOL   C13523055   4.852   6.338   2.549  0.1484 -0.7981  0.1646
   61MOL   C13623056   4.804   6.475   2.601  0.7008  0.4115 -0.6457
   61MOL   C13723057   4.810   6.456   2.752  0.1302 -0.9572 -0.4132
   61MOL   C13823058   4.750   6.320   2.771  0.0907  0.1552 -0.0686
   61MOL   C13923059   4.783   6.254   2.905  0.3143  0.1148  0.1271
   61MOL   C14023060   4.720   6.337   3.020  0.2184 -0.2250 -0.3286
   61MOL   C14123061   4.794   6.238   2.652 -0.3961 -0.2287  0.3867
   61MOL   H14223062   4.961   6.333   2.557  0.4111 -1.1150 -2.7986
   61MOL   H14323063   4.866   6.555   2.561  1.8644  1.3774  2.8755
   61MOL   H14423064   4.705   6.504   2.566  0.1145 -0.2396  0.4309
   61MOL   H14523065   4.915   6.468   2.780 -0.8493  1.0285  2.6605
   61MOL   H14623066   4.758   6.538   2.801  2.8648 -1.2698  3.2611
   61MOL   H14723067   4.642   6.332   2.760 -0.1936 -1.4835  0.7407
   61MOL   H14823068   4.890   6.245   2.927  0.1297  0.4574  1.2388
   61MOL   H14923069   4.740   6.154   2.907 -1.5743  0.9149  0.9086
   61MOL   H15023070   4.772   6.432   3.023  0.3634 -0.2947 -0.6493
   61MOL   H15123071   4.617   6.351   2.987  0.1634  1.3948  0.4898
   61MOL   H15223072   4.704   6.196   2.606  0.4910 -1.7173  0.0004
   61MOL   H15323073   4.868   6.161   2.673  1.1720  1.3886  0.9322
   61MOL   C15423074   4.715   6.249   3.151  0.0094  0.1490  1.0847
   61MOL   C15523075   4.630   6.117   3.141 -0.6380  0.4041 -0.2825
   61MOL   C15623076   4.545   6.111   3.263  0.8113  0.1523  0.5524
   61MOL   C15723077   4.611   6.203   3.364 -1.1164  0.6635 -0.0833
   61MOL   C15823078   4.526   6.237   3.490  0.3932 -0.2344 -0.3228
   61MOL   C15923079   4.579   6.353   3.572 -0.3071  0.1278 -0.1448
   61MOL   C16023080   4.664   6.322   3.275  0.1612 -0.1301  0.7119
   61MOL   H16123081   4.817   6.225   3.181  0.6189  1.4343  0.0681
   61MOL   H16223082   4.569   6.112   3.051 -0.4296  0.9256 -0.4566
   61MOL   H16323083   4.697   6.031   3.145 -0.9197  0.1347 -1.1828
   61MOL   H16423084   4.455   6.164   3.231  3.0367  2.8454 -1.5980
   61MOL   H16523085   4.510   6.017   3.303  2.1883 -0.4168  0.4424
   61MOL   H16623086   4.701   6.158   3.405 -1.1221  0.5268 -0.2217
   61MOL   H16723087   4.517   6.148   3.552 -3.6276  2.7771  3.7843
   61MOL   H16823088   4.426   6.259   3.452  0.1497  0.5034  0.7184
   61MOL   H16923089   4.687   6.349   3.560 -0.2812  2.0406 -0.8503
   61MOL   H17023090   4.537   6.442   3.524  0.1290  0.8350  0.7525
   61MOL   H17123091   4.739   6.388   3.318  0.3832  0.2705 -0.2670
   61MOL   H17223092   4.575   6.381   3.251 -1.0281 -2.4837 -0.8475
   61MOL   C17323093   4.543   6.368   3.722 -0.0817  0.1613 -0.2911
   61MOL   C17423094   4.614   6.262   3.805  1.2235  0.1178 -0.2202
   61MOL   C17523095   4.608   6.319   3.944  0.5250  0.5379 -0.7908
   61MOL   C17623096   4.617   6.473   3.925 -0.5100  0.1974 -0.4131
   61MOL   C17723097   4.747   6.535   3.980 -0.1002  0.3712 -0.6617
   61MOL   C17823098   4.768   6.683   3.951 -0.7059 -0.6263 -0.4318
   61MOL   C17923099   4.593   6.499   3.779  0.7491  0.2557  0.5890
   61MOL   H18023100   4.435   6.378   3.735  0.0737  1.5018  0.1152
   61MOL   H18123101   4.718   6.252   3.776  1.7496 -1.2603  2.0439
   61MOL   H18223102   4.566   6.165   3.800 -0.8985  1.2019 -2.1651
   61MOL   H18323103   4.510   6.294   3.984  0.9705 -0.2586 -0.1828
   61MOL   H18423104   4.673   6.281   4.022 -2.2939 -2.0202  0.3733
   61MOL   H18523105   4.537   6.513   3.988  0.7425  0.8769  0.7663
   61MOL   H18623106   4.835   6.484   3.942 -1.6734 -2.4694 -0.6508
   61MOL   H18723107   4.748   6.518   4.087 -1.5503  3.1366 -0.1501
   61MOL   H18823108   4.682   6.742   3.981  0.2327  1.0879 -0.9920
   61MOL   H18923109   4.790   6.699   3.845 -0.8623 -1.3276 -0.5689
   61MOL   H19023110   4.688   6.525   3.732 -0.5631  3.4266 -0.4112
   61MOL   H19123111   4.527   6.584   3.762  0.4626 -0.0092  0.3878
   61MOL   C19223112   4.893   6.743   4.027 -0.0163  0.8870  0.5060
   61MOL   C19323113   4.894   6.892   4.018 -0.2877  0.4615 -0.5510
   61MOL   C19423114   5.011   6.938   3.930 -0.4629  0.2329 -0.0252
   61MOL   C19523115   5.069   6.813   3.864 -0.4718  0.5111  0.4386
   61MOL   C19623116   5.220   6.834   3.824 -0.5361 -0.4980 -0.6036
   61MOL   C19723117   5.274   6.705   3.771 -0.1589 -0.0688  0.4059
   61MOL   C19823118   5.030   6.695   3.962 -0.0872  0.0285  0.3227
   61MOL   H19923119   4.888   6.709   4.131  1.5893  1.0179  0.6258
   61MOL   H20023120   4.798   6.925   3.981 -0.1421  3.8860  1.8889
   61MOL   H20123121   4.905   6.937   4.117 -2.0786 -0.3808  0.0393
   61MOL   H20223122   5.092   6.981   3.990 -1.7399 -2.6258  4.0022
   61MOL   H20323123   4.973   7.014   3.862  2.9550  2.7842  0.7347
   61MOL   H20423124   5.004   6.785   3.780  1.7374  0.9481 -1.4596
   61MOL   H20523125   5.281   6.872   3.905  2.6010  0.9596 -3.4856
   61MOL   H20623126   5.233   6.913   3.750 -0.7421 -0.3822 -0.5123
   61MOL   H20723127   5.199   6.670   3.700 -1.2469  2.3696  0.2951
   61MOL   H20823128   5.275   6.620   3.840 -2.5818  0.2105  0.8530
   61MOL   H20923129   5.100   6.691   4.045 -0.0332  0.4586  0.3016
   61MOL   H21023130   5.025   6.597   3.914  1.1245 -0.4000  1.0522
   61MOL   C21123131   5.412   6.711   3.712  0.3540  0.4610  0.0358
   61MOL   C21223132   5.460   6.563   3.674  0.0952  0.3079 -0.3897
   61MOL   C21323133   5.613   6.572   3.686 -0.1698  0.5836 -0.7989
   61MOL   C21423134   5.649   6.716   3.736  0.4315 -0.1990 -0.5819
   61MOL   C21523135   5.784   6.718   3.812 -0.0402 -0.2894  0.0797
   61MOL   C21623136   5.907   6.720   3.720  0.3030  0.4290  0.4214
   61MOL   C21723137   5.523   6.765   3.805  0.5874  0.5256 -0.2334
   61MOL   H21823138   5.412   6.775   3.623  1.1366  0.1901 -0.1631
   61MOL   H21923139   5.419   6.491   3.744 -0.3370  0.9816  0.0570
   61MOL   H22023140   5.416   6.537   3.578 -1.5430  1.3527  0.0632
   61MOL   H22123141   5.651   6.506   3.764  1.4378  0.9773 -1.2223
   61MOL   H22223142   5.668   6.554   3.594  1.5036  3.5078 -0.4112
   61MOL   H22323143   5.662   6.776   3.646  0.3025 -0.3601 -0.7083
   61MOL   H22423144   5.791   6.639   3.887 -1.2001 -0.8406 -0.3819
   61MOL   H22523145   5.775   6.814   3.863 -0.4054 -0.1872 -0.1775
   61MOL   H22623146   5.944   6.623   3.689  0.2434  0.8446 -1.0303
   61MOL   H22723147   5.883   6.768   3.624  0.5487  0.9240  0.6065
   61MOL   H22823148   5.519   6.874   3.816  0.4061  0.4850  0.0942
   61MOL   H22923149   5.524   6.741   3.911  1.0639  1.0275 -0.1186
   61MOL   C23023150   6.022   6.780   3.793  0.0095 -0.5011 -0.2660
   61MOL   C23123151   6.143   6.817   3.724  0.3149 -0.0733  0.4309
   61MOL   C23223152   6.253   6.804   3.824 -0.5939 -0.5907  0.5085
   61MOL   C23323153   6.206   6.678   3.897  0.6683 -0.4042  0.2240
   61MOL   C23423154   6.275   6.675   4.035  0.2464 -0.2555 -0.3365
   61MOL   C23523155   6.434   6.656   4.040  0.6732 -0.1125 -0.1104
   61MOL   C23623156   6.059   6.686   3.904  0.3296  0.1618  0.8218
   61MOL   H23723157   5.993   6.876   3.837  2.6733 -0.1017  0.7198
   61MOL   H23823158   6.170   6.742   3.649  3.0467 -1.0967  2.3530
   61MOL   H23923159   6.141   6.910   3.667  0.5641 -0.9608 -1.0532
   61MOL   H24023160   6.255   6.896   3.882 -0.9247  2.2503 -3.7783
   61MOL   H24123161   6.348   6.810   3.772 -0.9518 -1.0825 -0.2197
   61MOL   H24223162   6.234   6.588   3.841 -0.4536  0.4650 -1.7864
   61MOL   H24323163   6.234   6.598   4.100 -1.1234  0.7935  0.0680
   61MOL   H24423164   6.255   6.762   4.099 -0.2257  1.2985 -2.5457
   61MOL   H24523165   6.484   6.716   3.964  1.0551 -0.8766 -0.4625
   61MOL   H24623166   6.474   6.708   4.127  0.3938 -1.0625  0.5844
   61MOL   H24723167   6.023   6.721   4.001  2.8530  0.8994  1.5276
   61MOL   H24823168   6.022   6.585   3.888 -3.1561  1.2531  1.6400
   61MOL   C24923169   6.489   6.516   4.048  0.3702 -0.5303  0.4356
   61MOL   C25023170   6.460   6.424   3.924 -0.1215 -0.6743  0.9698
   61MOL   C25123171   6.586   6.331   3.916  0.5168  0.4729 -0.6767
   61MOL   C25223172   6.698   6.438   3.956 -0.4492 -0.5877 -0.0121
   61MOL   C25323173   6.837   6.376   3.970  0.0407 -0.1590 -0.0621
   61MOL   C25423174   6.895   6.339   3.831  0.2216 -0.6583 -0.1061
   61MOL   C25523175   6.641   6.515   4.073 -0.0396  0.3184  0.1906
   61MOL   H25623176   6.448   6.468   4.137  1.2800 -2.2883 -0.0674
   61MOL   H25723177   6.371   6.362   3.923 -2.0508  2.0087 -1.8277
   61MOL   H25823178   6.460   6.492   3.839  1.6957 -0.7725  0.8797
   61MOL   H25923179   6.603   6.283   3.819  0.9805  0.3128 -0.5182
   61MOL   H26023180   6.576   6.257   3.995 -0.1483  1.4053  0.1250
   61MOL   H26123181   6.705   6.509   3.874 -0.4264 -0.3885  0.1631
   61MOL   H26223182   6.820   6.288   4.032 -1.6317 -0.2207 -0.5915
   61MOL   H26323183   6.906   6.439   4.026  0.7683 -0.7685 -0.2601
   61MOL   H26423184   6.817   6.278   3.784  0.1527 -0.4349 -0.2833
   61MOL   H26523185   6.982   6.278   3.853  2.1551  1.4043 -1.8217
   61MOL   H26623186   6.682   6.616   4.065 -0.8383  0.4960 -2.1540
   61MOL   H26723187   6.664   6.463   4.165 -0.3211  0.5370  0.3860
   61MOL   C26823188   6.938   6.448   3.738  0.9902  0.6056 -0.3941
   61MOL   C26923189   7.004   6.398   3.604 -0.5560  0.2923  0.3632
   61MOL   C27023190   7.125   6.505   3.585 -0.2328 -0.4186 -0.6935
   61MOL   C27123191   7.086   6.628   3.663  0.3819  0.4809  0.1528
   61MOL   C27223192   7.206   6.726   3.699 -0.1604 -0.2888 -0.5323
   61MOL   C27323193   7.296   6.765   3.577 -0.0291 -0.5887  0.2400
   61MOL   C27423194   7.020   6.567   3.789  0.3710  0.2708 -0.6555
   61MOL   H27523195   6.841   6.493   3.713 -0.0025 -1.3087 -0.0881
   61MOL   H27623196   7.047   6.299   3.594 -1.8999 -0.2197 -0.4161
   61MOL   H27723197   6.931   6.396   3.523  0.2092  0.1678 -0.3237
   61MOL   H27823198   7.213   6.467   3.636 -1.4636 -2.1773  0.2091
   61MOL   H27923199   7.150   6.539   3.484 -3.2892  0.0975 -1.3396
   61MOL   H28023200   7.018   6.690   3.605 -1.7331 -0.6830  1.3294
   61MOL   H28123201   7.265   6.680   3.778  0.2913  0.7393 -0.2668
   61MOL   H28223202   7.172   6.815   3.752  0.4007  0.0913 -0.8127
   61MOL   H28323203   7.377   6.829   3.614 -1.5614  1.4537  0.1337
   61MOL   H28423204   7.342   6.678   3.531 -1.8680 -1.3800 -0.1366
   61MOL   H28523205   7.089   6.510   3.851 -0.5446 -0.6468 -0.4566
   61MOL   H28623206   6.968   6.628   3.863  2.8339  0.1724  1.1977
   61MOL   C28723207   7.220   6.842   3.470 -0.8150 -0.3254  0.7712
   61MOL   C28823208   7.124   6.960   3.510 -0.0236 -0.6395  0.5855
   61MOL   C28923209   7.121   7.040   3.377  0.2234  0.3264  0.6407
   61MOL   C29023210   7.259   7.020   3.308  0.5384  0.2160  0.4339
   61MOL   C29123211   7.336   7.148   3.290  0.0833 -0.6312 -0.1221
   61MOL   C29223212   7.280   7.253   3.190  0.1930  0.3182 -0.1874
   61MOL   C29323213   7.328   6.910   3.382 -0.2142 -0.5102  0.5744
   61MOL   H29423214   7.172   6.771   3.403 -1.1939  1.7231 -1.1484
   61MOL   H29523215   7.028   6.913   3.534 -0.1057 -1.0781 -0.5404
   61MOL   H29623216   7.167   7.022   3.589  1.0349  2.3066 -2.1979
   61MOL   H29723217   7.078   7.140   3.385  2.1748  1.1888  0.7205
   61MOL   H29823218   7.048   6.992   3.313 -1.3496 -0.2372  2.8191
   61MOL   H29923219   7.256   6.972   3.210  2.2246  0.5294  0.2039
   61MOL   H30023220   7.437   7.129   3.253  0.1653 -0.9873  0.2818
   61MOL   H30123221   7.344   7.191   3.390  1.5779 -0.5070 -0.2804
   61MOL   H30223222   7.181   7.279   3.226  1.4802  0.9023  3.0575
   61MOL   H30323223   7.267   7.210   3.090 -2.5200  2.6944 -0.9224
   61MOL   H30423224   7.407   6.951   3.445  0.3622  4.0109 -2.8938
   61MOL   H30523225   7.381   6.847   3.310  0.6699  1.8864 -0.9190
   61MOL   C30623226   7.375   7.371   3.173  0.0478 -0.5546  0.1421
   61MOL   C30723227   7.505   7.342   3.093 -0.5083  0.6112  0.6852
   61MOL   C30823228   7.563   7.476   3.042 -0.1899  0.0663 -0.0250
   61MOL   C30923229   7.447   7.566   3.049  0.0859 -0.2984 -0.2785
   61MOL   C31023230   7.423   7.635   2.914 -0.2483  0.5230 -0.0723
   61MOL   C31123231   7.531   0.094   2.895 -0.7354 -0.2674 -0.1497
   61MOL   C31223232   7.323   7.489   3.098 -0.0908  0.7252 -0.0808
   61MOL   H31323233   7.405   7.418   3.267  1.3201 -1.4472  0.2055
   61MOL   H31423234   7.578   7.293   3.158 -0.1755 -0.7837 -0.6865
   61MOL   H31523235   7.491   7.269   3.013  3.4449 -1.0204  1.3690
   61MOL   H31623236   0.001   7.502   3.105 -1.9210 -1.1278  2.9361
   61MOL   H31723237   7.606   7.457   2.943  0.7768 -0.4273  0.4770
   61MOL   H31823238   7.468   7.637   3.130  1.3118 -0.8517 -0.1018
   61MOL   H31923239   7.425   7.573   2.825  0.6800  1.4448 -0.7104
   61MOL   H32023240   7.327   0.039   2.916 -0.4188  0.2795 -1.3667
   61MOL   H32123241   7.626   0.042   2.912 -0.7566 -0.7951 -1.5640
   61MOL   H32223242   7.525   0.173   2.971 -0.6984 -1.6155  1.2715
   61MOL   H32323243   7.271   7.453   3.010  0.6746  0.5556 -0.4703
   61MOL   H32423244   7.248   7.543   3.155 -0.3513 -1.3619  1.5952
   61MOL   C32523245   7.528   0.153   2.748  0.4357  0.4397 -1.1292
   61MOL   C32623246   7.587   0.299   2.752 -0.3483  0.7719  0.0204
   61MOL   C32723247   0.007   0.301   2.619  0.3978  0.3383  0.1366
   61MOL   C32823248   0.066   0.165   2.602  0.2718 -0.2455  0.2364
   61MOL   C32923249   0.108   0.136   2.454 -0.5024  0.0653  0.1495
   61MOL   C33023250   0.194   0.235   2.381 -0.3897 -0.2094 -0.2107
   61MOL   C33123251   7.609   0.069   2.658 -0.8321 -0.7133  0.3464
   61MOL   H33223252   7.425   0.151   2.712  0.2708  3.3596 -0.9509
   61MOL   H33323253   0.006   0.317   2.837  0.9887 -1.3993 -0.5161
   61MOL   H33423254   7.511   0.377   2.752  0.5167  1.6529  1.8399
   61MOL   H33523255   7.570   0.309   2.550  0.2742  0.0109  0.2471
   61MOL   H33623256   0.072   0.388   2.610  0.5844  0.2899  0.9966
   61MOL   H33723257   0.161   0.163   2.656  1.6006 -0.4245 -2.0193
   61MOL   H33823258   0.146   0.034   2.455 -1.5708 -0.3894 -2.1043
   61MOL   H33923259   0.015   0.124   2.399 -0.7995 -0.2904  0.7219
   61MOL   H34023260   0.147   0.330   2.354  2.9057  2.4714  2.9973
   61MOL   H34123261   0.277   0.244   2.451 -0.7338  0.2768  0.1379
   61MOL   H34223262   0.023   7.641   2.707 -0.5000 -1.8657 -1.7670
   61MOL   H34323263   7.541   0.019   2.588 -1.1365 -0.8382  0.7308
   61MOL   C34423264   0.258   0.171   2.261  0.2727  0.1145 -1.0060
   61MOL   C34523265   0.173   0.128   2.136 -0.0334 -0.2464  0.2121
   61MOL   C34623266   0.241   0.004   2.078 -0.0533 -0.0729 -0.8220
   61MOL   C34723267   0.286   7.584   2.200 -0.1834 -0.2819 -0.2503
   61MOL   C34823268   0.384   7.474   2.164 -0.1174  0.3846 -0.0609
   61MOL   C34923269   0.455   7.398   2.275  0.1122  0.1533  0.2902
   61MOL   C35023270   0.347   0.047   2.285 -0.3814  0.5456 -0.5021
   61MOL   H35123271   0.317   0.253   2.222  2.3085  0.1756  2.0095
   61MOL   H35223272   0.167   0.204   2.058  3.2064 -0.7793 -0.6116
   61MOL   H35323273   0.075   0.090   2.165  0.0406  0.3137  1.2226
   61MOL   H35423274   0.167   7.606   2.013 -2.8285  1.2100  1.3379
   61MOL   H35523275   0.330   0.031   2.021  0.7429  1.4199  1.0372
   61MOL   H35623276   0.207   7.534   2.256 -0.7038 -0.3497 -1.0522
   61MOL   H35723277   0.330   7.410   2.095  2.7296 -1.1332 -0.9825
   61MOL   H35823278   0.457   7.524   2.100 -0.5102 -0.7306 -1.4240
   61MOL   H35923279   0.376   7.346   2.328  0.2425  0.3279  0.6593
   61MOL   H36023280   0.500   7.456   2.356  0.9652 -0.8456  0.5354
   61MOL   H36123281   0.356   0.022   2.390  0.3812 -1.5903 -1.0612
   61MOL   H36223282   0.447   0.066   2.247 -0.2118  1.0309  0.1824
   61MOL   C36323283   0.561   7.311   2.213  0.0157 -0.8861 -0.7053
   61MOL   C36423284   0.513   7.190   2.125  0.5905  0.3204 -0.6973
   61MOL   C36523285   0.612   7.072   2.150 -0.5402  0.0244 -0.5575
   61MOL   C36623286   0.702   7.120   2.258  0.2292 -0.6150 -0.0081
   61MOL   C36723287   0.735   7.004   2.354 -0.1099  0.1379  0.3132
   61MOL   C36823288   0.819   7.034   2.475 -0.2303 -0.2003  0.5909
   61MOL   C36923289   0.631   7.240   2.329  0.1435  0.5415  0.0136
   61MOL   H37023290   0.634   7.371   2.159 -0.3454 -0.1274 -0.3663
   61MOL   H37123291   0.413   7.160   2.156  0.6121  0.7711 -0.1910
   61MOL   H37223292   0.500   7.211   2.019 -1.3593  1.2292 -0.3030
   61MOL   H37323293   0.556   6.989   2.192  0.1597  0.8159  2.0543
   61MOL   H37423294   0.668   7.036   2.064 -0.7092 -0.2126 -0.5676
   61MOL   H37523295   0.794   7.160   2.216  0.8095 -1.2362  0.6709
   61MOL   H37623296   0.648   6.960   2.403 -0.7976 -0.5011 -1.4534
   61MOL   H37723297   0.792   6.934   2.294  0.2585  0.2950  0.4817
   61MOL   H37823298   0.845   6.945   2.532  2.2602 -0.2067 -0.5224
   61MOL   H37923299   0.764   7.107   2.534  0.0169 -0.8939  1.6929
   61MOL   H38023300   0.556   7.197   2.395 -2.8078  1.3345 -2.6640
   61MOL   H38123301   0.694   7.295   2.397  0.4625 -2.4473  2.2606
   61MOL   H38223302   0.907   7.086   2.438 -0.9948  1.7819  1.4598
   62MOL     C123303   0.689   2.581   6.479 -0.1574  0.7430  0.5240
   62MOL     C223304   0.750   2.653   6.362  0.3771 -0.2455  0.6050
   62MOL     C323305   0.817   2.542   6.281  0.8300  0.3486 -0.6925
   62MOL     C423306   0.757   2.409   6.324  0.2491  0.0320  0.3611
   62MOL     C523307   0.864   2.321   6.391  0.0508  0.2214  0.1628
   62MOL     C623308   0.824   2.180   6.430  0.3485 -1.2096 -0.6865
   62MOL     C723309   0.640   2.445   6.417 -0.2670 -0.9267  0.4013
   62MOL     H823310   0.762   2.573   6.560  1.2150  3.3381 -0.4164
   62MOL     H923311   0.814   2.732   6.400  1.9475 -1.9154  1.5024
   62MOL    H1023312   0.664   2.694   6.309 -0.7046 -1.9245  1.0307
   62MOL    H1123313   0.803   2.560   6.174 -0.3046 -2.7164 -1.1064
   62MOL    H1223314   0.926   2.546   6.280  0.9180  1.0991  3.5987
   62MOL    H1323315   0.734   2.362   6.229 -1.4755  0.8137  0.3808
   62MOL    H1423316   0.948   2.303   6.324 -0.5108  2.5617 -1.2487
   62MOL    H1523317   0.908   2.373   6.476  1.2666  0.4124 -0.5687
   62MOL    H1623318   0.736   2.196   6.493  0.3577  0.9094 -1.1676
   62MOL    H1723319   0.785   2.129   6.342 -0.8691  0.9768 -1.4701
   62MOL    H1823320   0.556   2.467   6.351 -0.4156  1.0669  1.2118
   62MOL    H1923321   0.608   2.382   6.501 -0.9985 -0.5248  0.4350
   62MOL    H2023322   0.612   2.636   6.533  0.0590  0.0684  1.5414
   62MOL    C2123323   0.930   2.100   6.495  0.6170 -0.4426  0.3893
   62MOL    C2223324   0.879   1.976   6.569 -0.3291  1.1442  0.0175
   62MOL    C2323325   0.990   1.874   6.559  0.6103  0.3139  0.0353
   62MOL    C2423326   1.089   1.919   6.454  0.4419 -0.0429 -0.5360
   62MOL    C2523327   1.114   1.815   6.340  0.0545  1.2042  0.6249
   62MOL    C2623328   1.190   1.865   6.219  0.1170  0.6697  0.2111
   62MOL    C2723329   1.027   2.044   6.390  0.4668  0.0787  0.4464
   62MOL    H2823330   0.983   2.164   6.565  1.1880 -0.2378 -0.2215
   62MOL    H2923331   0.851   1.983   6.674  0.3885 -2.2247  0.4859
   62MOL    H3023332   0.796   1.932   6.513  2.4974 -1.6202 -2.1508
   62MOL    H3123333   1.051   1.870   6.650  1.4184  1.1794 -0.4527
   62MOL    H3223334   0.947   1.776   6.542 -0.3068  0.4453  1.4906
   62MOL    H3323335   1.189   1.932   6.497  0.3574  2.3468 -1.0168
   62MOL    H3423336   1.020   1.773   6.304  0.5179 -1.2201  2.1667
   62MOL    H3523337   1.158   1.729   6.390 -1.0745  0.7888  0.9252
   62MOL    H3623338   1.283   1.904   6.260  0.9505  1.1014 -2.0285
   62MOL    H3723339   1.149   1.950   6.166 -1.6830 -0.2494  0.1007
   62MOL    H3823340   1.097   2.118   6.351 -0.9698  0.9355 -0.5358
   62MOL    H3923341   0.969   2.012   6.304  0.2594 -0.6960  0.8639
   62MOL    C4023342   1.228   1.762   6.110  0.1125  0.2879  0.0997
   62MOL    C4123343   1.308   1.821   5.992  0.2884  0.3906 -0.5225
   62MOL    C4223344   1.366   1.696   5.918  0.1815  0.4048 -0.0061
   62MOL    C4323345   1.365   1.579   6.020  0.5341 -0.3672 -0.9456
   62MOL    C4423346   1.270   1.463   5.998  0.2164 -0.7673 -0.3340
   62MOL    C4523347   1.325   1.360   5.901 -0.5544  0.2571  0.0982
   62MOL    C4623348   1.320   1.651   6.155 -0.3553 -0.0047  0.5307
   62MOL    H4723349   1.138   1.711   6.076 -0.4879 -0.2454  2.4261
   62MOL    H4823350   1.386   1.888   6.028  1.6926 -1.5867  0.2008
   62MOL    H4923351   1.236   1.871   5.927  0.3116  2.5789  1.1000
   62MOL    H5023352   1.298   1.665   5.839 -1.3088  2.9429  0.2399
   62MOL    H5123353   1.460   1.722   5.869  0.0683 -0.6633 -0.8183
   62MOL    H5223354   1.465   1.540   6.035  0.0195 -1.5052 -0.4685
   62MOL    H5323355   1.246   1.416   6.093  2.1767  0.0489  0.5885
   62MOL    H5423356   1.173   1.498   5.961 -0.7042 -1.6837  1.1361
   62MOL    H5523357   1.416   1.336   5.956  0.6866  0.2602 -1.9323
   62MOL    H5623358   1.349   1.400   5.803 -1.0454 -0.5543 -0.3611
   62MOL    H5723359   1.260   1.600   6.230  0.4261  0.5692  1.5567
   62MOL    H5823360   1.404   1.693   6.210 -2.2268  1.3425  2.4273
   62MOL    C5923361   1.248   1.228   5.880  0.2946 -0.5081 -0.4168
   62MOL    C6023362   1.326   1.123   5.797  0.0466  0.8516  0.4494
   62MOL    C6123363   1.276   0.983   5.842  0.1216 -0.2098  0.3213
   62MOL    C6223364   1.262   1.011   5.992  0.3461 -0.1803 -0.9085
   62MOL    C6323365   1.171   0.905   6.057  0.5321  0.3382 -0.3127
   62MOL    C6423366   1.018   0.909   6.027 -0.0713 -0.3999 -0.0313
   62MOL    C6523367   1.220   1.155   6.014 -0.3451 -0.1334 -0.2598
   62MOL    H6623368   1.150   1.251   5.839  1.2371  2.7333 -0.9674
   62MOL    H6723369   1.321   1.136   5.689 -0.5749 -0.7189  0.2821
   62MOL    H6823370   1.435   1.121   5.809  0.0036 -1.0355  0.6479
   62MOL    H6923371   1.174   0.971   5.804 -0.0557  1.5528  0.2022
   62MOL    H7023372   1.344   0.899   5.824  1.6977  1.7834 -3.8369
   62MOL    H7123373   1.357   1.011   6.046  0.8407 -2.7885 -1.7181
   62MOL    H7223374   1.192   0.920   6.163 -1.6563 -1.8784  0.4747
   62MOL    H7323375   1.210   0.806   6.037  1.4134  0.7702 -0.8047
   62MOL    H7423376   0.974   1.005   6.055 -0.2490 -0.2436 -0.8243
   62MOL    H7523377   0.998   0.909   5.919 -3.9201  0.3137  0.6152
   62MOL    H7623378   1.113   1.153   6.034 -0.2005 -0.2677  0.5092
   62MOL    H7723379   1.275   1.189   6.101  0.1545 -1.8516  0.1278
   62MOL    C7823380   0.934   0.793   6.082 -0.0866 -0.8192  0.3542
   62MOL    C7923381   0.782   0.806   6.051 -0.4671 -0.1683  0.1820
   62MOL    C8023382   0.721   0.670   6.064 -0.7087  1.0204  0.4207
   62MOL    C8123383   0.837   0.573   6.066 -0.6360 -0.2035  1.3327
   62MOL    C8223384   0.800   0.441   5.981  0.2381 -0.3447  0.0623
   62MOL    C8323385   0.925   0.359   5.958  0.1174 -1.0921  0.8729
   62MOL    C8423386   0.950   0.657   6.010  0.3928 -0.4716 -0.2823
   62MOL    H8523387   0.954   0.781   6.189 -0.9226 -0.8882  0.5057
   62MOL    H8623388   0.736   0.882   6.115  0.6181  0.0386  0.7413
   62MOL    H8723389   0.778   0.845   5.950  3.0099  0.3822  0.1821
   62MOL    H8823390   0.669   0.659   6.159  0.8070  0.7657  1.2383
   62MOL    H8923391   0.654   0.643   5.982  1.0276 -2.0318 -0.0605
   62MOL    H9023392   0.865   0.549   6.169  0.7163 -4.8231  0.0105
   62MOL    H9123393   0.763   0.479   5.886 -0.6549 -0.7029  0.2655
   62MOL    H9223394   0.723   0.383   6.032  3.1907 -2.6953  1.9616
   62MOL    H9323395   0.979   0.340   6.051 -0.9208 -0.5514  1.5926
   62MOL    H9423396   0.984   0.419   5.889  1.1028 -0.2475  2.4146
   62MOL    H9523397   0.958   0.676   5.903  1.1466  2.1311  0.2027
   62MOL    H9623398   1.043   0.612   6.045 -0.2036 -1.3986  0.1487
   62MOL    C9723399   0.897   0.221   5.904  0.2260 -0.4322 -0.3527
   62MOL    C9823400   1.019   0.149   5.858 -0.7301 -0.6203 -0.2113
   62MOL    C9923401   1.002   0.100   5.719 -0.0227  0.8186  0.0140
   62MOL   C10023402   0.854   0.090   5.705 -0.8064  0.2013  0.1822
   62MOL   C10123403   0.812   0.108   5.557  0.1113  0.2458  0.0135
   62MOL   C10223404   0.662   0.098   5.551 -0.4571 -0.4795 -0.6677
   62MOL   C10323405   0.803   0.210   5.786  0.2035  0.3738  0.4007
   62MOL   H10423406   0.846   0.159   5.978 -0.2601 -0.8200 -1.0079
   62MOL   H10523407   1.106   0.213   5.874 -1.0219 -0.5341  1.1076
   62MOL   H10623408   1.041   0.063   5.921 -1.4312 -0.3589  0.3981
   62MOL   H10723409   1.046   0.166   5.644  1.3097  2.6140  2.2844
   62MOL   H10823410   1.058   0.007   5.709 -0.9740  0.4526 -2.0160
   62MOL   H10923411   0.825   7.647   5.759 -0.4162 -1.4142 -2.2337
   62MOL   H11023412   0.842   0.207   5.523  1.3799 -1.0734 -2.9740
   62MOL   H11123413   0.860   0.035   5.491  1.5599 -0.0909  1.4389
   62MOL   H11223414   0.637   0.007   5.606  0.2396 -0.5361 -0.4359
   62MOL   H11323415   0.614   0.178   5.607  0.3504 -0.8168  0.5312
   62MOL   H11423416   0.784   0.303   5.731 -2.7711  0.2004  1.0645
   62MOL   H11523417   0.701   0.185   5.813 -0.2103  2.5372  0.9338
   62MOL   C11623418   0.619   0.077   5.412 -0.4997 -0.2743 -0.1356
   62MOL   C11723419   0.471   0.015   5.396  0.1400  0.3145 -0.5386
   62MOL   C11823420   0.378   0.132   5.337 -0.7329  0.3565 -1.1663
   62MOL   C11923421   0.481   0.205   5.252 -0.6204  0.3003  0.6402
   62MOL   C12023422   0.427   0.330   5.192 -1.1117  0.1610  0.6998
   62MOL   C12123423   0.528   0.409   5.103  0.1671 -0.6196  0.5173
   62MOL   C12223424   0.610   0.211   5.331  0.3824  0.4257  0.0720
   62MOL   H12323425   0.691   0.012   5.363  0.4070  0.4525  0.2059
   62MOL   H12423426   0.421   7.608   5.476 -1.3003  0.6635 -1.1913
   62MOL   H12523427   0.474   7.586   5.317 -0.0369  0.9630 -1.1780
   62MOL   H12623428   0.342   0.180   5.428  1.3314  0.6531 -0.4795
   62MOL   H12723429   0.294   0.098   5.278 -0.5734 -0.9506 -0.6469
   62MOL   H12823430   0.496   0.130   5.174 -1.8276 -0.2161  0.8948
   62MOL   H12923431   0.392   0.388   5.278  0.4633  0.7706  0.9505
   62MOL   H13023432   0.343   0.304   5.127 -0.5190 -2.4072  0.9160
   62MOL   H13123433   0.556   0.352   5.015 -0.3105 -0.8490  0.5143
   62MOL   H13223434   0.614   0.428   5.168  1.1211 -1.6314 -0.4412
   62MOL   H13323435   0.698   0.232   5.269  1.4426 -0.2246  1.3396
   62MOL   H13423436   0.613   0.294   5.401  2.1659  1.3468 -1.0415
   62MOL   C13523437   0.463   0.548   5.069  0.3087  0.1469 -0.2262
   62MOL   C13623438   0.467   0.651   5.181 -0.0863 -0.2243  0.0385
   62MOL   C13723439   0.451   0.787   5.100  0.3792  0.6118 -0.2769
   62MOL   C13823440   0.537   0.764   4.971  0.1004  0.4113  0.2175
   62MOL   C13923441   0.509   0.873   4.874 -0.9082  0.4149  0.0666
   62MOL   C14023442   0.618   0.881   4.769  0.0125 -0.0250  0.7860
   62MOL   C14123443   0.521   0.615   4.940 -0.2519  0.0823  0.1354
   62MOL   H14223444   0.357   0.534   5.046  0.3888  0.1787 -0.6181
   62MOL   H14323445   0.387   0.631   5.253 -1.6571 -0.4808 -1.7410
   62MOL   H14423446   0.562   0.649   5.234  0.9855  0.3138 -1.8327
   62MOL   H14523447   0.346   0.804   5.076  0.2151 -1.3628 -1.1258
   62MOL   H14623448   0.497   0.861   5.164  0.9497 -1.4861  1.8109
   62MOL   H14723449   0.644   0.779   4.989  0.9808 -3.9434 -0.7921
   62MOL   H14823450   0.505   0.964   4.932 -0.7680  0.7036 -0.3726
   62MOL   H14923451   0.414   0.855   4.824 -1.1870 -1.8250  1.3550
   62MOL   H15023452   0.708   0.938   4.787  0.0940 -0.1226  0.6858
   62MOL   H15123453   0.637   0.784   4.724 -2.0840 -0.1329  0.0602
   62MOL   H15223454   0.620   0.579   4.914  0.5750  1.6194  1.0660
   62MOL   H15323455   0.454   0.613   4.854 -0.3215  0.9777  0.1557
   62MOL   C15423456   0.569   0.964   4.646 -0.2251  0.1202  0.0759
   62MOL   C15523457   0.467   0.880   4.561  0.1430 -0.1489  0.7388
   62MOL   C15623458   0.547   0.828   4.451 -0.0104  0.3437 -0.5501
   62MOL   C15723459   0.637   0.948   4.413  0.0102  0.3681 -0.5561
   62MOL   C15823460   0.754   0.906   4.320 -0.2103  0.3101  0.9547
   62MOL   C15923461   0.808   1.029   4.237  0.7307  0.4054 -0.0004
   62MOL   C16023462   0.685   0.998   4.546  0.1002  0.9642 -0.5456
   62MOL   H16123463   0.526   1.059   4.679  1.8022  1.2757 -0.5501
   62MOL   H16223464   0.412   0.806   4.620 -0.5512  0.0951  0.4135
   62MOL   H16323465   0.394   0.943   4.510  2.3997  1.2232 -0.8794
   62MOL   H16423466   0.603   0.740   4.482 -0.4644  0.2965  0.1584
   62MOL   H16523467   0.483   0.784   4.375  0.2077 -1.0302  0.0537
   62MOL   H16623468   0.578   1.027   4.366 -0.3619  0.7940  0.6205
   62MOL   H16723469   0.723   0.826   4.252  1.8788  0.4395 -0.1819
   62MOL   H16823470   0.837   0.871   4.382  0.2673  0.7521  0.5614
   62MOL   H16923471   0.721   1.075   4.190  1.7295 -0.3793 -2.7145
   62MOL   H17023472   0.851   1.105   4.301 -0.3883  1.7354 -0.7946
   62MOL   H17123473   0.707   1.105   4.541  2.4420  0.4820 -1.3086
   62MOL   H17223474   0.780   0.950   4.566 -1.3904 -1.4840  0.8738
   62MOL   C17323475   0.905   0.983   4.119 -0.3733  0.3371  0.6567
   62MOL   C17423476   0.979   1.098   4.056  0.4572  0.0506 -0.3675
   62MOL   C17523477   1.109   1.042   3.987  0.2431 -0.5859 -0.1490
   62MOL   C17623478   1.115   0.889   4.039  0.2587 -0.6522  0.3669
   62MOL   C17723479   1.255   0.858   4.086  0.5841  0.4832 -0.5013
   62MOL   C17823480   1.356   0.825   3.974 -0.2287 -0.0888 -0.3107
   62MOL   C17923481   1.017   0.885   4.154  0.1512  0.5539 -0.9056
   62MOL   H18023482   0.843   0.930   4.047  1.1711 -1.6218  0.7366
   62MOL   H18123483   1.006   1.168   4.134 -1.3700  0.4671 -0.0877
   62MOL   H18223484   0.915   1.160   3.993 -0.4056  0.2789  0.7279
   62MOL   H18323485   1.096   1.053   3.880  1.2859 -0.3708 -0.2658
   62MOL   H18423486   1.195   1.095   4.029 -0.0552  0.3625 -0.7056
   62MOL   H18523487   1.096   0.827   3.952  0.7981 -0.6734  0.2637
   62MOL   H18623488   1.240   0.766   4.142  1.0949 -0.0338 -1.1929
   62MOL   H18723489   1.288   0.929   4.162  2.0890  2.6513 -3.0874
   62MOL   H18823490   1.456   0.815   4.017 -0.2658 -0.8038 -0.3768
   62MOL   H18923491   1.361   0.914   3.911  3.9826 -0.0815 -0.1679
   62MOL   H19023492   1.066   0.903   4.250 -0.3865  0.8383 -0.6820
   62MOL   H19123493   0.988   0.781   4.168  2.7489 -0.0817  0.1462
   62MOL   C19223494   1.331   0.700   3.886  0.5843  0.4019  0.4536
   62MOL   C19323495   1.412   0.578   3.928  0.6278 -0.0095  0.0845
   62MOL   C19423496   1.402   0.489   3.806 -0.3933 -0.2390  0.0478
   62MOL   C19523497   1.397   0.575   3.679  0.2984 -0.0685 -0.4949
   62MOL   C19623498   1.282   0.533   3.585 -0.7859 -0.3146 -0.3692
   62MOL   C19723499   1.311   0.413   3.496 -0.1793  0.1583 -0.0705
   62MOL   C19823500   1.369   0.721   3.739 -0.2429  0.6189  0.2126
   62MOL   H19923501   1.229   0.661   3.892  0.0207  1.6269 -0.9023
   62MOL   H20023502   1.514   0.612   3.945  0.7276 -0.4229  0.3018
   62MOL   H20123503   1.370   0.541   4.022  1.1908 -2.4877 -0.6248
   62MOL   H20223504   1.312   0.428   3.796 -1.0642  0.3679  2.1617
   62MOL   H20323505   1.487   0.422   3.799 -0.1455  0.1650 -0.8709
   62MOL   H20423506   1.494   0.583   3.629  0.2940 -2.4953 -0.9319
   62MOL   H20523507   1.266   0.614   3.514 -0.3796 -1.6351 -2.0141
   62MOL   H20623508   1.184   0.522   3.631 -1.0905  0.1148 -0.9146
   62MOL   H20723509   1.367   0.332   3.543  0.4133  0.5008 -0.1816
   62MOL   H20823510   1.384   0.448   3.424 -1.0027  0.8506 -0.5891
   62MOL   H20923511   1.286   0.772   3.691 -0.8566  0.0032  0.6130
   62MOL   H21023512   1.458   0.783   3.730  0.5704 -0.4765  0.5842
   62MOL   C21123513   1.192   0.357   3.415 -0.7061  0.0738 -0.7953
   62MOL   C21223514   1.233   0.245   3.327 -0.0912 -0.0892  0.3835
   62MOL   C21323515   1.177   0.278   3.186 -0.5964  0.1744  0.0995
   62MOL   C21423516   1.065   0.384   3.201 -0.3998  0.0544 -0.2098
   62MOL   C21523517   1.028   0.473   3.078 -1.0337  0.0077 -0.1293
   62MOL   C21623518   0.982   0.388   2.956 -0.2688 -0.0426 -0.1336
   62MOL   C21723519   1.124   0.455   3.322 -0.2521 -0.3764 -0.0514
   62MOL   H21823520   1.112   0.323   3.481  1.8960 -0.9134  1.9848
   62MOL   H21923521   1.342   0.243   3.315 -0.1209 -1.6568  0.3406
   62MOL   H22023522   1.200   0.148   3.363  0.5152 -1.0665 -1.6040
   62MOL   H22123523   1.257   0.327   3.130 -1.3645  0.3539 -0.8466
   62MOL   H22223524   1.161   0.184   3.133 -2.3182 -0.6575  2.0523
   62MOL   H22323525   0.975   0.330   3.230 -0.7480  0.2840 -0.8687
   62MOL   H22423526   1.116   0.533   3.051  0.8277 -2.2642  0.7177
   62MOL   H22523527   0.955   0.547   3.112 -0.3542  0.7616 -0.2852
   62MOL   H22623528   1.066   0.320   2.942 -0.5000 -0.5312  0.8017
   62MOL   H22723529   0.903   0.316   2.974  0.4326 -1.2435 -1.7768
   62MOL   H22823530   1.054   0.514   3.380  0.8688  1.5579 -0.6214
   62MOL   H22923531   1.187   0.533   3.279 -1.1096 -0.1357 -0.8879
   62MOL   C23023532   0.969   0.471   2.835  0.4691 -0.0309  0.1470
   62MOL   C23123533   0.839   0.550   2.822 -0.9219  0.2591 -0.6572
   62MOL   C23223534   0.838   0.588   2.674  0.5417  0.0485  0.3485
   62MOL   C23323535   0.925   0.484   2.598 -0.0430  0.2894  0.4036
   62MOL   C23423536   1.041   0.537   2.514 -0.2173 -0.1000  0.2407
   62MOL   C23523537   1.099   0.438   2.414  0.9971 -0.7304  0.6010
   62MOL   C23623538   0.976   0.385   2.708  0.7268 -0.1263  0.0738
   62MOL   H23723539   1.058   0.533   2.846 -0.5090  1.1585  1.5721
   62MOL   H23823540   0.749   0.492   2.845 -0.5423 -0.1041 -0.0804
   62MOL   H23923541   0.849   0.644   2.877 -0.0532  0.5259 -1.2640
   62MOL   H24023542   0.882   0.685   2.652  0.1681 -0.0464 -0.8544
   62MOL   H24123543   0.734   0.590   2.642  0.2970  0.6494  1.1685
   62MOL   H24223544   0.861   0.421   2.537  0.3821  0.5966 -0.3665
   62MOL   H24323545   1.123   0.579   2.573  0.5906 -0.6972 -0.4593
   62MOL   H24423546   0.998   0.627   2.470 -0.9290 -0.8409 -0.5926
   62MOL   H24523547   1.164   0.363   2.459  1.3772 -1.2753 -0.8095
   62MOL   H24623548   1.028   0.379   2.357  2.9798 -2.4268 -0.1679
   62MOL   H24723549   1.078   0.351   2.695  1.0563  0.6730  0.5198
   62MOL   H24823550   0.913   0.296   2.712  1.2293 -0.5661 -1.4200
   62MOL   C24923551   1.163   0.521   2.304 -0.4664 -0.1001  0.5885
   62MOL   C25023552   1.292   0.572   2.365 -0.0790 -0.5919 -0.7910
   62MOL   C25123553   1.373   0.614   2.245  0.2282  1.1984 -0.8293
   62MOL   C25223554   1.352   0.498   2.149 -0.2471 -0.5406  1.0057
   62MOL   C25323555   1.363   0.546   2.000  0.0326 -0.3743 -0.0434
   62MOL   C25423556   1.500   0.601   1.965 -0.2240 -0.3165 -0.1146
   62MOL   C25523557   1.216   0.441   2.189 -0.6717 -0.3175  0.0592
   62MOL   H25623558   1.104   0.605   2.269  1.2586  1.0505  0.3377
   62MOL   H25723559   1.279   0.653   2.437 -1.0114 -1.4058 -0.0179
   62MOL   H25823560   1.354   0.493   2.407  0.2508  1.6798  3.2460
   62MOL   H25923561   1.477   0.625   2.275  0.8165  0.1406 -2.4421
   62MOL   H26023562   1.327   0.707   2.210 -0.0986  1.3733  0.0416
   62MOL   H26123563   1.425   0.418   2.168  1.9202  1.0521 -0.3598
   62MOL   H26223564   1.285   0.622   1.988  1.3991  1.3235  1.5942
   62MOL   H26323565   1.334   0.479   1.920  0.3058  0.2811 -0.7022
   62MOL   H26423566   1.526   0.686   2.028  0.1238 -0.1071 -0.5374
   62MOL   H26523567   1.498   0.635   1.861  0.2184 -1.9764 -0.6906
   62MOL   H26623568   1.244   0.341   2.221 -0.5857 -0.6622 -1.0706
   62MOL   H26723569   1.139   0.440   2.112  1.0210 -1.3417 -1.6621
   62MOL   C26823570   1.617   0.494   1.957 -0.1475 -0.0332  0.0101
   62MOL   C26923571   1.743   0.544   1.893  0.6367  0.0754  0.0710
   62MOL   C27023572   1.789   0.436   1.793  0.5743  0.7239 -0.1580
   62MOL   C27123573   1.711   0.305   1.829  0.1766  0.4227 -0.5078
   62MOL   C27223574   1.694   0.200   1.717  0.8103 -0.0714  0.3345
   62MOL   C27323575   1.612   0.074   1.752 -0.0449 -0.6358 -0.0371
   62MOL   C27423576   1.581   0.360   1.879  0.7107 -0.5720  0.3830
   62MOL   H27523577   1.645   0.460   2.056  0.3229  0.1273 -0.0662
   62MOL   H27623578   1.735   0.641   1.844 -1.1120 -0.1753 -0.1555
   62MOL   H27723579   1.811   0.557   1.978 -0.4189  0.7716  0.8288
   62MOL   H27823580   1.753   0.447   1.690 -0.4791 -1.0125 -0.0086
   62MOL   H27923581   1.897   0.422   1.794  0.5208  0.3165  0.0967
   62MOL   H28023582   1.759   0.267   1.919  0.0890  1.6380  0.0602
   62MOL   H28123583   1.788   0.172   1.668 -0.2699  0.5240 -2.1420
   62MOL   H28223584   1.655   0.251   1.629  1.3251  1.0232  0.7307
   62MOL   H28323585   1.648   0.033   1.847  1.0014 -0.3696 -0.3146
   62MOL   H28423586   1.504   0.088   1.759 -0.4222 -2.1322 -2.3240
   62MOL   H28523587   1.509   0.376   1.799  0.8227  2.4738  0.8017
   62MOL   H28623588   1.539   0.281   1.941  0.7384 -0.0072  1.1329
   62MOL   C28723589   1.637   7.605   1.657 -0.2581 -0.0035 -0.4652
   62MOL   C28823590   1.561   7.481   1.702 -0.2242 -0.6261 -0.4583
   62MOL   C28923591   1.457   7.460   1.599  0.7551 -0.2980 -0.2187
   62MOL   C29023592   1.520   7.512   1.468  0.2756  0.8160  0.3670
   62MOL   C29123593   1.427   7.551   1.346  0.4529 -0.2585  0.1272
   62MOL   C29223594   1.498   7.605   1.218  0.0737  0.1120 -0.1930
   62MOL   C29323595   1.590   7.635   1.517  0.1649 -0.3366 -0.3631
   62MOL   H29423596   1.743   7.579   1.658 -0.1034  0.6060  0.5957
   62MOL   H29523597   1.634   7.400   1.705  0.9467  0.4485  0.3367
   62MOL   H29623598   1.519   7.493   1.802  0.6939 -0.2846 -0.1103
   62MOL   H29723599   1.369   7.519   1.621  0.5034  0.1120 -2.2511
   62MOL   H29823600   1.422   7.357   1.598  1.4587 -0.5632 -4.0334
   62MOL   H29923601   1.581   7.425   1.442 -1.5664  0.1582 -1.9129
   62MOL   H30023602   1.353   7.623   1.382 -0.3156  0.1951 -2.2406
   62MOL   H30123603   1.355   7.472   1.323  0.1621 -0.0855  0.4346
   62MOL   H30223604   1.516   7.519   1.154 -1.4964 -0.0426 -0.4328
   62MOL   H30323605   1.599   7.642   1.238  0.1898  0.7601 -1.8515
   62MOL   H30423606   1.523   0.073   1.523  1.4841  0.6143  1.6161
   62MOL   H30523607   1.678   0.000   1.453  0.2547 -3.1731 -0.8635
   62MOL   C30623608   1.427   0.068   1.138 -0.2091 -0.4044  0.2414
   62MOL   C30723609   1.435   0.210   1.199 -0.1323  0.9060 -0.4004
   62MOL   C30823610   1.447   0.307   1.081  0.4263  0.7177  0.0524
   62MOL   C30923611   1.427   0.232   0.949 -0.8629  0.1750  0.0995
   62MOL   C31023612   1.507   0.285   0.825  0.4244  0.3482 -0.9136
   62MOL   C31123613   1.468   0.425   0.787 -0.1953  0.6674 -0.2496
   62MOL   C31223614   1.474   0.090   0.994 -0.0273 -0.0603  0.2355
   62MOL   H31323615   1.319   0.050   1.134  0.1785 -2.7766 -0.0111
   62MOL   H31423616   1.348   0.234   1.261  0.7768  0.4558  1.0788
   62MOL   H31523617   1.522   0.235   1.261 -0.6286 -0.2829  0.7944
   62MOL   H31623618   1.373   0.387   1.081  0.5551  0.8353  0.7442
   62MOL   H31723619   1.546   0.351   1.087  1.0117 -0.6039  0.2515
   62MOL   H31823620   1.320   0.240   0.926 -0.6995 -0.7884 -1.0563
   62MOL   H31923621   1.616   0.283   0.833  0.4755 -0.6807 -1.6729
   62MOL   H32023622   1.486   0.222   0.738  2.7599 -1.0199 -0.5483
   62MOL   H32123623   1.512   0.484   0.868  0.3530 -1.7669  1.2967
   62MOL   H32223624   1.365   0.457   0.799 -0.9996 -1.3215 -1.4896
   62MOL   H32323625   1.583   0.089   0.999 -0.0405  1.5807  1.2803
   62MOL   H32423626   1.444   0.014   0.922  1.0523 -2.4120  2.2203
   62MOL   C32523627   1.518   0.475   0.651  0.1771  0.0053 -0.5901
   62MOL   C32623628   1.460   0.396   0.530  0.1534 -0.8308  0.0681
   62MOL   C32723629   1.433   0.500   0.417  0.2290  0.3242 -0.1335
   62MOL   C32823630   1.392   0.625   0.486  0.3898  0.2469  0.5337
   62MOL   C32923631   1.403   0.759   0.412 -0.5522 -0.0728 -0.2620
   62MOL   C33023632   1.335   0.879   0.486  0.1004 -0.7603 -0.3626
   62MOL   C33123633   1.475   0.624   0.620  0.4828 -0.3531  0.7424
   62MOL   H33223634   1.627   0.482   0.657  0.4033 -0.7307 -3.0719
   62MOL   H33323635   1.375   0.332   0.554 -0.0078 -0.7218 -0.2170
   62MOL   H33423636   1.541   0.337   0.487 -1.9074 -3.3837 -0.4886
   62MOL   H33523637   1.531   0.508   0.370  1.2546 -1.4774  1.5959
   62MOL   H33623638   1.364   0.468   0.338  0.3795  1.2132 -0.6203
   62MOL   H33723639   1.287   0.614   0.512  0.9027 -1.4577  1.9574
   62MOL   H33823640   1.507   0.787   0.393 -0.1228 -0.1551  1.9057
   62MOL   H33923641   1.341   0.747   0.323 -1.0492  2.9463 -0.3842
   62MOL   H34023642   1.330   0.850   0.590  1.3542  1.6731  0.4094
   62MOL   H34123643   1.407   0.962   0.482  0.8619 -1.4874 -3.5883
   62MOL   H34223644   1.417   0.670   0.700 -0.1989  0.5225 -0.2471
   62MOL   H34323645   1.569   0.677   0.601 -0.8452  1.5918 -0.4973
   62MOL   C34423646   1.205   0.936   0.439  0.3631 -0.1505  0.8971
   62MOL   C34523647   1.133   1.031   0.538  0.1419  0.2686  0.0236
   62MOL   C34623648   0.979   1.014   0.499 -0.0098  0.0791 -0.2525
   62MOL   C34723649   0.963   0.864   0.469 -0.5827  0.1641 -0.1897
   62MOL   C34823650   0.837   0.838   0.382  0.2313  0.1947  0.1901
   62MOL   C34923651   0.809   0.690   0.360 -0.2469 -0.0198  0.0277
   62MOL   C35023652   1.100   0.815   0.407  0.0970 -0.3840 -0.0554
   62MOL   H35123653   1.216   0.983   0.342  1.8632 -2.0785  0.1051
   62MOL   H35223654   1.154   1.138   0.534  3.6611 -0.2473  2.3493
   62MOL   H35323655   1.152   0.988   0.637 -0.0469 -1.0910 -0.5228
   62MOL   H35423656   0.916   1.047   0.582 -0.7094 -0.8793 -0.4031
   62MOL   H35523657   0.955   1.070   0.409 -0.9213  0.6078  0.3109
   62MOL   H35623658   0.954   0.809   0.563 -3.0565  1.2665  0.2533
   62MOL   H35723659   0.752   0.878   0.437 -0.2173  0.0267 -0.3842
   62MOL   H35823660   0.851   0.885   0.284  0.5987 -0.0399  0.1289
   62MOL   H35923661   0.771   0.652   0.455  3.5193  1.1511  2.1273
   62MOL   H36023662   0.893   0.633   0.319  0.7366  1.8038 -0.5755
   62MOL   H36123663   1.117   0.719   0.455 -0.2660 -2.3502 -3.7102
   62MOL   H36223664   1.087   0.808   0.299  1.2860 -0.5074 -0.2036
   62MOL   C36323665   0.694   0.670   0.263  0.4025 -0.8054  0.5046
   62MOL   C36423666   0.635   0.530   0.280 -0.0895 -0.6383  0.7444
   62MOL   C36523667   0.586   0.500   0.136  0.2129 -0.1392 -0.1934
   62MOL   C36623668   0.614   0.627   0.053  0.3889  0.5707 -0.4506
   62MOL   C36723669   0.617   0.609   7.544 -0.4709 -0.1399  0.1245
   62MOL   C36823670   0.600   0.742   7.457  0.0652  0.5661 -0.3744
   62MOL   C36923671   0.730   0.685   0.117  0.2834 -0.7753  0.3547
   62MOL   H37023672   0.631   0.753   0.295 -1.1319 -1.5039 -0.6718
   62MOL   H37123673   0.713   0.455   0.291 -0.9976 -1.7751 -0.3234
   62MOL   H37223674   0.569   0.523   0.366 -1.5636  1.1440 -0.2043
   62MOL   H37323675   0.638   0.416   0.092  1.4580  0.4958  0.0507
   62MOL   H37423676   0.480   0.472   0.135  0.1652  0.0334 -0.1426
   62MOL   H37523677   0.528   0.689   0.080 -0.1276 -0.0843 -0.5885
   62MOL   H37623678   0.713   0.565   7.516  0.5891  2.1368  0.1035
   62MOL   H37723679   0.535   0.541   7.520 -0.1768  0.0183 -1.3623
   62MOL   H37823680   0.570   0.711   7.357  0.1752  0.3170 -0.3308
   62MOL   H37923681   0.686   0.809   7.461 -1.8994  3.1565 -0.1038
   62MOL   H38023682   0.809   0.612   0.104  0.3476 -0.9139  1.4272
   62MOL   H38123683   0.770   0.778   0.077  0.1395 -1.1370 -0.6269
   62MOL   H38223684   0.523   0.805   7.503  0.7888  0.5864  0.8493
   63MOL     C123685   5.156   4.280   4.689  0.4831 -0.0445  0.4780
   63MOL     C223686   5.074   4.409   4.682 -0.5443 -0.0965 -0.2860
   63MOL     C323687   4.938   4.368   4.743 -0.1525 -0.4687 -0.0009
   63MOL     C423688   4.964   4.270   4.858 -0.2552  0.4537  0.5334
   63MOL     C523689   4.831   4.190   4.886 -0.0312 -0.3373 -0.1254
   63MOL     C623690   4.837   4.120   5.020 -0.7386 -0.4327  0.3682
   63MOL     C723691   5.087   4.187   4.798  0.6690 -0.0539 -0.7002
   63MOL     H823692   5.145   4.219   4.599 -0.5173  1.4868 -0.4627
   63MOL     H923693   5.064   4.452   4.582  0.6916  1.8333  0.3877
   63MOL    H1023694   5.112   4.495   4.737 -0.6700  0.5447 -1.1934
   63MOL    H1123695   4.885   4.454   4.783 -0.6542 -0.4564 -0.6768
   63MOL    H1223696   4.873   4.317   4.672 -1.5795 -0.3516  1.1994
   63MOL    H1323697   4.988   4.318   4.953 -1.2590 -0.2299  1.1339
   63MOL    H1423698   4.744   4.252   4.865  0.6667  0.0341 -1.9282
   63MOL    H1523699   4.811   4.119   4.806 -2.4457  0.4721 -0.2820
   63MOL    H1623700   4.923   4.055   5.040  1.2665  2.3089  1.0400
   63MOL    H1723701   4.850   4.194   5.100 -1.1940 -0.3360  0.3528
   63MOL    H1823702   5.159   4.169   4.878  0.3520 -4.1597 -1.2131
   63MOL    H1923703   5.068   4.087   4.758  1.1910 -0.4805  0.0993
   63MOL    H2023704   5.261   4.282   4.717  0.5805 -3.3893  0.4423
   63MOL    C2123705   4.704   4.054   5.056  0.1453 -0.0591 -0.0648
   63MOL    C2223706   4.712   3.973   5.181 -0.4558  0.8742  0.2939
   63MOL    C2323707   4.586   4.016   5.263  0.1323 -0.1217 -0.6761
   63MOL    C2423708   4.486   4.066   5.161  0.1689 -0.3403  0.0739
   63MOL    C2523709   4.365   4.134   5.214  0.0996 -0.5704 -0.3624
   63MOL    C2623710   4.279   4.210   5.108  0.0515 -0.1152  0.0630
   63MOL    C2723711   4.580   4.150   5.071  0.0014 -0.1736  0.3144
   63MOL    H2823712   4.696   3.986   4.971 -0.1723  0.2004 -0.2443
   63MOL    H2923713   4.731   3.866   5.166 -1.5317  0.3567  2.5609
   63MOL    H3023714   4.792   4.014   5.242  1.6737 -2.6710  0.0062
   63MOL    H3123715   4.547   3.932   5.319  2.7134  0.9248  2.9237
   63MOL    H3223716   4.615   4.095   5.333  0.4757 -1.9683  1.3294
   63MOL    H3323717   4.454   3.984   5.097  2.1525 -1.6165  0.6724
   63MOL    H3423718   4.386   4.211   5.288  0.1750  0.9642 -1.9503
   63MOL    H3523719   4.296   4.061   5.255 -0.1383 -0.2737 -0.2350
   63MOL    H3623720   4.278   4.152   5.016  0.7180 -1.3833  0.8406
   63MOL    H3723721   4.336   4.293   5.067  0.5559 -0.3227  0.3480
   63MOL    H3823722   4.548   4.177   4.971 -0.3218 -1.6896 -0.0038
   63MOL    H3923723   4.615   4.240   5.122  0.1557  0.1379 -0.3449
   63MOL    C4023724   4.137   4.242   5.158 -0.0389 -0.2614 -0.4538
   63MOL    C4123725   4.122   4.345   5.272 -0.1276 -0.5043 -0.7726
   63MOL    C4223726   3.973   4.382   5.277 -0.0293 -0.5760 -0.5194
   63MOL    C4323727   3.922   4.378   5.130 -0.0413  0.4798 -0.2274
   63MOL    C4423728   3.774   4.311   5.123 -0.2510 -0.1704 -0.0146
   63MOL    C4523729   3.711   4.333   4.986  0.2248 -0.2989  0.2041
   63MOL    C4623730   4.031   4.295   5.058 -0.2952  0.1302 -1.2385
   63MOL    H4723731   4.094   4.151   5.199  0.0519  0.7953  2.1194
   63MOL    H4823732   4.167   4.441   5.249  0.4279 -0.6345 -0.2387
   63MOL    H4923733   4.139   4.321   5.376  1.1418 -0.3321 -0.9368
   63MOL    H5023734   3.914   4.321   5.344  0.2124 -0.1221  0.1059
   63MOL    H5123735   3.982   4.481   5.321  1.1246 -1.0068  0.2468
   63MOL    H5223736   3.921   4.476   5.083  0.5637  0.5237 -0.1565
   63MOL    H5323737   3.793   4.204   5.131 -0.1555 -0.1994 -0.5762
   63MOL    H5423738   3.715   4.335   5.210  0.6716 -2.0725  1.1787
   63MOL    H5523739   3.788   4.296   4.918  0.0579 -0.2381 -0.0185
   63MOL    H5623740   3.704   4.441   4.970 -0.5470 -0.6832 -2.2719
   63MOL    H5723741   3.975   4.217   5.005 -0.2241  0.2093 -1.4339
   63MOL    H5823742   4.082   4.352   4.981  1.2984 -0.5861 -0.7307
   63MOL    C5923743   3.573   4.261   4.954 -0.7949 -0.3014 -0.2839
   63MOL    C6023744   3.450   4.318   5.028  0.2159  0.9194 -0.1828
   63MOL    C6123745   3.331   4.289   4.938 -0.3641 -0.9008 -0.3733
   63MOL    C6223746   3.394   4.313   4.798  0.5756  0.4016  0.4540
   63MOL    C6323747   3.314   4.270   4.680  0.1276  0.2190 -0.3411
   63MOL    C6423748   3.375   4.292   4.538  0.2294  0.1778  0.3283
   63MOL    C6523749   3.528   4.235   4.812 -0.1357 -0.9327 -0.4143
   63MOL    H6623750   3.595   4.162   4.994  2.6587  1.4107  2.3413
   63MOL    H6723751   3.444   4.266   5.123  0.7721  1.8040  0.3447
   63MOL    H6823752   3.452   4.426   5.046 -1.6464  0.6517  1.8447
   63MOL    H6923753   3.296   4.187   4.953  1.4643 -1.0454  3.3696
   63MOL    H7023754   3.238   4.346   4.948  0.7251  0.7879  0.3108
   63MOL    H7123755   3.419   4.419   4.789  1.2638  0.3210  1.3669
   63MOL    H7223756   3.217   4.321   4.683  0.9375  1.7227  2.0277
   63MOL    H7323757   3.293   4.165   4.699  1.2367  0.2827  1.4270
   63MOL    H7423758   3.458   4.227   4.508 -1.5717 -1.8724 -0.3117
   63MOL    H7523759   3.296   4.272   4.466  0.4623  0.7152 -0.0811
   63MOL    H7623760   3.515   4.130   4.789 -1.6340 -0.6326 -1.0271
   63MOL    H7723761   3.598   4.273   4.737 -1.6982 -0.2422 -1.5526
   63MOL    C7823762   3.428   4.433   4.504 -0.6466 -0.0216  0.4160
   63MOL    C7923763   3.578   4.463   4.511  1.0475 -0.1085  0.5701
   63MOL    C8023764   3.605   4.559   4.389 -0.0346  0.0954  0.0285
   63MOL    C8123765   3.474   4.599   4.325 -0.2955  0.7253 -0.3549
   63MOL    C8223766   3.481   4.638   4.173  0.6901 -0.0367 -0.0465
   63MOL    C8323767   3.336   4.656   4.116 -0.1162 -0.3972  0.4139
   63MOL    C8423768   3.383   4.479   4.363  0.2225 -0.8138  0.4439
   63MOL    H8523769   3.376   4.489   4.583  1.1504 -0.2956  1.8246
   63MOL    H8623770   3.588   4.519   4.604  0.8299  0.3659  0.3079
   63MOL    H8723771   3.653   4.384   4.522  0.0736 -0.9418  1.3980
   63MOL    H8823772   3.675   4.641   4.404 -1.2824  1.4941 -1.6255
   63MOL    H8923773   3.670   4.494   4.329  1.8970  3.1390 -1.3348
   63MOL    H9023774   3.440   4.683   4.386 -0.7014  0.1586  0.1955
   63MOL    H9123775   3.540   4.562   4.122  3.6736  0.9027  1.8075
   63MOL    H9223776   3.529   4.735   4.180 -2.8620  1.7297  0.7101
   63MOL    H9323777   3.273   4.700   4.194  0.3999  0.9265  0.1025
   63MOL    H9423778   3.292   4.557   4.104 -0.5792 -0.3997  2.0277
   63MOL    H9523779   3.408   4.405   4.287  1.6148 -0.8795  0.9562
   63MOL    H9623780   3.275   4.492   4.351  0.3751 -1.6681 -2.2154
   63MOL    C9723781   3.339   4.732   3.990 -0.1368  0.3300  0.2099
   63MOL    C9823782   3.207   4.795   3.948 -0.8237  0.0637 -0.3603
   63MOL    C9923783   3.219   4.798   3.791  0.5915  0.2359 -0.3010
   63MOL   C10023784   3.339   4.721   3.749  0.0892  0.9939 -0.7268
   63MOL   C10123785   3.316   4.625   3.622 -0.3336 -0.3043  0.4036
   63MOL   C10223786   3.290   4.707   3.496 -0.4358  1.1209 -0.1711
   63MOL   C10323787   3.377   4.640   3.874  0.5822 -0.2943 -0.0440
   63MOL   H10423788   3.411   4.813   4.005  0.6576 -0.2885 -0.1768
   63MOL   H10523789   3.117   4.745   3.983 -0.7279 -0.0601 -0.2900
   63MOL   H10623790   3.201   4.899   3.980  0.1224 -0.0549  0.1955
   63MOL   H10723791   3.130   4.755   3.744  0.8299 -0.8801  0.2419
   63MOL   H10823792   3.208   4.904   3.769 -2.1743  0.0605  0.0733
   63MOL   H10923793   3.426   4.784   3.730  1.3092 -0.7321 -0.9888
   63MOL   H11023794   3.402   4.558   3.611 -1.1378 -1.3059  0.1980
   63MOL   H11123795   3.228   4.568   3.649  1.1566 -1.9274  1.9397
   63MOL   H11223796   3.240   4.645   3.421 -1.3857  0.5791  0.9034
   63MOL   H11323797   3.221   4.789   3.516 -1.2659  0.5031 -0.4593
   63MOL   H11423798   3.313   4.551   3.879  0.9755 -0.7119 -2.0489
   63MOL   H11523799   3.481   4.609   3.867  0.4081 -0.6682 -1.0849
   63MOL   C11623800   3.415   4.763   3.435  0.1902 -0.2115  0.0461
   63MOL   C11723801   3.511   4.663   3.369  0.8602  0.2322  0.4415
   63MOL   C11823802   3.502   4.683   3.217  0.5150  0.1323  0.4866
   63MOL   C11923803   3.480   4.834   3.205  0.5882 -0.3621  0.1393
   63MOL   C12023804   3.420   4.861   3.057  0.6292  0.2223  0.3485
   63MOL   C12123805   3.399   5.010   3.043  0.2373 -0.3706 -0.4213
   63MOL   C12223806   3.382   4.865   3.325  0.3561 -0.5727 -0.6231
   63MOL   H12323807   3.471   4.805   3.518  0.4902 -1.0374  0.2565
   63MOL   H12423808   3.498   4.561   3.403  1.0624 -0.1577 -0.6473
   63MOL   H12523809   3.611   4.696   3.397  0.8605  0.8823 -0.3320
   63MOL   H12623810   3.419   4.625   3.176  2.3180  0.0692 -3.2851
   63MOL   H12723811   3.589   4.665   3.155  0.8103 -2.2277  1.5482
   63MOL   H12823812   3.576   4.884   3.218  0.1940  0.1927  1.0219
   63MOL   H12923813   3.336   4.795   3.036 -0.4101  1.4873  0.4503
   63MOL   H13023814   3.503   4.835   2.991  2.1734  1.0834  1.9048
   63MOL   H13123815   3.484   5.052   3.096 -1.8673  0.0528  2.7344
   63MOL   H13223816   3.320   5.051   3.106  0.2182 -0.8622 -0.1232
   63MOL   H13323817   3.390   4.966   3.365 -0.3623 -1.6228  2.2964
   63MOL   H13423818   3.279   4.855   3.291  0.4491 -2.2323 -0.4780
   63MOL   C13523819   3.385   5.078   2.900 -0.1279 -0.0822 -0.4056
   63MOL   C13623820   3.270   5.015   2.816  0.8412  0.9918 -0.2486
   63MOL   C13723821   3.232   5.123   2.722  0.4122  0.3647 -0.4306
   63MOL   C13823822   3.240   5.244   2.810 -0.5767 -0.3059 -0.5266
   63MOL   C13923823   3.252   5.378   2.734 -0.0792 -0.0081  1.0141
   63MOL   C14023824   3.130   5.386   2.640  0.6211 -0.1977 -0.0322
   63MOL   C14123825   3.356   5.221   2.900  0.8420 -0.4843  0.6701
   63MOL   H14223826   3.468   5.038   2.841  1.6187  1.9875  0.5695
   63MOL   H14323827   3.299   4.919   2.772  0.6934  0.1848  1.3601
   63MOL   H14423828   3.182   4.999   2.878  2.1434 -2.8171  0.7330
   63MOL   H14523829   3.292   5.112   2.631  0.2486  0.0647 -0.5023
   63MOL   H14623830   3.130   5.099   2.693  0.8727 -0.0210 -1.7545
   63MOL   H14723831   3.151   5.238   2.873  0.6462 -2.2936  1.0995
   63MOL   H14823832   3.349   5.389   2.686  0.1872  1.5263  1.8639
   63MOL   H14923833   3.248   5.453   2.813  0.5789  1.5401 -0.3821
   63MOL   H15023834   3.135   5.307   2.565  0.3460  1.8535 -2.2819
   63MOL   H15123835   3.037   5.365   2.693  0.0951  0.1337 -0.8084
   63MOL   H15223836   3.350   5.273   2.996  2.5321  0.2545  0.4047
   63MOL   H15323837   3.444   5.264   2.851 -0.4348 -0.5031 -1.7154
   63MOL   C15423838   3.118   5.532   2.573 -0.2339 -0.5201  0.8772
   63MOL   C15523839   3.046   5.631   2.665 -0.2218  0.0194  0.3492
   63MOL   C15623840   2.915   5.680   2.586 -0.8681  0.4727 -0.6588
   63MOL   C15723841   2.951   5.654   2.440 -1.1177  0.1236  0.2107
   63MOL   C15823842   2.835   5.650   2.342  0.2081 -0.6032 -0.4234
   63MOL   C15923843   2.792   5.784   2.284  0.3047  0.6028  1.1751
   63MOL   C16023844   3.034   5.522   2.443 -0.0514 -0.3589  0.0774
   63MOL   H16123845   3.217   5.559   2.537 -0.7776 -0.7638 -0.8387
   63MOL   H16223846   3.027   5.588   2.763  0.0965  0.0884  0.4417
   63MOL   H16323847   3.110   5.714   2.693  1.8183 -1.4521  0.1242
   63MOL   H16423848   2.837   5.613   2.624  0.4757 -0.5501  0.3829
   63MOL   H16523849   2.902   5.783   2.619  2.2897  1.0763 -1.0860
   63MOL   H16623850   3.015   5.738   2.412 -0.3073 -0.4938  0.2002
   63MOL   H16723851   2.750   5.602   2.391 -0.9242  0.6212 -1.1365
   63MOL   H16823852   2.879   5.593   2.260  1.0911 -0.2792 -0.1786
   63MOL   H16923853   2.757   5.839   2.371 -1.8296 -0.1425  0.8004
   63MOL   H17023854   2.877   5.843   2.248 -0.6221  0.3838 -1.4571
   63MOL   H17123855   3.090   5.513   2.349 -0.4770  0.7908 -0.2932
   63MOL   H17223856   2.972   5.433   2.453 -0.6816  0.1241  0.5046
   63MOL   C17323857   2.678   5.773   2.186 -0.0178 -0.0548 -0.1637
   63MOL   C17423858   2.542   5.722   2.234 -0.2937  0.4391  0.6760
   63MOL   C17523859   2.445   5.802   2.152  0.4414  0.0322 -0.2404
   63MOL   C17623860   2.519   5.869   2.038 -0.4574  0.4143  0.4752
   63MOL   C17723861   2.452   5.979   1.966 -0.3240  0.4407 -0.6525
   63MOL   C17823862   2.538   6.054   1.857  0.3692 -0.4835 -0.4261
   63MOL   C17923863   2.657   5.900   2.103  0.4988 -0.0693 -0.1181
   63MOL   H18023864   2.717   5.692   2.124  2.8599  1.2688 -0.1878
   63MOL   H18123865   2.529   5.742   2.340  2.3437  0.1775  1.0832
   63MOL   H18223866   2.538   5.614   2.218 -0.7575  0.5180  0.2256
   63MOL   H18323867   2.370   5.740   2.104 -1.4167  1.1605  1.1694
   63MOL   H18423868   2.392   5.882   2.203 -1.1383 -1.9519  1.2864
   63MOL   H18523869   2.550   5.794   1.965  0.7741 -0.4884  1.8966
   63MOL   H18623870   2.400   6.046   2.035 -0.9535  0.3342 -1.0117
   63MOL   H18723871   2.366   5.946   1.908 -0.1974 -0.3228 -0.4024
   63MOL   H18823872   2.572   5.978   1.787 -0.0029 -0.2766 -0.8303
   63MOL   H18923873   2.629   6.097   1.899 -1.1340  1.7368  0.6520
   63MOL   H19023874   2.645   5.991   2.162 -2.0393  1.4553 -2.8382
   63MOL   H19123875   2.735   5.925   2.030  0.8400  1.4529  0.7383
   63MOL   C19223876   2.478   6.163   1.769  0.6891 -0.2688 -0.4698
   63MOL   C19323877   2.582   6.225   1.674 -0.0522  0.2540  0.5782
   63MOL   C19423878   2.529   6.351   1.618  0.5359  0.1407  0.8018
   63MOL   C19523879   2.437   6.401   1.729 -0.1283  0.3310 -0.2049
   63MOL   C19623880   2.306   6.450   1.681 -0.0072  0.1889  0.0604
   63MOL   C19723881   2.239   6.529   1.794 -0.6679 -0.0490  0.7286
   63MOL   C19823882   2.431   6.293   1.840  0.5099  0.2267 -0.0468
   63MOL   H19923883   2.394   6.123   1.711 -0.3258 -1.6977  1.9217
   63MOL   H20023884   2.670   6.261   1.726  1.8920 -0.3834 -2.1406
   63MOL   H20123885   2.628   6.171   1.591  2.0304  1.7845  0.7135
   63MOL   H20223886   2.477   6.327   1.526 -1.4858  2.0084  1.4079
   63MOL   H20323887   2.595   6.433   1.590  0.0424  0.1067 -0.4981
   63MOL   H20423888   2.491   6.490   1.762  0.7552 -0.4010  0.3317
   63MOL   H20523889   2.252   6.373   1.626 -1.2033  1.9184 -1.2851
   63MOL   H20623890   2.343   6.519   1.605 -0.4804 -1.0771 -1.3373
   63MOL   H20723891   2.302   6.612   1.827  1.1203 -0.7869 -0.7606
   63MOL   H20823892   2.226   6.454   1.872  0.6107 -1.9702 -0.8504
   63MOL   H20923893   2.346   6.275   1.906  0.4556  0.2382 -0.1129
   63MOL   H21023894   2.505   6.326   1.912  1.2804  0.5911 -1.0112
   63MOL   C21123895   2.099   6.578   1.756 -0.9565 -0.2620  0.0006
   63MOL   C21223896   2.112   6.679   1.638  0.6466  0.6076  0.1799
   63MOL   C21323897   2.053   6.812   1.693 -0.0011 -0.1490 -0.1864
   63MOL   C21423898   1.967   6.761   1.816 -0.6846  0.2796  0.8758
   63MOL   C21523899   1.930   6.865   1.920  0.5647  0.0264 -0.4178
   63MOL   C21623900   1.814   6.956   1.879 -0.3299  0.5470  0.3559
   63MOL   C21723901   2.036   6.643   1.883 -0.1462 -0.4625 -0.3082
   63MOL   H21823902   2.043   6.493   1.718  2.1377 -1.7908 -1.3825
   63MOL   H21923903   2.205   6.679   1.580  0.3668 -0.5970 -0.2876
   63MOL   H22023904   2.037   6.643   1.568 -1.0211 -1.6078  2.9944
   63MOL   H22123905   2.127   6.890   1.710 -2.0549  1.4477  1.9177
   63MOL   H22223906   1.994   6.871   1.623 -0.3873 -0.2625  0.0433
   63MOL   H22323907   1.877   6.711   1.779 -0.1319 -2.4624  3.1325
   63MOL   H22423908   2.019   6.920   1.950 -0.4461  0.0809  2.7175
   63MOL   H22523909   1.897   6.813   2.010 -0.2635  0.7126 -0.3221
   63MOL   H22623910   1.811   6.975   1.772  0.3634 -1.6957 -0.0958
   63MOL   H22723911   1.724   6.901   1.906  0.4734 -0.7018  0.5331
   63MOL   H22823912   1.963   6.576   1.928 -1.5108  0.6703 -0.8069
   63MOL   H22923913   2.114   6.675   1.952  1.0349 -0.4070 -1.6348
   63MOL   C23023914   1.810   7.083   1.962 -0.2193  0.8340 -0.2752
   63MOL   C23123915   1.787   7.051   2.109  0.8547 -0.1901 -0.3874
   63MOL   C23223916   1.756   7.188   2.173 -0.0397 -0.6085 -0.0454
   63MOL   C23323917   1.674   7.260   2.063  0.1246  0.2870 -0.6672
   63MOL   C23423918   1.687   7.415   2.060  0.4222 -0.5030  0.3398
   63MOL   C23523919   1.694   7.493   2.199  0.1049 -0.7683 -0.1896
   63MOL   C23623920   1.701   7.193   1.922  0.2677  0.3868  0.1132
   63MOL   H23723921   1.908   7.130   1.958  0.8036 -1.1802  0.1778
   63MOL   H23823922   1.697   6.993   2.128  0.7507  0.7738  2.2383
   63MOL   H23923923   1.867   6.997   2.159  0.3511 -2.0574 -1.5626
   63MOL   H24023924   1.851   7.241   2.181 -0.4390  0.2255 -0.6951
   63MOL   H24123925   1.694   7.193   2.262 -2.2573  0.4175 -1.6055
   63MOL   H24223926   1.570   7.236   2.085 -0.1395 -1.1230 -3.1328
   63MOL   H24323927   1.604   7.456   2.002 -0.7250 -0.5732  1.8976
   63MOL   H24423928   1.774   7.424   1.995 -1.0080 -4.1691 -2.2994
   63MOL   H24523929   1.596   7.484   2.247 -0.2138 -1.7592 -0.9984
   63MOL   H24623930   1.749   7.436   2.274  0.6228 -2.2326 -1.6373
   63MOL   H24723931   1.738   7.269   1.852  2.0698  0.9970  1.6840
   63MOL   H24823932   1.615   7.143   1.877  0.4320 -0.8307  1.1343
   63MOL   C24923933   1.743   7.634   2.179  0.3869 -0.2425  0.1481
   63MOL   C25023934   1.717   0.073   2.305  0.0850  0.4798 -0.4894
   63MOL   C25123935   1.821   0.182   2.303 -0.3403 -0.2573  0.2044
   63MOL   C25223936   1.941   0.112   2.231 -0.2382 -0.5529  0.4386
   63MOL   C25323937   2.027   0.216   2.151 -0.3306  0.5000  0.0559
   63MOL   C25423938   2.164   0.163   2.108 -0.1892 -0.1496  0.0692
   63MOL   C25523939   1.891   7.640   2.148  0.1119  0.8756  0.3349
   63MOL   H25623940   1.692   0.020   2.089 -2.3392 -2.5350  0.7754
   63MOL   H25723941   1.614   0.109   2.304 -0.9991 -2.4777 -1.3361
   63MOL   H25823942   1.741   0.007   2.389  1.1036  0.0652 -1.0923
   63MOL   H25923943   1.855   0.229   2.395  1.3900 -0.7649 -0.1727
   63MOL   H26023944   1.776   0.264   2.246 -1.1116 -0.8977 -0.1217
   63MOL   H26123945   2.013   0.071   2.302 -0.4556  0.0663  1.0217
   63MOL   H26223946   2.050   0.304   2.211 -1.6477  2.1076 -1.7536
   63MOL   H26323947   1.955   0.242   2.073  0.2803  2.2642  0.0687
   63MOL   H26423948   2.165   0.057   2.083  2.2613 -0.1120 -0.0582
   63MOL   H26523949   2.245   0.179   2.180  0.8999 -1.8147 -0.7451
   63MOL   H26623950   1.933   7.541   2.169 -2.3659  0.4479  3.6451
   63MOL   H26723951   1.914   0.009   2.042  0.4707 -1.2417  0.0633
   63MOL   C26823952   2.221   0.235   1.985 -0.4940  0.0015  0.1903
   63MOL   C26923953   2.150   0.197   1.849 -0.5544  0.2262 -0.1815
   63MOL   C27023954   2.267   0.202   1.744  0.1641  0.1699  0.2774
   63MOL   C27123955   2.387   0.269   1.810 -0.0936  0.1698 -0.2909
   63MOL   C27223956   2.520   0.244   1.741 -0.1871  0.1269  0.0186
   63MOL   C27323957   2.642   0.326   1.799 -0.3517 -0.1652  0.6798
   63MOL   C27423958   2.371   0.225   1.954  0.0646  0.2379 -0.2717
   63MOL   H27523959   2.200   0.341   2.001 -0.3994  0.6296 -3.6035
   63MOL   H27623960   2.104   0.099   1.854 -0.7961  0.3654  0.3824
   63MOL   H27723961   2.074   0.275   1.851 -0.1332  0.6573  4.3816
   63MOL   H27823962   2.301   0.099   1.732 -1.3818 -0.2236 -0.8883
   63MOL   H27923963   2.241   0.229   1.641  0.4364 -3.7570 -0.8913
   63MOL   H28023964   2.372   0.376   1.815  0.0074  0.1072  1.5140
   63MOL   H28123965   2.510   0.278   1.638 -0.6131 -0.7572 -0.2380
   63MOL   H28223966   2.546   0.138   1.738 -0.4896  0.0805 -1.1199
   63MOL   H28323967   2.610   0.427   1.824 -0.9779 -0.3136  0.4804
   63MOL   H28423968   2.675   0.284   1.894 -1.9363  1.4457  1.9635
   63MOL   H28523969   2.404   0.123   1.974  0.7145  0.7517  1.4470
   63MOL   H28623970   2.434   0.291   2.014  2.3570 -2.4643  0.4260
   63MOL   C28723971   2.765   0.327   1.706 -0.1861 -0.0136 -0.0311
   63MOL   C28823972   2.729   0.381   1.570 -0.8003  0.4109 -0.0602
   63MOL   C28923973   2.869   0.428   1.513  0.0750 -0.5255  0.2360
   63MOL   C29023974   2.972   0.429   1.627  0.6650 -0.2762  0.1791
   63MOL   C29123975   3.051   0.566   1.634 -0.6092 -0.1094 -0.4198
   63MOL   C29223976   3.171   0.567   1.731 -0.8862 -0.9025 -0.3711
   63MOL   C29323977   2.896   0.401   1.752  0.4606 -0.3518  0.3543
   63MOL   H29423978   2.799   0.225   1.689 -0.3487 -0.2688  1.1129
   63MOL   H29523979   2.680   0.312   1.502  1.1649 -0.1831 -0.8929
   63MOL   H29623980   2.670   0.470   1.595  0.7849  1.3489  0.4244
   63MOL   H29723981   2.851   0.530   1.481  1.1645 -0.2518  0.4831
   63MOL   H29823982   2.903   0.362   1.433 -2.3790 -0.6778 -0.7343
   63MOL   H29923983   3.041   0.349   1.598 -1.0964 -1.5369 -0.6092
   63MOL   H30023984   2.981   0.643   1.663 -0.1118 -0.0386  0.6191
   63MOL   H30123985   3.087   0.602   1.537  0.0413 -2.9477 -1.2807
   63MOL   H30223986   3.253   0.512   1.684 -1.8485 -3.0823  0.4547
   63MOL   H30323987   3.149   0.504   1.817 -2.3405 -0.8511 -0.6904
   63MOL   H30423988   2.864   0.496   1.793  0.2703 -0.5115  0.5751
   63MOL   H30523989   2.951   0.353   1.833 -3.8687 -2.5473  2.1349
   63MOL   C30623990   3.226   0.710   1.770  0.2475 -0.3675 -0.3878
   63MOL   C30723991   3.130   0.796   1.844 -0.2549 -0.1933 -0.4621
   63MOL   C30823992   3.208   0.888   1.938 -0.3716  0.5280  0.6877
   63MOL   C30923993   3.345   0.834   1.937  0.2129 -0.0311  0.2448
   63MOL   C31023994   3.415   0.853   2.075  0.3100  0.4165  0.3604
   63MOL   C31123995   3.558   0.798   2.070  0.2319 -0.0453  0.8843
   63MOL   C31223996   3.343   0.697   1.868  0.4176 -0.3929  0.3151
   63MOL   H31323997   3.265   0.762   1.682  0.8148 -0.2374 -0.0595
   63MOL   H31423998   3.076   0.863   1.776  1.8244  1.3584 -0.6305
   63MOL   H31523999   3.052   0.741   1.896 -3.1389  1.0420 -3.2479
   63MOL   H31624000   3.213   0.986   1.891 -1.3559  0.3347  0.1713
   63MOL   H31724001   3.167   0.910   2.037  0.5542 -2.5427  1.8141
   63MOL   H31824002   3.406   0.890   1.866 -1.4340  0.7557 -0.5852
   63MOL   H31924003   3.424   0.960   2.095  1.0551 -0.0894  2.7834
   63MOL   H32024004   3.346   0.809   2.146  0.7109 -1.6226 -0.4803
   63MOL   H32124005   3.593   0.816   1.968  0.7212 -1.6172  0.7622
   63MOL   H32224006   3.558   0.689   2.079  0.8989 -0.1231  0.0549
   63MOL   H32324007   3.327   0.613   1.936  0.2064 -0.4412  0.2095
   63MOL   H32424008   3.436   0.681   1.814  0.8008  2.6697 -0.0378
   63MOL   C32524009   3.665   0.857   2.167  0.3895  0.5331 -0.6794
   63MOL   C32624010   3.800   0.799   2.140  0.4070 -0.7587  0.1639
   63MOL   C32724011   3.898   0.915   2.148  0.2461  0.3399  0.1308
   63MOL   C32824012   3.821   1.034   2.194 -0.4424 -0.5531  0.1026
   63MOL   C32924013   3.828   1.065   2.346 -0.0998  0.9078  0.1634
   63MOL   C33024014   3.749   1.196   2.394  0.3928  0.2950 -0.7291
   63MOL   C33124015   3.679   1.006   2.144 -0.4698  0.7543 -0.8115
   63MOL   H33224016   3.628   0.845   2.269  1.7007 -0.6114 -0.3127
   63MOL   H33324017   3.808   0.748   2.044  1.1223  1.4674 -0.9939
   63MOL   H33424018   3.822   0.726   2.218 -3.2166 -0.5546  1.4896
   63MOL   H33524019   3.983   0.893   2.213 -0.3354 -1.7904  0.1937
   63MOL   H33624020   3.942   0.927   2.049  1.2185  0.1391  0.5268
   63MOL   H33724021   3.855   1.120   2.136 -0.9530  0.8959  1.9119
   63MOL   H33824022   3.790   0.987   2.412  1.3782 -0.1594 -0.2179
   63MOL   H33924023   3.935   1.076   2.364  0.3545  0.5137 -2.1267
   63MOL   H34024024   3.804   1.287   2.367 -1.3692  1.4760 -0.3681
   63MOL   H34124025   3.653   1.200   2.343 -0.5069  0.9864  0.9816
   63MOL   H34224026   3.659   1.027   2.038 -2.7105 -2.3587 -1.0932
   63MOL   H34324027   3.601   1.054   2.202  0.4876  2.2307 -0.7274
   63MOL   C34424028   3.726   1.198   2.549 -0.8459  0.0998  0.2595
   63MOL   C34524029   3.652   1.326   2.599 -0.0431 -0.2532 -0.0194
   63MOL   C34624030   3.765   1.419   2.651  0.1523  0.0947  0.4981
   63MOL   C34724031   3.901   1.343   2.625  0.7112 -0.6239 -0.2673
   63MOL   C34824032   4.010   1.383   2.728 -0.7753  0.3426  0.4516
   63MOL   C34924033   4.154   1.348   2.682 -0.5813 -0.6253 -0.2423
   63MOL   C35024034   3.855   1.197   2.632 -0.2337 -0.0077  0.2759
   63MOL   H35124035   3.674   1.112   2.592 -0.7747  0.0511  0.2485
   63MOL   H35224036   3.582   1.302   2.679  1.3424  0.7490  1.5168
   63MOL   H35324037   3.599   1.367   2.513 -2.5497  0.9462  2.0344
   63MOL   H35424038   3.757   1.520   2.609 -2.1941 -0.3888 -0.2399
   63MOL   H35524039   3.745   1.445   2.755 -1.3665 -1.2603  0.5441
   63MOL   H35624040   3.943   1.372   2.529 -0.6258  1.6973 -0.1911
   63MOL   H35724041   4.001   1.487   2.763 -0.4208 -0.3131  2.5796
   63MOL   H35824042   3.999   1.339   2.827 -0.0638 -0.7036  0.0669
   63MOL   H35924043   4.175   1.403   2.590  0.9217 -3.4465 -1.6714
   63MOL   H36024044   4.149   1.244   2.651  0.7386 -0.8925  0.3917
   63MOL   H36124045   3.927   1.116   2.615  0.5183  0.6849  0.1556
   63MOL   H36224046   3.817   1.173   2.731 -0.0545  1.4615  0.6978
   63MOL   C36324047   4.263   1.384   2.778  0.2207  0.2300 -0.9105
   63MOL   C36424048   4.398   1.317   2.747  0.1805 -0.2782 -0.0945
   63MOL   C36524049   4.475   1.317   2.875  0.4696 -0.2291  0.2855
   63MOL   C36624050   4.378   1.341   2.993  0.6719 -0.0151 -0.2377
   63MOL   C36724051   4.388   1.236   3.104  0.1823 -0.2561 -0.0464
   63MOL   C36824052   4.516   1.251   3.188  0.3639 -0.9037  0.4427
   63MOL   C36924053   4.240   1.337   2.924 -0.2002 -0.5517  0.0679
   63MOL   H37024054   4.278   1.492   2.781 -1.2737  0.4192  1.5422
   63MOL   H37124055   4.382   1.213   2.716 -0.6859  0.0138 -0.6290
   63MOL   H37224056   4.454   1.366   2.667  1.4425 -1.1456  0.2411
   63MOL   H37324057   4.531   1.223   2.875 -1.7625 -1.5926 -0.6604
   63MOL   H37424058   4.547   1.398   2.862  0.4150 -0.1210  0.6425
   63MOL   H37524059   4.385   1.443   3.032 -2.0933  0.3379 -0.5349
   63MOL   H37624060   4.292   1.244   3.156  0.2248  0.7756 -0.1082
   63MOL   H37724061   4.397   1.137   3.059 -1.3211  1.2182 -3.7253
   63MOL   H37824062   4.519   1.173   3.265 -0.7500  0.6352  2.0723
   63MOL   H37924063   4.521   1.351   3.232  2.6941 -0.1049 -1.5321
   63MOL   H38024064   4.195   1.238   2.924 -1.1343 -0.1476 -2.2401
   63MOL   H38124065   4.171   1.402   2.978 -1.1085 -1.0719 -0.4588
   63MOL   H38224066   4.602   1.235   3.123 -0.3895 -0.7549 -0.5833
   64MOL     C124067   5.038   4.101   1.080  0.2656  0.5720 -0.3237
   64MOL     C224068   4.940   4.162   1.169  0.8133 -0.0893 -0.3830
   64MOL     C324069   4.858   4.040   1.219  0.2334 -0.6048 -0.2964
   64MOL     C424070   4.861   3.932   1.110 -0.5677  0.3744 -0.6005
   64MOL     C524071   4.718   3.897   1.056 -0.5881  0.4268 -0.2016
   64MOL     C624072   4.721   3.797   0.942  0.6003 -0.1639 -0.1356
   64MOL     C724073   4.961   3.990   1.008 -0.2496 -0.3983  0.2877
   64MOL     H824074   5.075   4.174   1.008  1.3079 -1.0405 -1.4347
   64MOL     H924075   4.884   4.229   1.105  0.5359 -1.0763 -1.1831
   64MOL    H1024076   4.976   4.214   1.258 -0.3662  0.8948 -0.4700
   64MOL    H1124077   4.912   4.010   1.308  0.7845  1.3612  0.0563
   64MOL    H1224078   4.756   4.073   1.240  0.9219  2.0875 -1.0288
   64MOL    H1324079   4.890   3.836   1.152 -1.7378  0.8808  1.4247
   64MOL    H1424080   4.666   3.856   1.143  2.6559 -1.2233  1.0409
   64MOL    H1524081   4.676   3.993   1.026 -0.8436  0.5791  0.6361
   64MOL    H1624082   4.754   3.846   0.851  0.1830 -0.6250 -0.5373
   64MOL    H1724083   4.790   3.715   0.960  0.9791  0.3673  0.8577
   64MOL    H1824084   5.029   3.916   0.967  0.6110  0.3927  0.2874
   64MOL    H1924085   4.904   4.022   0.921 -2.0819 -0.1330  1.5429
   64MOL    H2024086   5.117   4.043   1.127  0.1777  0.4662 -0.3044
   64MOL    C2124087   4.582   3.723   0.930 -0.0606 -0.7532 -0.5373
   64MOL    C2224088   4.575   3.621   0.823 -0.9100 -0.1190 -0.0232
   64MOL    C2324089   4.472   3.509   0.856 -1.1024 -0.0829  0.5633
   64MOL    C2424090   4.426   3.542   0.996  0.5657  0.2843  0.5306
   64MOL    C2524091   4.404   3.425   1.094 -0.3319  0.5517  0.3456
   64MOL    C2624092   4.297   3.323   1.038  0.1111 -0.4359 -0.1876
   64MOL    C2724093   4.534   3.639   1.049 -0.2485 -0.0438 -0.2726
   64MOL    H2824094   4.506   3.792   0.894  0.9240  0.3563 -0.5294
   64MOL    H2924095   4.568   3.651   0.719  2.3314  1.1311  0.0552
   64MOL    H3024096   4.673   3.572   0.827 -1.1103 -0.7123 -1.7945
   64MOL    H3124097   4.385   3.511   0.790  0.3026 -1.0246 -1.3815
   64MOL    H3224098   4.507   3.406   0.857 -3.7623 -1.0158  0.4810
   64MOL    H3324099   4.330   3.593   0.988 -0.0174 -0.8321  0.2345
   64MOL    H3424100   4.352   3.465   1.181 -0.9089  1.3897 -0.3837
   64MOL    H3524101   4.501   3.390   1.130  0.4943  1.8200 -0.6042
   64MOL    H3624102   4.349   3.244   0.983 -1.7865 -0.0421 -2.6454
   64MOL    H3724103   4.223   3.367   0.972 -1.0629  1.3701  2.2490
   64MOL    H3824104   4.499   3.699   1.133 -1.8938  0.5051 -1.3318
   64MOL    H3924105   4.620   3.588   1.093 -0.8410 -0.3956  0.4869
   64MOL    C4024106   4.205   3.260   1.150  0.3715  0.0835  0.5522
   64MOL    C4124107   4.088   3.185   1.080 -0.8494  0.1896 -0.7408
   64MOL    C4224108   4.083   3.051   1.151 -0.2806  0.0537  0.0075
   64MOL    C4324109   4.222   3.018   1.198  0.3606  0.5216  0.0146
   64MOL    C4424110   4.227   2.915   1.320  0.0946  0.0445  0.1206
   64MOL    C4524111   4.360   2.876   1.369 -0.4138 -0.0712 -0.5602
   64MOL    C4624112   4.275   3.155   1.233 -0.5901  0.4098 -0.1493
   64MOL    H4724113   4.166   3.339   1.214 -2.7368 -0.8179 -0.1434
   64MOL    H4824114   4.100   3.161   0.974  0.4134  2.5971 -1.1651
   64MOL    H4924115   3.989   3.230   1.092 -0.5644  0.7920 -0.6539
   64MOL    H5024116   4.020   3.066   1.239  0.7792 -3.2719  1.4064
   64MOL    H5124117   4.041   2.974   1.087 -1.4237  0.1159  0.6576
   64MOL    H5224118   4.283   2.971   1.121 -0.2977  2.1029 -1.5054
   64MOL    H5324119   4.166   2.960   1.399  2.4146  1.3753  1.1878
   64MOL    H5424120   4.177   2.820   1.300  1.2137 -0.6780  0.7043
   64MOL    H5524121   4.428   2.961   1.362  0.7390 -0.4615  4.4513
   64MOL    H5624122   4.409   2.809   1.298  0.5394  1.5441 -1.4721
   64MOL    H5724123   4.269   3.177   1.339  2.1466  2.1518 -0.3068
   64MOL    H5824124   4.382   3.166   1.213 -0.5532 -0.5714 -0.5097
   64MOL    C5924125   4.342   2.804   1.504  0.1479  0.1286  0.0987
   64MOL    C6024126   4.475   2.752   1.562  0.3706 -0.4580  0.4555
   64MOL    C6124127   4.453   2.755   1.712 -0.3494  0.7264  0.7611
   64MOL    C6224128   4.368   2.876   1.749  0.6168  0.4382 -0.5470
   64MOL    C6324129   4.275   2.869   1.869  0.5248 -0.2950 -0.9723
   64MOL    C6424130   4.208   3.006   1.904 -0.0481  0.1588 -0.1759
   64MOL    C6524131   4.284   2.891   1.617  0.1066 -0.3538  0.4122
   64MOL    H6624132   4.275   2.719   1.509 -2.2830  1.9483 -0.5851
   64MOL    H6724133   4.474   2.648   1.530 -0.7780 -0.6577  1.1297
   64MOL    H6824134   4.558   2.811   1.522 -0.9909  0.3995 -1.1718
   64MOL    H6924135   4.410   2.665   1.757  0.0909 -0.8891 -1.9135
   64MOL    H7024136   4.551   2.759   1.760  0.0385 -0.3115  0.0788
   64MOL    H7124137   4.439   2.957   1.759  1.8603 -0.6674 -0.2687
   64MOL    H7224138   4.328   2.844   1.960  0.6403  0.9202 -0.6976
   64MOL    H7324139   4.198   2.793   1.854 -0.1909  0.7267 -2.7236
   64MOL    H7424140   4.295   3.068   1.923 -0.3820  0.4567  0.3933
   64MOL    H7524141   4.158   3.057   1.822 -0.3346 -2.4239 -1.6648
   64MOL    H7624142   4.181   2.859   1.636  0.2559 -2.5949 -2.2700
   64MOL    H7724143   4.269   2.997   1.598 -2.6720 -0.4110  1.8896
   64MOL    C7824144   4.106   3.001   2.027 -0.8614 -0.1281 -0.4100
   64MOL    C7924145   4.072   3.138   2.081  0.4172 -0.0068  0.2939
   64MOL    C8024146   3.923   3.147   2.064 -0.3829  0.2937  0.2947
   64MOL    C8124147   3.876   3.002   2.066 -0.4895  0.4451  0.2012
   64MOL    C8224148   3.727   2.982   2.024  0.6000  0.5361 -0.0760
   64MOL    C8324149   3.684   2.836   2.035  0.6606 -0.5070  0.5724
   64MOL    C8424150   3.978   2.941   1.977 -0.0972  0.8528  0.1470
   64MOL    H8524151   4.153   2.935   2.100 -1.2927 -0.2132 -0.2102
   64MOL    H8624152   4.109   3.147   2.183  0.0343 -4.2528  0.8655
   64MOL    H8724153   4.108   3.231   2.036 -1.3308 -0.0977 -1.3702
   64MOL    H8824154   3.895   3.214   2.145 -2.5901 -0.7560  0.4356
   64MOL    H8924155   3.901   3.181   1.964 -1.9962 -0.0501  0.5276
   64MOL    H9024156   3.889   2.972   2.170  1.1699  1.5698  0.3473
   64MOL    H9124157   3.720   3.014   1.920 -1.1881 -1.1309 -0.5161
   64MOL    H9224158   3.654   3.036   2.084  2.0028  1.4417  0.8384
   64MOL    H9324159   3.681   2.810   2.141 -0.8054 -2.2678  0.1207
   64MOL    H9424160   3.749   2.763   1.987  0.7186 -1.2486  1.7468
   64MOL    H9524161   3.957   2.969   1.874  1.5717  1.3315 -0.0699
   64MOL    H9624162   3.995   2.833   1.979  0.4308  0.9176 -0.6576
   64MOL    C9724163   3.543   2.815   1.981 -0.3346  0.1039  0.3801
   64MOL    C9824164   3.474   2.686   2.021 -0.6411  0.7488 -0.4619
   64MOL    C9924165   3.350   2.674   1.942  0.1454  1.0855 -0.7040
   64MOL   C10024166   3.390   2.743   1.801  0.0641  0.1572  0.4104
   64MOL   C10124167   3.381   2.649   1.684 -0.4234 -0.0762 -0.2383
   64MOL   C10224168   3.397   2.712   1.545 -0.2418  0.2658  0.0418
   64MOL   C10324169   3.527   2.805   1.827 -0.6963  0.1188 -0.0140
   64MOL   H10424170   3.474   2.891   2.019 -1.0083 -0.9810  1.3464
   64MOL   H10524171   3.542   2.603   2.001 -0.2475  1.2095 -1.0592
   64MOL   H10624172   3.455   2.681   2.128 -0.3504 -0.2650 -0.4537
   64MOL   H10724173   3.331   2.567   1.935  0.0983  0.9071  1.6269
   64MOL   H10824174   3.265   2.723   1.990 -0.8775  0.0860 -1.4745
   64MOL   H10924175   3.324   2.823   1.770 -1.3155 -1.0753  0.1078
   64MOL   H11024176   3.456   2.571   1.698  1.0842  0.6385 -3.7360
   64MOL   H11124177   3.289   2.592   1.689 -0.0877 -0.5137  1.0912
   64MOL   H11224178   3.303   2.763   1.522  0.2491  0.6979 -1.0511
   64MOL   H11324179   3.473   2.789   1.554  0.1078 -0.3251  2.7232
   64MOL   H11424180   3.611   2.744   1.796 -0.3331 -0.6518  2.3635
   64MOL   H11524181   3.523   2.903   1.778 -0.5241  1.0427  1.7689
   64MOL   C11624182   3.437   2.625   1.427 -0.2148 -0.1437  0.1157
   64MOL   C11724183   3.350   2.504   1.406 -0.4241  0.2930  0.7426
   64MOL   C11824184   3.340   2.485   1.256  0.4419 -1.1416 -0.1519
   64MOL   C11924185   3.431   2.587   1.184 -0.3769 -0.4761 -0.3390
   64MOL   C12024186   3.379   2.646   1.048  0.0634 -0.3373 -0.7620
   64MOL   C12124187   3.376   2.535   0.943  0.2474  0.4567 -0.1688
   64MOL   C12224188   3.437   2.697   1.291 -0.2924 -0.0719 -0.1280
   64MOL   H12324189   3.539   2.588   1.444 -0.7306 -1.4461  0.4252
   64MOL   H12424190   3.253   2.511   1.457 -0.4417 -0.6388  0.8449
   64MOL   H12524191   3.402   2.428   1.465 -1.0419  0.8125  1.9821
   64MOL   H12624192   3.237   2.482   1.220  0.9256  1.0660 -1.8509
   64MOL   H12724193   3.374   2.386   1.226  2.0147 -0.5112 -0.4728
   64MOL   H12824194   3.529   2.543   1.169  0.2496  0.5275  0.7270
   64MOL   H12924195   3.453   2.720   1.016  0.1217  0.5866  1.4753
   64MOL   H13024196   3.285   2.702   1.048  1.2996  1.8471 -3.0389
   64MOL   H13124197   3.326   2.448   0.986 -0.5111  0.3864 -1.1789
   64MOL   H13224198   3.478   2.496   0.941 -0.8004 -2.9884  4.5712
   64MOL   H13324199   3.521   2.764   1.274  0.7588 -1.2113  0.4806
   64MOL   H13424200   3.342   2.747   1.272  0.2714  1.2082  0.3687
   64MOL   C13524201   3.320   2.572   0.804 -0.2011 -0.3473 -0.5880
   64MOL   C13624202   3.167   2.581   0.786 -0.5848 -0.3703 -0.1382
   64MOL   C13724203   3.145   2.653   0.661 -0.4549 -0.3642  0.4055
   64MOL   C13824204   3.262   2.744   0.642 -0.3189 -0.7733  0.0419
   64MOL   C13924205   3.306   2.761   0.492  0.0837 -0.7951 -0.4310
   64MOL   C14024206   3.335   2.630   0.418  0.3673  0.4629 -1.2169
   64MOL   C14124207   3.369   2.698   0.743  0.0721  0.6154 -0.1963
   64MOL   H14224208   3.344   2.492   0.735  1.1976  0.1687 -0.7250
   64MOL   H14324209   3.120   2.483   0.778 -1.0842 -0.0746 -0.8123
   64MOL   H14424210   3.115   2.639   0.863  2.9033  0.3820  1.7800
   64MOL   H14524211   3.123   2.594   0.572  1.0210  1.7367 -1.4063
   64MOL   H14624212   3.051   2.706   0.679 -0.1919  0.1031  0.3951
   64MOL   H14724213   3.230   2.844   0.673 -0.4429 -0.2736 -1.6850
   64MOL   H14824214   3.388   2.832   0.501 -0.9796  0.5057 -0.8192
   64MOL   H14924215   3.238   2.824   0.435  0.0255 -0.5588 -0.0987
   64MOL   H15024216   3.386   2.568   0.491 -0.2463 -1.5579 -2.4539
   64MOL   H15124217   3.240   2.582   0.393 -1.6872  2.4711  2.2587
   64MOL   H15224218   3.396   2.777   0.813 -0.2404  2.6532 -2.3190
   64MOL   H15324219   3.460   2.680   0.686  1.0016  0.5570  1.2634
   64MOL   C15424220   3.421   2.638   0.294 -0.4208  0.1982 -0.1636
   64MOL   C15524221   3.562   2.691   0.311 -0.3950  0.2724 -0.0733
   64MOL   C15624222   3.582   2.808   0.219 -0.0751 -0.5332 -0.6160
   64MOL   C15724223   3.478   2.779   0.103  0.8941 -0.1968 -0.5611
   64MOL   C15824224   3.442   2.899   0.024 -0.1324 -0.4662 -1.0815
   64MOL   C15924225   3.368   2.873   7.540  0.0206 -0.1202 -0.1204
   64MOL   C16024226   3.358   2.721   0.181  0.1221  0.5280 -0.1694
   64MOL   H16124227   3.440   2.541   0.250  0.4184  0.1887  0.1917
   64MOL   H16224228   3.588   2.717   0.414 -0.4231 -2.4816  0.6761
   64MOL   H16324229   3.622   2.604   0.285  0.2279 -0.0838  2.3518
   64MOL   H16424230   3.576   2.911   0.255  2.7066 -0.5385 -0.0799
   64MOL   H16524231   3.681   2.810   0.174 -1.2169 -0.5726 -3.2325
   64MOL   H16624232   3.515   2.696   0.043 -1.5897 -1.2820 -0.6062
   64MOL   H16724233   3.535   2.954   0.014 -1.0459  1.0893 -1.0951
   64MOL   H16824234   3.383   2.965   0.087  0.6762  0.1173 -0.9284
   64MOL   H16924235   3.422   2.805   7.474  1.5722 -0.0026  1.0254
   64MOL   H17024236   3.269   2.832   7.562 -1.3153  1.7152 -2.4931
   64MOL   H17124237   3.286   2.659   0.127  0.3956  1.5090 -1.6821
   64MOL   H17224238   3.297   2.803   0.218 -0.3947 -0.3046  0.8608
   64MOL   C17324239   3.328   3.007   7.472  0.3417 -0.0153  0.7559
   64MOL   C17424240   3.280   2.983   7.327  0.1117 -0.1062 -0.6887
   64MOL   C17524241   3.127   3.006   7.337  0.3840 -0.4406  0.1623
   64MOL   C17624242   3.127   3.122   7.427  0.8938  0.2970 -0.0970
   64MOL   C17724243   2.976   3.151   7.455  0.2796  0.3049  0.0408
   64MOL   C17824244   2.944   3.250   7.570  0.2452 -0.0056 -0.9128
   64MOL   C17924245   3.216   3.080   7.543 -0.0358  0.0271 -0.1865
   64MOL   H18024246   3.423   3.062   7.470  0.7297 -0.6855  0.1694
   64MOL   H18124247   3.312   2.884   7.295 -0.4073 -0.4625 -0.1239
   64MOL   H18224248   3.318   3.048   7.248 -1.1318 -0.4789 -1.6094
   64MOL   H18324249   3.075   3.033   7.245 -0.5864 -1.2391  0.4703
   64MOL   H18424250   3.091   2.913   7.380 -2.1788 -0.5447 -2.0646
   64MOL   H18524251   3.155   3.215   7.377 -1.8073  1.6953  0.9085
   64MOL   H18624252   2.920   3.058   7.467  0.8682 -0.7382 -4.3921
   64MOL   H18724253   2.925   3.187   7.366  0.3215  0.5608  0.1215
   64MOL   H18824254   2.955   3.355   7.541 -0.5764  0.6990  1.1893
   64MOL   H18924255   3.000   3.223   0.011  0.2156  3.2447  0.1868
   64MOL   H19024256   3.149   3.020   7.604  1.1556 -1.9510 -0.7575
   64MOL   H19124257   3.242   3.155   7.617 -2.4600  0.7413 -0.0312
   64MOL   C19224258   2.788   3.250   7.603  0.5877  0.2613 -0.7860
   64MOL   C19324259   2.702   3.303   7.482 -0.3511 -0.9877 -0.4027
   64MOL   C19424260   2.578   3.352   7.552  0.8238 -0.6208  0.1486
   64MOL   C19524261   2.619   3.412   0.031  0.2223  0.0017 -0.0961
   64MOL   C19624262   2.514   3.418   0.143 -0.3261  0.3013  0.3732
   64MOL   C19724263   2.553   3.533   0.242  0.1874 -0.3758 -0.2483
   64MOL   C19824264   2.747   3.339   0.079  0.6089  0.3983  0.3215
   64MOL   H19924265   2.763   3.149   7.635  1.8541 -0.1515 -1.0667
   64MOL   H20024266   2.745   3.389   7.430 -0.0063 -0.6091  0.5052
   64MOL   H20124267   2.681   3.226   7.408  0.3173 -0.5099 -1.0967
   64MOL   H20224268   2.501   3.276   7.570 -1.0183  0.8397 -1.2455
   64MOL   H20324269   2.534   3.427   7.486 -2.6518 -3.5428 -1.0235
   64MOL   H20424270   2.659   3.511   0.011 -0.6533  0.1631 -1.0419
   64MOL   H20524271   2.507   3.322   0.194 -0.7671 -1.4293 -2.8489
   64MOL   H20624272   2.412   3.426   0.107  0.3901 -1.6546 -2.2278
   64MOL   H20724273   2.565   3.630   0.193  2.3326 -0.3249  0.3517
   64MOL   H20824274   2.653   3.514   0.279  0.3578  0.3780 -0.3189
   64MOL   H20924275   2.719   3.267   0.156  1.1873 -0.4602 -0.2611
   64MOL   H21024276   2.832   3.403   0.099  2.1487 -1.5859  0.2211
   64MOL   C21124277   2.448   3.553   0.354  0.7131 -0.6718 -0.0681
   64MOL   C21224278   2.459   3.691   0.432 -0.1550  0.2022  0.3326
   64MOL   C21324279   2.474   3.652   0.578  1.1604 -0.2704  0.4689
   64MOL   C21424280   2.409   3.514   0.588 -0.2883 -0.2673  0.0167
   64MOL   C21524281   2.437   3.449   0.724 -0.1836 -0.4924 -0.1361
   64MOL   C21624282   2.388   3.303   0.730 -0.3759 -0.4206 -0.2870
   64MOL   C21724283   2.471   3.453   0.460  0.6035 -0.0146 -0.7991
   64MOL   H21824284   2.345   3.548   0.318  0.4208 -0.9368  0.8044
   64MOL   H21924285   2.552   3.737   0.399 -0.2559 -0.7432 -1.3061
   64MOL   H22024286   2.375   3.756   0.408  1.4461  2.3440  0.4021
   64MOL   H22124287   2.578   3.633   0.606  0.7147  1.4284  3.4691
   64MOL   H22224288   2.428   3.730   0.640 -1.3308 -1.9701  0.8212
   64MOL   H22324289   2.304   3.530   0.563 -0.1992  0.7197  0.2298
   64MOL   H22424290   2.397   3.506   0.808 -0.5159 -1.7418  0.5577
   64MOL   H22524291   2.545   3.444   0.740 -0.4096  1.1733  2.1393
   64MOL   H22624292   2.281   3.302   0.706 -0.7039 -1.9271  1.1746
   64MOL   H22724293   2.442   3.244   0.656  0.6151 -1.3154  1.1468
   64MOL   H22824294   2.425   3.360   0.425 -0.1094  0.0151  0.0252
   64MOL   H22924295   2.575   3.431   0.481  0.8503  1.5093 -0.3602
   64MOL   C23024296   2.385   3.251   0.871 -0.2131  0.1501  0.2654
   64MOL   C23124297   2.515   3.252   0.940 -0.7917 -0.2689 -0.5035
   64MOL   C23224298   2.496   3.157   1.055  0.2851 -0.0912  0.1556
   64MOL   C23324299   2.427   3.042   0.990  0.9100 -0.2904  0.0605
   64MOL   C23424300   2.354   2.952   1.084 -0.0790 -0.2524  0.4629
   64MOL   C23524301   2.299   2.818   1.018  0.3942 -0.1372 -0.6045
   64MOL   C23624302   2.340   3.107   0.875  0.3809  0.0490 -0.2445
   64MOL   H23724303   2.318   3.313   0.930  0.6635  0.0465  1.3919
   64MOL   H23824304   2.595   3.226   0.871  0.6479 -1.6977  1.6536
   64MOL   H23924305   2.536   3.351   0.980 -3.0288 -0.1012  0.3420
   64MOL   H24024306   2.434   3.207   1.130 -0.7361 -0.0102 -0.7382
   64MOL   H24124307   2.592   3.126   1.097 -0.8376 -0.0932  2.8021
   64MOL   H24224308   2.506   2.988   0.937 -0.0653 -0.0681 -1.6408
   64MOL   H24324309   2.277   3.020   1.119  1.4172  1.9412 -0.4301
   64MOL   H24424310   2.422   2.932   1.167 -0.8275 -2.0388  0.6677
   64MOL   H24524311   2.250   2.838   0.922 -0.0845  1.0384 -0.1272
   64MOL   H24624312   2.381   2.753   0.989  0.1231 -0.4873 -0.5873
   64MOL   H24724313   2.232   3.112   0.890  0.5392 -0.0774  0.9437
   64MOL   H24824314   2.360   3.065   0.777  1.0218  1.5706 -0.7917
   64MOL   C24924315   2.211   2.737   1.117  0.1632  0.2900  0.7397
   64MOL   C25024316   2.139   2.615   1.041  0.1023  0.3942  0.7127
   64MOL   C25124317   2.184   2.480   1.100  0.2448 -0.7301  0.6360
   64MOL   C25224318   2.306   2.522   1.190  0.5323  0.5671  0.2650
   64MOL   C25324319   2.324   2.424   1.309  0.3563 -0.1250  0.2840
   64MOL   C25424320   2.399   2.294   1.271  0.2688  0.5934  0.1603
   64MOL   C25524321   2.290   2.670   1.231  0.6140  0.0532  0.4873
   64MOL   H25624322   2.136   2.807   1.154  0.8332  0.3892  1.9354
   64MOL   H25724323   2.031   2.622   1.055 -0.1541 -1.1664 -0.3680
   64MOL   H25824324   2.171   2.622   0.937  0.8656 -0.5370  0.8782
   64MOL   H25924325   2.202   2.406   1.022  0.1577  0.9426 -0.9975
   64MOL   H26024326   2.104   2.429   1.154 -0.9032  0.3136 -0.0470
   64MOL   H26124327   2.401   2.530   1.137  0.6570  1.0729  0.5585
   64MOL   H26224328   2.228   2.395   1.352  0.1145 -0.5675 -0.5430
   64MOL   H26324329   2.381   2.472   1.389  1.0837 -0.2557 -0.1484
   64MOL   H26424330   2.492   2.324   1.223  0.8812 -1.1796  0.2346
   64MOL   H26524331   2.335   2.247   1.197  0.2386 -0.2051  0.6920
   64MOL   H26624332   2.388   2.720   1.234 -0.1058  1.6387 -1.4096
   64MOL   H26724333   2.236   2.680   1.325 -0.4078 -1.1768  0.0408
   64MOL   C26824334   2.416   2.196   1.391  0.1090 -0.3124 -0.5753
   64MOL   C26924335   2.494   2.062   1.355 -0.1779  0.1113 -0.4559
   64MOL   C27024336   2.403   1.950   1.400 -0.0971  0.0016  0.0716
   64MOL   C27124337   2.311   2.007   1.505  0.2652 -0.3467  0.6131
   64MOL   C27224338   2.189   1.915   1.532 -0.4487 -0.2932  0.3848
   64MOL   C27324339   2.215   1.761   1.552  0.5713  1.1971 -0.3739
   64MOL   C27424340   2.281   2.149   1.450  0.1100  0.9670 -0.3464
   64MOL   H27524341   2.472   2.246   1.469 -0.3510  1.0247 -1.0945
   64MOL   H27624342   2.514   2.045   1.249 -1.2162  0.9058 -0.7889
   64MOL   H27724343   2.590   2.056   1.405 -0.4171  0.8762  0.1055
   64MOL   H27824344   2.343   1.909   1.319 -1.5950  1.2312  0.5514
   64MOL   H27924345   2.463   1.871   1.444  0.8015  0.1656 -0.8232
   64MOL   H28024346   2.365   2.015   1.599 -0.0976 -0.0197  0.7918
   64MOL   H28124347   2.123   1.928   1.446 -2.5014  0.1055  1.9908
   64MOL   H28224348   2.129   1.949   1.616 -1.6427 -1.7094  0.1313
   64MOL   H28324349   2.252   1.716   1.460  0.0826  0.5717 -0.2688
   64MOL   H28424350   2.293   1.749   1.628  2.1433  0.2261 -2.1017
   64MOL   H28524351   2.199   2.142   1.378  1.1692 -2.1863 -1.3566
   64MOL   H28624352   2.241   2.207   1.533 -0.4816  1.0826 -0.7083
   64MOL   C28724353   2.094   1.680   1.596  0.2179 -0.2351 -0.5320
   64MOL   C28824354   2.057   1.703   1.742  0.1694  0.5765  0.2036
   64MOL   C28924355   1.907   1.662   1.739 -0.4975  0.7668 -0.3915
   64MOL   C29024356   1.859   1.637   1.596 -0.0678 -0.4527 -0.5228
   64MOL   C29124357   1.722   1.680   1.552  0.7004 -0.1686 -0.4526
   64MOL   C29224358   1.615   1.598   1.607  0.3430 -0.2153 -0.1384
   64MOL   C29324359   1.965   1.702   1.512  0.3978  0.6528  0.0931
   64MOL   H29424360   2.123   1.576   1.586  0.9222  0.0781 -1.8954
   64MOL   H29524361   2.122   1.633   1.794  0.5740  1.7894  1.3633
   64MOL   H29624362   2.066   1.803   1.784 -1.7484 -0.0254  2.1491
   64MOL   H29724363   1.867   1.760   1.767  0.0300  0.2261  2.3789
   64MOL   H29824364   1.884   1.591   1.819  1.9227 -0.5743 -0.8530
   64MOL   H29924365   1.864   1.530   1.574  0.3603 -0.4790 -0.3087
   64MOL   H30024366   1.713   1.688   1.443  0.4914  0.4187 -0.3968
   64MOL   H30124367   1.713   1.782   1.590 -1.3766 -1.3471  2.3692
   64MOL   H30224368   1.622   1.609   1.715 -2.9747 -0.5664  0.1634
   64MOL   H30324369   1.638   1.495   1.582 -1.1497 -0.8308  0.9939
   64MOL   H30424370   1.934   1.806   1.498 -0.0195  0.4892 -0.2023
   64MOL   H30524371   1.962   1.670   1.408  0.2009  4.1154 -1.0460
   64MOL   C30624372   1.474   1.638   1.557 -0.3081  0.5129  0.2973
   64MOL   C30724373   1.381   1.525   1.595 -0.1873 -0.1868 -0.7278
   64MOL   C30824374   1.237   1.575   1.603 -0.5227  0.0285  0.1223
   64MOL   C30924375   1.252   1.725   1.626  0.2929  0.4027  0.0553
   64MOL   C31024376   1.176   1.783   1.743  0.9316 -0.0263 -0.6173
   64MOL   C31124377   1.020   1.775   1.738  0.2497  0.0427  0.9207
   64MOL   C31224378   1.403   1.757   1.632 -0.4148 -0.4375  0.3997
   64MOL   H31324379   1.472   1.647   1.449 -0.3226  0.1533  0.2643
   64MOL   H31424380   1.400   1.446   1.523  2.6515  0.7659 -1.0947
   64MOL   H31524381   1.420   1.479   1.686  1.0499  0.7707 -0.7570
   64MOL   H31624382   1.186   1.544   1.512 -1.9457 -1.7345  1.4695
   64MOL   H31724383   1.188   1.520   1.684  0.9084  2.2738  2.6041
   64MOL   H31824384   1.217   1.774   1.535 -0.2094  1.3824  0.7688
   64MOL   H31924385   1.218   1.734   1.831 -1.7130 -1.2525 -0.0165
   64MOL   H32024386   1.203   1.888   1.753 -1.0057  0.3269  1.1125
   64MOL   H32124387   0.990   1.794   1.842  2.4743  2.6953  1.1528
   64MOL   H32224388   1.001   1.670   1.717  3.1399 -0.1073 -1.2218
   64MOL   H32324389   1.425   1.776   1.737 -1.6104  3.5137  0.0153
   64MOL   H32424390   1.424   1.843   1.570 -0.4125 -0.7982 -0.1044
   64MOL   C32524391   0.949   1.865   1.642 -0.3179  0.6392 -0.2853
   64MOL   C32624392   0.800   1.864   1.662 -0.4337 -0.0641  0.9319
   64MOL   C32724393   0.764   2.001   1.595 -0.1443 -0.5048 -0.2533
   64MOL   C32824394   0.884   2.100   1.592 -0.2885  0.1370  0.2477
   64MOL   C32924395   0.913   2.143   1.445 -0.1725 -0.6291  1.1210
   64MOL   C33024396   1.021   2.264   1.429  0.8293  0.2388  0.5752
   64MOL   C33124397   0.999   2.013   1.654 -0.0230  0.1850 -0.3719
   64MOL   H33224398   0.961   1.842   1.536  1.1981  1.2015 -0.2381
   64MOL   H33324399   0.766   1.862   1.766 -2.7704  1.4567  0.2366
   64MOL   H33424400   0.755   1.777   1.614 -0.8864  1.1120 -0.8260
   64MOL   H33524401   0.728   1.967   1.499 -1.6782 -0.6592  0.3579
   64MOL   H33624402   0.675   2.049   1.636  0.4435  1.7740 -1.5290
   64MOL   H33724403   0.855   2.177   1.664  0.1354  0.8702 -0.3644
   64MOL   H33824404   0.943   2.057   1.386 -1.2095 -0.0205 -0.3010
   64MOL   H33924405   0.823   2.183   1.399 -0.6833 -2.4540  0.4840
   64MOL   H34024406   1.101   2.267   1.504  1.7831  1.4980 -0.4785
   64MOL   H34124407   1.069   2.250   1.332  1.5497  1.5354  0.7399
   64MOL   H34224408   1.004   2.035   1.761 -0.9041 -1.3896  0.0204
   64MOL   H34324409   1.095   2.029   1.605  0.8321  0.6622  1.4258
   64MOL   C34424410   0.956   2.408   1.414  0.4591  0.0133 -0.0355
   64MOL   C34524411   1.057   2.524   1.400  0.0301  0.3249 -0.2834
   64MOL   C34624412   0.985   2.648   1.447 -0.0577 -0.4520 -0.0222
   64MOL   C34724413   0.880   2.601   1.552  0.6360 -0.1220  0.4214
   64MOL   C34824414   0.747   2.670   1.552 -0.1486 -0.2017 -0.1905
   64MOL   C34924415   0.670   2.632   1.425 -1.1115 -0.4914  0.1649
   64MOL   C35024416   0.883   2.452   1.541 -0.2665 -0.4039 -0.6497
   64MOL   H35124417   0.890   2.421   1.328  3.6098  1.2474 -2.3688
   64MOL   H35224418   1.106   2.535   1.304  3.1411  0.2387  1.2512
   64MOL   H35324419   1.139   2.502   1.468 -2.0837 -1.1036  1.9202
   64MOL   H35424420   1.047   2.727   1.491  0.7334  0.0710 -2.0424
   64MOL   H35524421   0.935   2.696   1.362 -1.2602 -0.9329  0.3956
   64MOL   H35624422   0.916   2.634   1.650  0.4378  0.7963  0.1885
   64MOL   H35724423   0.690   2.647   1.642 -1.5638  1.0606 -0.7437
   64MOL   H35824424   0.753   2.779   1.566  0.3683 -0.0995 -1.1937
   64MOL   H35924425   0.631   2.532   1.445 -1.4338 -0.3444  0.2758
   64MOL   H36024426   0.731   2.613   1.337 -2.0376  2.3931 -1.1423
   64MOL   H36124427   0.936   2.408   1.625 -1.6338 -0.7143  0.0722
   64MOL   H36224428   0.787   2.400   1.540  0.0028 -0.9083 -0.2613
   64MOL   C36324429   0.552   2.727   1.389 -0.1033  0.8924  0.0220
   64MOL   C36424430   0.457   2.672   1.285 -0.6096 -0.7779  0.2424
   64MOL   C36524431   0.383   2.804   1.243  0.0128  0.9630  0.8510
   64MOL   C36624432   0.492   2.914   1.253 -0.1975 -0.2418  0.0436
   64MOL   C36724433   0.541   2.980   1.119 -0.7251  1.0579 -0.7792
   64MOL   C36824434   0.648   3.085   1.124 -0.1868 -0.5942 -0.1186
   64MOL   C36924435   0.612   2.850   1.316  0.2294  0.0456 -0.3750
   64MOL   H37024436   0.493   2.741   1.480 -0.0546 -1.1623  0.3990
   64MOL   H37124437   0.504   2.617   1.204  1.4418  0.8262  0.2918
   64MOL   H37224438   0.387   2.605   1.335  0.2639 -1.4208  0.5939
   64MOL   H37324439   0.354   2.797   1.138 -0.7085 -0.8274  1.1505
   64MOL   H37424440   0.297   2.813   1.309 -0.1999 -1.5365  0.9750
   64MOL   H37524441   0.442   2.993   1.310  2.2642 -0.0646  2.0584
   64MOL   H37624442   0.568   2.908   1.042  0.8413  1.4637 -0.6118
   64MOL   H37724443   0.444   3.002   1.072 -0.8376 -1.6540 -1.9269
   64MOL   H37824444   0.619   3.161   1.197  1.3765 -1.3432  1.3082
   64MOL   H37924445   0.652   3.129   1.025  2.9094  1.4867  0.8603
   64MOL   H38024446   0.679   2.814   1.239  1.9437  0.7600  0.7508
   64MOL   H38124447   0.669   2.914   1.383 -0.8822 -2.3371  2.9736
   64MOL   H38224448   0.749   3.050   1.144 -0.3708 -0.4934  1.0358
   65MOL     C124449   0.121   5.804   6.157 -0.6768  0.3752 -0.1012
   65MOL     C224450   0.016   5.703   6.117 -0.2214  0.0679 -0.0681
   65MOL     C324451   0.085   5.611   6.014  0.7920  0.6692  0.2117
   65MOL     C424452   0.229   5.671   5.990 -0.4126 -0.5711 -0.3705
   65MOL     C524453   0.266   5.675   5.841 -0.4127  0.9317  0.1190
   65MOL     C624454   0.299   5.529   5.794  0.2615 -0.0031  0.2911
   65MOL     C724455   0.212   5.817   6.040 -0.6394  0.6574 -0.1373
   65MOL     H824456   0.084   5.904   6.180  2.3618  1.1576  1.6626
   65MOL     H924457   7.584   5.758   6.066 -0.7413 -0.3610  0.2551
   65MOL    H1024458   7.621   5.651   6.204 -0.2163  0.8424  0.4054
   65MOL    H1124459   0.087   5.507   6.046 -0.5962  0.1108 -1.4129
   65MOL    H1224460   0.031   5.613   5.919 -0.3365  2.3842  0.8740
   65MOL    H1324461   0.306   5.623   6.050 -1.5349  1.8823  3.1721
   65MOL    H1424462   0.177   5.700   5.782 -0.8633 -0.9682 -0.0408
   65MOL    H1524463   0.336   5.753   5.809  0.6433 -0.1914 -0.3575
   65MOL    H1624464   0.394   5.498   5.838 -0.0692 -1.8226 -0.2606
   65MOL    H1724465   0.214   5.464   5.812 -0.5264  0.8362 -0.3069
   65MOL    H1824466   0.305   5.866   6.072  0.6216 -0.0420 -2.5915
   65MOL    H1924467   0.167   5.882   5.965 -1.1440 -2.2618 -2.4434
   65MOL    H2024468   0.177   5.768   6.243  1.2380  2.0872 -0.5969
   65MOL    C2124469   0.315   5.516   5.639  1.0001  0.2522  0.8526
   65MOL    C2224470   0.427   5.604   5.590 -0.3053  0.7501  0.0751
   65MOL    C2324471   0.493   5.530   5.475  0.5529 -0.0168  0.0468
   65MOL    C2424472   0.408   5.402   5.455  0.5505  0.4968  0.4438
   65MOL    C2524473   0.475   5.274   5.410  0.4245  0.2995  0.1505
   65MOL    C2624474   0.527   5.283   5.263 -0.4468 -0.2104  0.2887
   65MOL    C2724475   0.340   5.374   5.586  0.5050 -0.0285 -0.1874
   65MOL    H2824476   0.223   5.554   5.594  0.1431 -1.4164  1.1340
   65MOL    H2924477   0.386   5.698   5.553  1.9730  1.5270 -0.5635
   65MOL    H3024478   0.496   5.624   5.671 -2.6656 -1.0671  2.6248
   65MOL    H3124479   0.490   5.594   5.387 -1.0372 -0.7233 -0.4235
   65MOL    H3224480   0.598   5.504   5.491  0.3868 -1.5921 -1.3389
   65MOL    H3324481   0.328   5.422   5.383 -0.5090 -0.4857  1.3452
   65MOL    H3424482   0.404   5.193   5.399 -0.2520  1.0616 -1.2782
   65MOL    H3524483   0.554   5.244   5.480 -0.4804 -1.2709  0.5151
   65MOL    H3624484   0.570   5.383   5.259 -0.2046 -0.1626  2.9349
   65MOL    H3724485   0.444   5.287   5.193  1.0054 -0.5422 -1.4840
   65MOL    H3824486   0.257   5.304   5.583 -0.5347  1.2048 -1.0712
   65MOL    H3924487   0.414   5.338   5.658 -0.0527  0.3654  0.5906
   65MOL    C4024488   0.633   5.179   5.224 -0.3005 -0.0147 -0.7048
   65MOL    C4124489   0.771   5.192   5.293 -1.2124 -0.9527 -0.5843
   65MOL    C4224490   0.815   5.052   5.343  0.1000  0.1447  0.3613
   65MOL    C4324491   0.673   4.997   5.369 -0.0075  0.0808  0.0147
   65MOL    C4424492   0.688   4.851   5.383  0.6475  0.7903  0.2689
   65MOL    C4524493   0.551   4.786   5.410 -0.1210  0.5007  0.2559
   65MOL    C4624494   0.594   5.031   5.247 -0.4640 -0.2147 -0.1071
   65MOL    H4724495   0.653   5.181   5.117 -0.3212 -2.4856 -0.7806
   65MOL    H4824496   0.759   5.267   5.371 -0.7576 -0.2979 -1.1306
   65MOL    H4924497   0.841   5.242   5.225 -0.8805 -0.0692  0.3875
   65MOL    H5024498   0.877   4.992   5.277 -1.4366 -2.0563  0.8182
   65MOL    H5124499   0.870   5.059   5.437 -2.8100 -1.7686  2.3208
   65MOL    H5224500   0.621   5.040   5.455 -0.1468 -1.4994  0.7420
   65MOL    H5324501   0.728   4.806   5.293  0.5298 -0.1012  0.6592
   65MOL    H5424502   0.746   4.821   5.470  0.1041 -3.7533 -0.8251
   65MOL    H5524503   0.507   4.770   5.312 -1.1447 -4.2250  1.4004
   65MOL    H5624504   0.492   4.858   5.468 -0.3941  1.0437 -0.6877
   65MOL    H5724505   0.624   4.987   5.153  0.6010  1.9564 -0.8178
   65MOL    H5824506   0.487   5.022   5.265 -0.6294  1.2152 -0.3193
   65MOL    C5924507   0.544   4.642   5.477 -0.0875  0.1187 -0.4246
   65MOL    C6024508   0.396   4.609   5.516 -0.0901 -0.8008 -0.4605
   65MOL    C6124509   0.349   4.508   5.411 -0.0173  0.7557  0.3708
   65MOL    C6224510   0.452   4.501   5.302  0.3473  0.6648  0.1516
   65MOL    C6324511   0.459   4.361   5.238  0.0969  0.6008 -0.0680
   65MOL    C6424512   0.563   4.360   5.130  0.4620 -0.0233 -0.3610
   65MOL    C6524513   0.581   4.539   5.366 -0.8792  0.0569 -0.1137
   65MOL    H6624514   0.625   4.621   5.547 -1.5802 -2.6815  0.5550
   65MOL    H6724515   0.397   4.560   5.613  2.7497 -2.1800 -1.1475
   65MOL    H6824516   0.339   4.702   5.516  2.1635  0.6248 -1.5018
   65MOL    H6924517   0.345   4.408   5.455 -0.4783  0.5697 -0.0894
   65MOL    H7024518   0.251   4.533   5.371 -1.0013 -1.0088  1.6514
   65MOL    H7124519   0.426   4.572   5.223 -0.7585 -1.2645 -1.2472
   65MOL    H7224520   0.364   4.336   5.191 -1.1695 -0.9000  3.1111
   65MOL    H7324521   0.477   4.291   5.319  1.5698  0.3222 -0.6307
   65MOL    H7424522   0.524   4.432   5.058 -0.9641 -0.9468 -0.5316
   65MOL    H7524523   0.657   4.404   5.166 -0.1381 -0.4268  1.7300
   65MOL    H7624524   0.612   4.445   5.410  0.8685  0.6842  0.0120
   65MOL    H7724525   0.638   4.590   5.289 -0.5019 -3.2401 -2.0731
   65MOL    C7824526   0.585   4.234   5.048 -0.1820  0.0237  0.3507
   65MOL    C7924527   0.679   4.248   4.936 -0.1293  0.2213  0.5556
   65MOL    C8024528   0.768   4.124   4.951  0.1896  0.7070 -0.3073
   65MOL    C8124529   0.704   4.026   5.047 -0.1307 -0.1853  0.7652
   65MOL    C8224530   0.798   3.924   5.105 -0.4433 -0.4159  0.7475
   65MOL    C8324531   0.731   3.799   5.168  0.2115 -0.0834 -0.8667
   65MOL    C8424532   0.636   4.126   5.149 -0.2090  0.0295  0.3905
   65MOL    H8524533   0.494   4.203   4.997  0.1054  0.7435 -0.5977
   65MOL    H8624534   0.623   4.253   4.843 -1.3370 -2.3239  1.1058
   65MOL    H8724535   0.741   4.337   4.949 -0.2312  0.3284  0.3026
   65MOL    H8824536   0.813   4.071   4.867 -1.1303 -0.3347 -0.3673
   65MOL    H8924537   0.856   4.171   4.996  0.5513  0.0539 -0.3227
   65MOL    H9024538   0.626   3.979   4.988 -2.6488  1.4720  2.6781
   65MOL    H9124539   0.865   3.974   5.175 -1.8439  3.8613 -0.8054
   65MOL    H9224540   0.858   3.887   5.022  0.1732  1.2673  0.4287
   65MOL    H9324541   0.643   3.774   5.109 -0.4265 -0.5231  0.2589
   65MOL    H9424542   0.693   3.826   5.266 -1.4696 -0.4155 -1.3961
   65MOL    H9524543   0.706   4.177   5.216  2.8106 -0.3217 -2.3870
   65MOL    H9624544   0.564   4.088   5.222  0.0378 -0.9724  0.1219
   65MOL    C9724545   0.824   3.675   5.188 -0.1521 -0.4914  0.2130
   65MOL    C9824546   0.843   3.598   5.050 -0.4189 -0.1266 -0.0736
   65MOL    C9924547   0.831   3.453   5.081  0.1435 -0.6639  0.9274
   65MOL   C10024548   0.820   3.444   5.235  0.2963 -0.3086 -0.7192
   65MOL   C10124549   0.748   3.319   5.285  0.1401 -0.3125  0.0094
   65MOL   C10224550   0.747   3.299   5.435 -0.3876 -0.5561 -0.7353
   65MOL   C10324551   0.763   3.573   5.276  0.3590 -0.1485  0.2454
   65MOL   H10424552   0.922   3.703   5.228 -1.0372 -0.7918  2.6697
   65MOL   H10524553   0.788   3.630   4.962 -0.3962  1.2030  0.3838
   65MOL   H10624554   0.949   3.615   5.033 -0.3885  0.1768  0.3996
   65MOL   H10724555   0.740   3.420   5.031  0.6690  0.2811 -0.6932
   65MOL   H10824556   0.914   3.396   5.039 -0.8249 -0.4446 -1.3649
   65MOL   H10924557   0.919   3.443   5.282 -0.2182 -1.2067  0.3604
   65MOL   H11024558   0.646   3.312   5.246 -0.2139 -0.3283  0.9118
   65MOL   H11124559   0.805   3.237   5.243 -1.0961 -1.0891 -0.1765
   65MOL   H11224560   0.849   3.278   5.466 -1.2270 -1.0204  1.8321
   65MOL   H11324561   0.719   3.391   5.487 -0.6168 -1.3099  0.4913
   65MOL   H11424562   0.656   3.576   5.254  0.8606  1.7452 -2.3255
   65MOL   H11524563   0.781   3.605   5.378 -0.5827  0.7808  0.1343
   65MOL   C11624564   0.660   3.175   5.477  0.3165 -0.0757  1.1951
   65MOL   C11724565   0.689   3.140   5.627 -0.0963  0.2843  0.5078
   65MOL   C11824566   0.568   3.169   5.712  1.1760  0.2811  0.0110
   65MOL   C11924567   0.456   3.132   5.614 -0.1663  0.0982 -0.7603
   65MOL   C12024568   0.320   3.192   5.663 -0.1377 -0.1821 -0.4906
   65MOL   C12124569   0.267   3.145   5.801 -0.4382 -0.3286  0.0708
   65MOL   C12224570   0.511   3.196   5.484  0.9482 -0.0859  0.1825
   65MOL   H12324571   0.691   3.088   5.420 -4.0636  0.4485 -2.1896
   65MOL   H12424572   0.782   3.184   5.664  1.5081 -0.8915 -2.0064
   65MOL   H12524573   0.707   3.033   5.630 -0.5020  0.2320  1.1233
   65MOL   H12624574   0.567   3.273   5.744  1.6847 -0.0924  1.2663
   65MOL   H12724575   0.568   3.114   5.806  0.6072 -0.6911 -0.5584
   65MOL   H12824576   0.456   3.024   5.598 -1.6007 -0.0369  0.0096
   65MOL   H12924577   0.251   3.158   5.585 -1.1177 -1.1398  0.7768
   65MOL   H13024578   0.328   3.300   5.652  1.3690 -0.2900 -0.5578
   65MOL   H13124579   0.329   3.192   5.877 -0.6283 -0.5412  0.3566
   65MOL   H13224580   0.282   3.038   5.813 -0.2990 -0.3622 -0.3907
   65MOL   H13324581   0.468   3.175   5.386  1.1825 -0.4782  0.1631
   65MOL   H13424582   0.487   3.302   5.479 -1.8679 -0.6698  0.4219
   65MOL   C13524583   0.119   3.191   5.835 -1.5107  1.1364 -1.1703
   65MOL   C13624584   0.014   3.117   5.745 -0.7913  0.1326  0.2995
   65MOL   C13724585   7.558   3.062   5.840  0.2038 -0.1437  0.6182
   65MOL   C13824586   7.633   3.039   5.965  0.0864  0.1850  0.1212
   65MOL   C13924587   7.559   3.015   6.103 -0.7724 -0.1728  0.1055
   65MOL   C14024588   7.457   2.899   6.089 -0.3380  0.4024  0.5307
   65MOL   C14124589   0.090   3.150   5.977 -0.1378 -0.2791  0.4595
   65MOL   H14224590   0.116   3.299   5.824 -1.4727  1.3286  0.5391
   65MOL   H14324591   7.611   3.182   5.673 -1.9756  0.6418  1.5655
   65MOL   H14424592   0.054   3.031   5.691  0.3923  2.8648 -3.3388
   65MOL   H14524593   7.475   3.128   5.866  1.3958  0.9553  1.7235
   65MOL   H14624594   7.518   2.965   5.808 -1.3806  0.5666  0.4048
   65MOL   H14724595   0.039   2.946   5.946 -1.3779 -0.4275 -1.1047
   65MOL   H14824596   7.508   3.108   6.129 -1.1449 -0.2057 -0.4886
   65MOL   H14924597   7.617   2.989   6.192 -0.9596  2.3509  1.0119
   65MOL   H15024598   7.400   2.903   5.996 -0.7322  3.6804  0.8703
   65MOL   H15124599   7.494   2.797   6.082  0.3652  0.6802  0.2043
   65MOL   H15224600   0.174   3.098   6.022 -1.2654 -2.7801 -0.2360
   65MOL   H15324601   0.066   3.230   6.047  0.3488  0.6315 -0.4039
   65MOL   C15424602   7.357   2.882   6.203 -0.5479 -0.0605  0.8099
   65MOL   C15524603   7.419   2.869   6.346 -0.9741  0.1917 -0.0722
   65MOL   C15624604   7.305   2.810   6.436  0.1314  0.1306  1.1205
   65MOL   C15724605   7.199   2.764   6.330 -0.1719 -0.4274  0.1060
   65MOL   C15824606   7.148   2.621   6.353  0.1901 -0.2653  0.5020
   65MOL   C15924607   7.026   2.581   6.259 -0.3669 -0.3971 -0.0344
   65MOL   C16024608   7.262   2.771   6.189 -0.5903  0.3118  0.1288
   65MOL   H16124609   7.296   2.971   6.194  0.5971  0.5009 -1.9320
   65MOL   H16224610   7.502   2.799   6.341 -0.6628  0.5760 -0.2930
   65MOL   H16324611   7.462   2.962   6.384 -2.7188  0.8485  0.3563
   65MOL   H16424612   7.355   2.726   6.484  2.0347 -0.4516 -1.7355
   65MOL   H16524613   7.274   2.892   6.502 -0.1694 -0.4491  1.7073
   65MOL   H16624614   7.109   2.825   6.344 -0.1127 -0.5027  0.8290
   65MOL   H16724615   7.120   2.624   6.458 -0.8368  0.4533  0.2203
   65MOL   H16824616   7.235   2.555   6.347 -0.5421 -1.1147 -1.0360
   65MOL   H16924617   6.938   2.640   6.286  0.9054  1.4366  0.2321
   65MOL   H17024618   7.038   2.629   6.162  3.6589  1.0439  1.0498
   65MOL   H17124619   7.193   2.793   6.107 -0.4373 -1.4518 -0.4855
   65MOL   H17224620   7.330   2.688   6.169 -3.1830 -1.7369 -0.4861
   65MOL   C17324621   7.012   2.425   6.235  0.4101 -1.0927  0.2140
   65MOL   C17424622   6.902   2.399   6.132 -0.2286  0.3207  0.1785
   65MOL   C17524623   6.961   2.293   6.040  0.1951  0.6815 -0.3985
   65MOL   C17624624   7.118   2.330   6.044  0.5015  1.0294 -0.1122
   65MOL   C17724625   7.172   2.431   5.953 -0.1348 -0.2159  0.4736
   65MOL   C17824626   7.326   2.448   5.956  0.1231  0.2646 -0.0143
   65MOL   C17924627   7.142   2.358   6.186 -0.5567  0.4837  0.1745
   65MOL   H18024628   6.986   2.379   6.330 -2.1407 -1.2190 -0.4980
   65MOL   H18124629   6.868   2.490   6.082 -2.2236 -0.5346 -0.0864
   65MOL   H18224630   6.812   2.354   6.174  0.1439  0.6613  1.3412
   65MOL   H18324631   6.943   2.196   6.086 -0.5702  0.7103 -0.6306
   65MOL   H18424632   6.914   2.291   5.941 -1.3526 -0.1594  0.3377
   65MOL   H18524633   7.173   2.243   6.009 -1.2143 -1.0981  2.2606
   65MOL   H18624634   7.119   2.522   5.980 -0.0160  0.0602 -0.2093
   65MOL   H18724635   7.141   2.390   5.857 -3.8574 -0.5383  1.7359
   65MOL   H18824636   7.370   2.352   5.929 -0.6065  0.1363 -0.7750
   65MOL   H18924637   7.362   2.469   6.056 -0.0770  1.0539 -0.1074
   65MOL   H19024638   7.238   2.401   6.214 -0.5653 -0.2161  1.3173
   65MOL   H19124639   7.138   2.267   6.246 -0.1123  0.2288 -0.1787
   65MOL   C19224640   7.368   2.560   5.855  0.4493 -0.0469  0.0229
   65MOL   C19324641   7.387   2.510   5.709 -0.1454  0.5188 -0.6376
   65MOL   C19424642   7.530   2.527   5.663 -0.0151  0.2705  0.5575
   65MOL   C19524643   7.611   2.539   5.791 -0.0349  0.3819  0.7089
   65MOL   C19624644   0.113   2.595   5.787  0.0859  0.2284  0.0390
   65MOL   C19724645   0.188   2.549   5.911 -0.3296 -0.4758 -0.1149
   65MOL   C19824646   7.510   2.612   5.890 -0.3326 -0.2364 -0.4406
   65MOL   H19924647   7.296   2.641   5.855 -0.4608 -0.8048 -2.2134
   65MOL   H20024648   7.354   2.406   5.702 -0.5814  0.4415  2.0702
   65MOL   H20124649   7.322   2.568   5.644 -0.0377 -0.0734 -1.2843
   65MOL   H20224650   7.547   2.616   5.602 -0.5289 -1.7383 -2.6411
   65MOL   H20324651   7.557   2.441   5.602 -2.6630  0.5963 -1.1550
   65MOL   H20424652   7.616   2.435   5.823 -1.6252 -0.1146 -0.6026
   65MOL   H20524653   0.106   2.703   5.781 -0.9843  0.1093 -1.1220
   65MOL   H20624654   0.172   2.552   5.706  1.9606  0.1565  1.3976
   65MOL   H20724655   0.210   2.442   5.911  3.0173  0.1117  2.3680
   65MOL   H20824656   0.126   2.566   5.999  3.6588  1.9538  2.3747
   65MOL   H20924657   7.525   2.720   5.884  1.3939 -0.5262 -1.8570
   65MOL   H21024658   7.550   2.595   5.990 -0.3265  1.2142 -0.1820
   65MOL   C21124659   0.313   2.633   5.938 -0.5121  0.5444  0.6848
   65MOL   C21224660   0.402   2.569   6.052 -0.4322  0.5542  0.9229
   65MOL   C21324661   0.465   2.688   6.122 -0.5166 -0.2742  0.3971
   65MOL   C21424662   0.402   2.816   6.067 -0.5301 -0.2949 -0.1566
   65MOL   C21524663   0.377   2.923   6.172 -0.3809  0.3930  0.2818
   65MOL   C21624664   0.503   2.969   6.247  0.0220  0.2989  0.4567
   65MOL   C21724665   0.277   2.770   5.986  0.6017  0.7832  0.6181
   65MOL   H21824666   0.374   2.635   5.848 -0.8889  0.9416  0.4341
   65MOL   H21924667   0.335   2.522   6.124 -1.5910  1.2541  0.3336
   65MOL   H22024668   0.479   2.504   6.012  0.9260  2.3550  0.5076
   65MOL   H22124669   0.446   2.685   6.230  0.6948 -0.4822  0.6046
   65MOL   H22224670   0.569   2.705   6.095 -1.2757  1.1882 -1.7537
   65MOL   H22324671   0.463   2.857   5.987  1.4280 -0.7603  1.0699
   65MOL   H22424672   0.315   2.882   6.252 -1.1107  0.4312 -0.2667
   65MOL   H22524673   0.317   3.000   6.124  1.8725  1.8264 -0.3031
   65MOL   H22624674   0.546   2.885   6.303 -0.7791 -1.0270 -0.8764
   65MOL   H22724675   0.579   3.012   6.182 -0.1436 -0.4872 -0.2760
   65MOL   H22824676   0.249   2.836   5.904 -0.8211 -2.3498 -1.5027
   65MOL   H22924677   0.190   2.759   6.051 -2.2413 -0.6300 -3.2262
   65MOL   C23024678   0.465   3.084   6.331  0.3454  0.4320  0.0141
   65MOL   C23124679   0.461   3.221   6.257 -0.0649  0.0029 -0.3758
   65MOL   C23224680   0.465   3.314   6.374 -0.2570 -0.1727  0.4372
   65MOL   C23324681   0.570   3.259   6.475  0.1867  0.7581 -0.7552
   65MOL   C23424682   0.532   3.285   6.616  0.5624 -0.4242 -0.5169
   65MOL   C23524683   0.547   3.431   6.645  0.3154 -0.6900 -0.0071
   65MOL   C23624684   0.577   3.116   6.437 -0.1778 -0.1832 -0.2181
   65MOL   H23724685   0.378   3.070   6.396 -1.2065  1.9345 -1.6841
   65MOL   H23824686   0.545   3.231   6.188 -1.2082  0.4944 -1.7158
   65MOL   H23924687   0.367   3.235   6.204  0.2786  0.6816 -0.8183
   65MOL   H24024688   0.367   3.318   6.422  0.0891 -2.1954  1.3568
   65MOL   H24124689   0.499   3.412   6.341 -3.1394 -0.0270 -2.3267
   65MOL   H24224690   0.666   3.309   6.464  0.7814 -0.7977 -2.9166
   65MOL   H24324691   0.603   3.233   6.681 -0.6652 -1.8096 -0.2578
   65MOL   H24424692   0.432   3.244   6.630  0.3124  0.0926 -0.7730
   65MOL   H24524693   0.654   3.450   6.654  0.0094  0.7615  0.7395
   65MOL   H24624694   0.504   3.500   6.571  0.0146  0.6336  1.3608
   65MOL   H24724695   0.565   3.052   6.525 -3.4909 -0.5359 -0.8451
   65MOL   H24824696   0.672   3.085   6.394 -0.7816  0.3063 -1.9542
   65MOL   C24924697   0.475   3.479   6.769  0.5447  0.6536 -0.7280
   65MOL   C25024698   0.507   3.626   6.800  0.1276 -1.2517  0.1822
   65MOL   C25124699   0.377   3.672   6.868  0.7187 -0.5153  0.3260
   65MOL   C25224700   0.274   3.608   6.775  0.7130  0.0260 -0.3840
   65MOL   C25324701   0.125   3.608   6.814 -0.4435  0.1898 -0.8740
   65MOL   C25424702   0.054   3.741   6.835  0.0830  0.2177  0.0936
   65MOL   C25524703   0.323   3.464   6.772 -0.1358  0.1565 -0.0840
   65MOL   H25624704   0.504   3.416   6.853  0.9060  1.0210 -0.5758
   65MOL   H25724705   0.583   3.640   6.877 -0.9422  1.6254  0.7722
   65MOL   H25824706   0.541   3.682   6.712 -0.1470  0.7736  1.3421
   65MOL   H25924707   0.350   3.778   6.862  1.9575 -0.2916 -1.6823
   65MOL   H26024708   0.378   3.639   6.972  0.2827  1.0204  0.8402
   65MOL   H26124709   0.273   3.648   6.673  0.7654 -1.3770 -0.9494
   65MOL   H26224710   0.114   3.565   6.913 -1.5215  1.8212 -0.2685
   65MOL   H26324711   0.076   3.537   6.747  1.5368 -1.4170 -0.6809
   65MOL   H26424712   0.064   3.792   6.739  1.3403 -0.3821 -0.1068
   65MOL   H26524713   0.098   3.812   6.906  1.6848 -0.8322  0.1647
   65MOL   H26624714   0.293   3.407   6.684  0.3309 -1.2277  0.6500
   65MOL   H26724715   0.293   3.421   6.867 -1.5626  1.4994  0.1136
   65MOL   C26824716   7.556   3.722   6.849  0.3018  0.3498  0.6077
   65MOL   C26924717   7.480   3.854   6.864  0.3927 -0.5951 -0.5178
   65MOL   C27024718   7.348   3.814   6.920 -0.1236  0.2488 -0.5020
   65MOL   C27124719   7.367   3.681   6.997  0.5825  0.1877  0.0412
   65MOL   C27224720   7.331   3.688   7.148  0.4099  0.3584 -0.0130
   65MOL   C27324721   7.186   3.716   7.181 -0.1178 -0.0676  0.0283
   65MOL   C27424722   7.506   3.637   6.974  0.6334 -0.0219  0.4677
   65MOL   H27524723   7.520   3.685   6.753 -1.2340  3.0990  0.0491
   65MOL   H27624724   7.531   3.921   6.932 -0.9781  1.2668 -1.2837
   65MOL   H27724725   7.469   3.900   6.766  0.6141  1.3073  0.3272
   65MOL   H27824726   7.303   3.892   6.982 -2.9356 -2.8690  1.5483
   65MOL   H27924727   7.292   3.793   6.829 -2.2016 -0.7609  0.9647
   65MOL   H28024728   7.299   3.606   6.957  0.5903 -0.4479  1.1682
   65MOL   H28124729   7.400   3.745   7.211  0.8053 -1.4296  1.2192
   65MOL   H28224730   7.339   3.591   7.197  1.5078  1.0188  1.1528
   65MOL   H28324731   7.145   3.783   7.106 -0.7480 -2.1529 -1.5324
   65MOL   H28424732   7.129   3.623   7.177 -2.4145  1.3053 -0.1270
   65MOL   H28524733   7.563   3.654   7.066  2.5371  0.2735 -0.7399
   65MOL   H28624734   7.507   3.532   6.943 -1.3611  0.7271 -2.2516
   65MOL   C28724735   7.160   3.781   7.321 -0.2121  0.4557 -0.0003
   65MOL   C28824736   7.215   3.923   7.337  0.6016 -0.2540  0.0429
   65MOL   C28924737   7.096   4.004   7.401  0.2434  0.0598 -0.2147
   65MOL   C29024738   7.014   3.901   7.478  0.3045  0.5336  0.2236
   65MOL   C29124739   6.877   3.937   7.516 -0.0522 -0.1857  0.0432
   65MOL   C29224740   6.800   3.825   7.603 -0.6015 -1.2898 -0.1778
   65MOL   C29324741   7.015   3.797   7.365  0.6573 -0.3465  0.3678
   65MOL   H29424742   7.208   3.718   7.396 -0.6058 -0.1873 -0.2837
   65MOL   H29524743   7.306   3.921   7.397  0.6976 -1.0294 -0.1224
   65MOL   H29624744   7.248   3.971   7.245 -2.2341  0.2216 -0.7835
   65MOL   H29724745   7.037   4.048   7.321 -0.6067 -2.7559 -1.1638
   65MOL   H29824746   7.135   4.087   7.461  2.2188 -2.2157  1.7676
   65MOL   H29924747   7.065   3.864   7.568  2.7116  0.9651 -0.9351
   65MOL   H30024748   6.812   3.953   7.430 -0.6455  1.8787  0.8509
   65MOL   H30124749   6.875   4.035   7.563 -0.1602  0.3755 -1.1010
   65MOL   H30224750   6.852   3.798   0.047 -0.4926 -1.3540 -0.2582
   65MOL   H30324751   6.800   3.732   7.546 -1.1958 -1.6504  0.4083
   65MOL   H30424752   6.954   3.826   7.280  1.8305 -0.1141 -0.4060
   65MOL   H30524753   6.976   3.708   7.415  3.4763 -1.3752  0.8271
   65MOL   C30624754   6.649   3.856   7.627 -0.5106 -0.0341  0.0714
   65MOL   C30724755   6.573   3.746   0.060  0.4117 -0.1787  0.5325
   65MOL   C30824756   6.479   3.810   0.155 -0.1343 -0.3717 -0.7179
   65MOL   C30924757   6.486   3.961   0.137  0.9368  0.2152  0.2281
   65MOL   C31024758   6.462   4.034   0.266 -0.5713  0.8853 -0.1508
   65MOL   C31124759   6.493   4.190   0.262  0.1373  0.0181  0.2272
   65MOL   C31224760   6.624   3.977   0.077 -0.2562 -0.6037  0.6571
   65MOL   H31324761   6.598   3.880   7.534 -0.5712  2.0396  0.6122
   65MOL   H31424762   6.512   3.685   7.640 -2.0275  3.0206 -0.3080
   65MOL   H31524763   6.637   3.679   0.116  0.1384  0.1129  1.2044
   65MOL   H31624764   6.381   3.766   0.146 -0.4168  0.0871  0.0739
   65MOL   H31724765   6.529   3.788   0.249 -0.2948  0.3575 -0.4577
   65MOL   H31824766   6.409   3.997   0.068 -0.7351  0.0855  1.9803
   65MOL   H31924767   6.359   4.025   0.302  0.1440 -1.5795  1.3769
   65MOL   H32024768   6.527   3.989   0.341  1.0592  3.3711 -0.0390
   65MOL   H32124769   6.593   4.194   0.221 -0.0976 -0.1640 -0.3639
   65MOL   H32224770   6.492   4.223   0.366 -1.3167  1.4650 -0.2216
   65MOL   H32324771   6.702   3.975   0.154  0.8957 -0.1459 -0.4842
   65MOL   H32424772   6.645   4.065   0.017 -0.6927 -0.7187  0.3364
   65MOL   C32524773   6.407   4.272   0.168 -0.3759 -0.3767  0.2947
   65MOL   C32624774   6.263   4.252   0.190 -0.3588 -0.2828  0.3159
   65MOL   C32724775   6.202   4.374   0.125  0.1584 -0.3511 -0.3720
   65MOL   C32824776   6.299   4.486   0.155 -0.3351 -0.1827 -0.4791
   65MOL   C32924777   6.316   4.603   0.049 -0.3061 -0.1132  0.2812
   65MOL   C33024778   6.415   4.709   0.097  0.4476  0.0007  0.2925
   65MOL   C33124779   6.428   4.417   0.175  0.6672  0.5281  0.0791
   65MOL   H33224780   6.419   4.251   0.061 -1.2704 -2.1185  0.5231
   65MOL   H33324781   6.247   4.244   0.298  0.5335 -0.1825  0.4675
   65MOL   H33424782   6.226   4.158   0.150 -0.8350 -0.4476  1.1370
   65MOL   H33524783   6.185   4.357   0.019 -1.8684  1.3646 -0.3570
   65MOL   H33624784   6.099   4.389   0.158  0.7401 -1.7485  2.2373
   65MOL   H33724785   6.252   4.523   0.246 -1.7793 -0.6418 -1.0260
   65MOL   H33824786   6.356   4.562   7.603 -1.1635  0.4268 -0.3342
   65MOL   H33924787   6.215   4.642   0.037  0.5715  2.7451  1.6904
   65MOL   H34024788   6.395   4.728   0.202 -1.0769  1.2677 -0.2204
   65MOL   H34124789   6.519   4.678   0.087  0.0380 -1.4617  0.3906
   65MOL   H34224790   6.464   4.440   0.275 -1.2685 -3.5965  1.8613
   65MOL   H34324791   6.499   4.445   0.097  1.1179 -1.3357 -0.1938
   65MOL   C34424792   6.420   4.836   0.015 -0.1728  0.5081 -0.4552
   65MOL   C34524793   6.438   4.811   7.515  0.1077  0.3017 -0.1023
   65MOL   C34624794   6.481   4.949   7.457 -0.1350  0.1749  0.5645
   65MOL   C34724795   6.569   5.009   7.563  0.5303 -0.6665  0.6069
   65MOL   C34824796   6.551   5.163   7.579 -0.1952  0.0857 -0.6484
   65MOL   C34924797   6.529   5.251   7.456  0.6262 -0.0307 -0.2165
   65MOL   C35024798   6.525   4.944   0.053  0.3768 -0.1411 -0.8850
   65MOL   H35124799   6.328   4.893   0.029 -0.8569 -0.0226 -2.6057
   65MOL   H35224800   6.355   4.768   7.458  1.2156 -1.1827 -0.6332
   65MOL   H35324801   6.519   4.740   7.498  0.8468  0.9368  0.7518
   65MOL   H35424802   6.530   4.957   7.360 -0.8803 -0.5678  0.1213
   65MOL   H35524803   6.392   5.012   7.459  0.0079  0.4391 -0.6197
   65MOL   H35624804   6.675   4.991   7.544  1.0119  2.9879 -0.5529
   65MOL   H35724805   6.472   5.186   0.003  1.1456  0.1898  0.8338
   65MOL   H35824806   6.636   5.209   7.630 -0.5050 -0.4765  0.3769
   65MOL   H35924807   6.509   5.350   7.496  1.3553 -0.0468  0.1968
   65MOL   H36024808   6.439   5.235   7.397  0.6511  1.5884 -0.7309
   65MOL   H36124809   6.617   4.910   0.099  0.3902  1.0351 -0.0524
   65MOL   H36224810   6.483   5.013   0.126  2.5643  0.5395 -0.2495
   65MOL   C36324811   6.646   5.259   7.356 -0.6115 -0.1203  0.4723
   65MOL   C36424812   6.792   5.269   7.406  0.3108  1.1578 -0.6793
   65MOL   C36524813   6.871   5.344   7.302  0.3109  0.3284 -0.1690
   65MOL   C36624814   6.771   5.373   7.187  0.1676  0.7790 -0.1690
   65MOL   C36724815   6.783   5.504   7.121  0.1074 -0.2333  0.1013
   65MOL   C36824816   6.921   5.509   7.042 -0.1528  0.0442 -0.1484
   65MOL   C36924817   6.638   5.379   7.255  0.0852 -0.3275  0.1481
   65MOL   H37024818   6.635   5.170   7.295 -3.2347 -0.0289  0.7275
   65MOL   H37124819   6.793   5.331   7.495  1.0479  0.2173 -0.0186
   65MOL   H37224820   6.823   5.167   7.432 -0.2120  0.8032 -1.4204
   65MOL   H37324821   6.915   5.437   7.336  1.6755 -0.3643 -0.0051
   65MOL   H37424822   6.955   5.286   7.264 -0.7628 -1.5643  0.2531
   65MOL   H37524823   6.777   5.294   7.112 -1.8947 -1.3865  1.8496
   65MOL   H37624824   6.699   5.510   7.052  0.0627 -1.5941  0.0147
   65MOL   H37724825   6.779   5.594   7.182 -0.9186  0.0232 -0.3418
   65MOL   H37824826   7.006   5.471   7.100 -1.7761 -1.8981  1.0290
   65MOL   H37924827   6.943   5.610   7.010 -0.2602 -0.1652 -0.8765
   65MOL   H38024828   6.621   5.471   7.311  1.9194 -0.9689  1.8279
   65MOL   H38124829   6.558   5.363   7.183 -1.3541 -2.0963  2.0729
   65MOL   H38224830   6.901   5.450   6.953 -1.5722  0.4532 -0.1171
   66MOL     C124831   5.936   2.100   2.559 -0.1432 -0.2186 -0.3434
   66MOL     C224832   5.954   2.208   2.659 -0.4326  0.4603  0.0749
   66MOL     C324833   5.817   2.271   2.661  0.6711 -0.3529  0.2488
   66MOL     C424834   5.737   2.234   2.537 -0.0611  0.5164  0.3968
   66MOL     C524835   5.683   2.359   2.466  0.2286 -0.5238 -0.5456
   66MOL     C624836   5.584   2.336   2.348  0.0012  0.2587  0.3143
   66MOL     C724837   5.843   2.154   2.459  0.5723 -0.3952 -0.0204
   66MOL     H824838   6.033   2.078   2.514  0.4805  0.4964  0.6413
   66MOL     H924839   6.028   2.286   2.640  0.1736 -0.1636 -0.1163
   66MOL    H1024840   5.984   2.167   2.755  2.5867  0.9112 -0.6220
   66MOL    H1124841   5.759   2.252   2.752  0.4966  0.4166  0.2980
   66MOL    H1224842   5.822   2.379   2.672  3.0707 -0.2784 -1.3631
   66MOL    H1324843   5.663   2.158   2.565  1.5506 -1.6529 -1.0697
   66MOL    H1424844   5.629   2.423   2.535  1.8180 -1.0405  1.2183
   66MOL    H1524845   5.763   2.427   2.436 -0.4161  0.9218  0.9042
   66MOL    H1624846   5.517   2.258   2.384 -0.2098  1.2903  2.2183
   66MOL    H1724847   5.511   2.417   2.346 -1.7954 -1.3466 -0.3470
   66MOL    H1824848   5.799   2.072   2.402  0.8759 -0.5942  0.0299
   66MOL    H1924849   5.906   2.212   2.391  0.4928  1.0829  1.1397
   66MOL    H2024850   5.893   2.011   2.604  0.4880 -0.7019 -0.6750
   66MOL    C2124851   5.643   2.322   2.211  0.0364 -0.0260 -0.0059
   66MOL    C2224852   5.570   2.234   2.116 -0.2070  0.0364  0.5090
   66MOL    C2324853   5.578   2.305   1.980  0.7378 -0.4325  0.8359
   66MOL    C2424854   5.676   2.421   2.005 -0.3975 -0.0482  0.3498
   66MOL    C2524855   5.651   2.537   1.904  0.0108 -0.8784  0.5529
   66MOL    C2624856   5.775   2.629   1.906 -0.0354 -0.1954  0.1291
   66MOL    C2724857   5.668   2.462   2.151 -0.1044 -0.1682 -0.1082
   66MOL    H2824858   5.742   2.276   2.223  0.9584  1.9343 -0.0061
   66MOL    H2924859   5.609   2.133   2.110 -1.0868 -0.1884 -2.0048
   66MOL    H3024860   5.463   2.242   2.138 -0.2552 -1.2249  0.7288
   66MOL    H3124861   5.601   2.239   1.896  1.6786  2.7093 -1.4497
   66MOL    H3224862   5.477   2.338   1.958  0.5326 -0.8339  1.1657
   66MOL    H3324863   5.774   2.378   1.987 -0.5361  0.4212 -1.6769
   66MOL    H3424864   5.555   2.584   1.925  1.4162  1.8397  1.1006
   66MOL    H3524865   5.648   2.505   1.800 -0.7506  2.6340 -0.5786
   66MOL    H3624866   5.871   2.577   1.915 -0.0372 -0.5115 -1.6363
   66MOL    H3724867   5.756   2.681   2.000 -0.3533 -0.3600  0.1580
   66MOL    H3824868   5.760   2.501   2.195 -1.2690  0.1201  2.1579
   66MOL    H3924869   5.581   2.527   2.161  0.3030  0.6656 -1.7540
   66MOL    C4024870   5.772   2.735   1.801  0.0608 -0.3514 -0.1722
   66MOL    C4124871   5.648   2.828   1.811  0.4502 -0.0164 -1.0008
   66MOL    C4224872   5.687   2.947   1.725 -0.9052 -0.8081  0.4345
   66MOL    C4324873   5.839   2.964   1.733 -0.4408 -0.1594 -0.3403
   66MOL    C4424874   5.898   2.996   1.595  0.0363 -0.0484 -0.4112
   66MOL    C4524875   5.854   3.137   1.544 -1.3432  0.4958 -0.3490
   66MOL    C4624876   5.892   2.832   1.796  0.1282  0.6511  0.4470
   66MOL    H4724877   5.776   2.697   1.699  0.6491 -1.3214  0.2106
   66MOL    H4824878   5.618   2.868   1.907  2.4875  0.9554 -0.7288
   66MOL    H4924879   5.557   2.789   1.766 -1.3859 -0.3802  2.8578
   66MOL    H5024880   5.660   2.931   1.621 -3.0256  1.9650  0.4876
   66MOL    H5124881   5.623   3.029   1.760 -1.4526 -1.1239  0.1874
   66MOL    H5224882   5.871   3.035   1.809  3.1166 -0.4659 -1.4771
   66MOL    H5324883   6.006   2.986   1.609 -0.2572 -1.5381  0.9334
   66MOL    H5424884   5.864   2.915   1.531  1.0923  0.0025 -1.0521
   66MOL    H5524885   5.909   3.210   1.603 -5.5122  1.2509  2.8060
   66MOL    H5624886   5.752   3.163   1.571 -1.3736 -0.9556  0.9582
   66MOL    H5724887   5.973   2.781   1.744 -0.6197  1.3854 -1.4574
   66MOL    H5824888   5.923   2.842   1.901 -3.0674 -1.2027  1.6417
   66MOL    C5924889   5.890   3.153   1.392 -0.1104 -0.3774 -0.2517
   66MOL    C6024890   5.819   3.066   1.296  0.4991 -0.5399 -0.4736
   66MOL    C6124891   5.844   3.129   1.162 -0.8478 -0.4953  0.2510
   66MOL    C6224892   5.839   3.277   1.191  0.1611 -0.2671  0.0795
   66MOL    C6324893   5.923   3.377   1.107 -0.2315  0.4472 -0.0451
   66MOL    C6424894   5.890   3.379   0.956 -0.1336 -0.7682 -0.0117
   66MOL    C6524895   5.868   3.291   1.338  0.7399 -0.6318  0.4886
   66MOL    H6624896   5.999   3.145   1.386 -0.0045 -1.0891  1.9798
   66MOL    H6724897   5.846   2.961   1.306  0.0813 -0.4538  1.8559
   66MOL    H6824898   5.711   3.070   1.310  0.4631 -1.1051 -0.5558
   66MOL    H6924899   5.944   3.105   1.128 -0.0995 -0.5425  2.3764
   66MOL    H7024900   5.766   3.094   1.094  0.6095  0.6335 -2.0516
   66MOL    H7124901   5.737   3.310   1.171 -0.1113 -0.6180  0.8386
   66MOL    H7224902   6.031   3.374   1.115 -0.0186  3.3270 -1.2733
   66MOL    H7324903   5.893   3.477   1.137 -1.0816 -0.5028  2.3632
   66MOL    H7424904   5.783   3.364   0.941 -0.0768 -0.7510 -0.4338
   66MOL    H7524905   5.909   3.477   0.913 -1.0576 -0.9370 -0.8136
   66MOL    H7624906   5.950   3.358   1.362 -0.9548  1.7290 -0.1803
   66MOL    H7724907   5.781   3.339   1.385  1.6516 -0.0507  1.6158
   66MOL    C7824908   5.959   3.272   0.868  0.1926 -1.4437  0.3121
   66MOL    C7924909   5.907   3.252   0.725  0.4721  0.3985  0.1162
   66MOL    C8024910   6.033   3.204   0.652 -0.7273  0.3785 -0.8695
   66MOL    C8124911   6.138   3.162   0.756 -0.5251 -0.1548 -0.0438
   66MOL    C8224912   6.286   3.145   0.709 -0.2648  0.2015 -0.2260
   66MOL    C8324913   6.390   3.138   0.823  0.4826  0.3338  0.4336
   66MOL    C8424914   6.107   3.270   0.862 -0.2916  0.5376 -0.1423
   66MOL    H8524915   5.935   3.182   0.925  1.9080 -1.2025  1.4616
   66MOL    H8624916   5.827   3.178   0.718  1.6398 -0.8430 -0.1368
   66MOL    H8724917   5.865   3.338   0.672 -1.2144  0.1168  0.9548
   66MOL    H8824918   6.016   3.130   0.573  0.3907 -0.2675 -0.5173
   66MOL    H8924919   6.067   3.293   0.600 -1.0959  1.7405  1.1886
   66MOL    H9024920   6.109   3.065   0.795 -1.2241  0.3873  0.8197
   66MOL    H9124921   6.312   3.229   0.645  0.7762 -0.6253 -0.9172
   66MOL    H9224922   6.295   3.051   0.654  2.1671  1.1917 -1.5924
   66MOL    H9324923   6.357   3.055   0.885  1.4659  0.3429  0.9902
   66MOL    H9424924   6.389   3.229   0.884  1.9562  1.8001 -1.6313
   66MOL    H9524925   6.141   3.370   0.835  0.7177 -0.0033 -0.9259
   66MOL    H9624926   6.161   3.251   0.955 -0.1758 -1.0397 -0.5219
   66MOL    C9724927   6.527   3.102   0.779  0.0518 -0.4468  0.8688
   66MOL    C9824928   6.633   3.093   0.888 -0.4127 -0.4855 -0.4254
   66MOL    C9924929   6.766   3.100   0.811  0.3071  0.4747  0.4552
   66MOL   C10024930   6.741   3.198   0.688  0.2347 -0.2962 -0.2523
   66MOL   C10124931   6.814   3.331   0.725 -0.1478 -0.5046 -0.2025
   66MOL   C10224932   6.966   3.332   0.718 -0.9307  0.1927 -0.2226
   66MOL   C10324933   6.588   3.211   0.683  0.8775  0.4636 -0.8243
   66MOL   H10424934   6.523   3.008   0.725 -1.8536  1.3831 -2.3712
   66MOL   H10524935   6.625   3.181   0.951 -2.2926 -0.0801 -1.2115
   66MOL   H10624936   6.613   2.999   0.940 -0.7328  0.3661  1.0050
   66MOL   H10724937   6.856   3.127   0.866  0.5432  1.4582 -0.3979
   66MOL   H10824938   6.784   2.996   0.783  0.2873  0.6187 -0.1054
   66MOL   H10924939   6.777   3.155   0.594 -2.3845  0.7442 -1.8053
   66MOL   H11024940   6.769   3.414   0.671  0.6115 -0.1665 -0.3232
   66MOL   H11124941   6.792   3.346   0.830 -0.8853 -1.0960 -0.2743
   66MOL   H11224942   7.003   3.275   0.804 -1.3877  0.4345  0.1295
   66MOL   H11324943   7.013   3.296   0.626  0.5298 -0.1496  0.6376
   66MOL   H11424944   6.563   3.314   0.707 -2.1021  0.0226 -1.8811
   66MOL   H11524945   6.558   3.193   0.580 -2.2902 -1.7569  0.3968
   66MOL   C11624946   7.029   3.470   0.735  0.2680  0.5454  0.0649
   66MOL   C11724947   7.028   3.531   0.874  0.0030 -0.7124  0.3430
   66MOL   C11824948   7.129   3.651   0.864 -0.2147  1.4092  0.2274
   66MOL   C11924949   7.233   3.605   0.754  0.0754 -0.2287  0.9206
   66MOL   C12024950   7.382   3.607   0.805 -0.2144 -0.3367  0.1676
   66MOL   C12124951   7.493   3.571   0.710 -0.0048 -0.5926  0.1239
   66MOL   C12224952   7.177   3.481   0.688  0.0255  0.4812  0.8630
   66MOL   H12324953   6.968   3.541   0.678  0.8247  0.2320 -0.9272
   66MOL   H12424954   7.049   3.459   0.953  0.7642 -0.4920  0.3441
   66MOL   H12524955   6.929   3.572   0.895  1.0059  1.8070  0.3102
   66MOL   H12624956   7.176   3.668   0.961 -1.5044  0.0405  1.1246
   66MOL   H12724957   7.081   3.744   0.835 -0.6728  0.7371 -1.1836
   66MOL   H12824958   7.223   3.683   0.678 -0.9981 -0.4496  0.8146
   66MOL   H12924959   7.372   3.547   0.896  2.0988  0.5889  1.0565
   66MOL   H13024960   7.393   3.712   0.832  1.4569 -0.0469 -1.5533
   66MOL   H13124961   7.496   3.635   0.621 -0.0902  1.4690  1.5685
   66MOL   H13224962   7.472   3.470   0.676  1.4022 -1.1229  0.7889
   66MOL   H13324963   7.195   3.472   0.581  2.2934  0.3455  1.2445
   66MOL   H13424964   7.226   3.396   0.735 -0.3829 -0.8663 -1.1015
   66MOL   C13524965   7.636   3.580   0.774 -0.4658 -0.2279 -0.5635
   66MOL   C13624966   0.021   3.471   0.873 -0.5299 -0.3033  0.3133
   66MOL   C13724967   0.169   3.437   0.848 -0.3641  0.3373 -0.3236
   66MOL   C13824968   0.191   3.464   0.701 -0.2857  0.6148 -0.1433
   66MOL   C13924969   0.343   3.481   0.666  0.0910  0.2551 -0.4418
   66MOL   C14024970   0.438   3.375   0.721 -0.1020 -0.0784  0.1483
   66MOL   C14124971   0.102   3.587   0.675  0.5947  0.0962 -0.1108
   66MOL   H14224972   0.010   3.669   0.833 -1.5795 -1.2481  1.4347
   66MOL   H14324973   7.642   3.502   0.974 -0.9830 -0.7690  0.3422
   66MOL   H14424974   7.620   3.376   0.847  0.1892 -1.1688  2.0482
   66MOL   H14524975   0.225   3.506   0.912 -1.7345  0.6309  0.5843
   66MOL   H14624976   0.188   3.333   0.873  1.0516  0.8791  0.9807
   66MOL   H14724977   0.149   3.378   0.650  2.1382 -0.2371 -0.7553
   66MOL   H14824978   0.383   3.572   0.711 -1.3110 -0.8986  3.3285
   66MOL   H14924979   0.355   3.485   0.558  0.0588 -0.6307 -0.4801
   66MOL   H15024980   0.427   3.361   0.829  1.7437  1.0027  0.4999
   66MOL   H15124981   0.418   3.279   0.672 -2.1262  1.1051 -1.4079
   66MOL   H15224982   0.065   3.580   0.573  1.7062  2.1906 -0.6742
   66MOL   H15324983   0.171   3.671   0.684  1.7045 -0.8435  0.3243
   66MOL   C15424984   0.586   3.402   0.693  0.1227  0.0303 -0.9859
   66MOL   C15524985   0.623   3.393   0.541  0.0291 -0.0714 -0.3783
   66MOL   C15624986   0.763   3.325   0.529  0.0172  0.1048  0.3193
   66MOL   C15724987   0.807   3.306   0.676  1.0142  0.0286  0.3728
   66MOL   C15824988   0.904   3.193   0.708  1.0769 -0.5192 -0.3064
   66MOL   C15924989   1.049   3.204   0.657  0.8733  0.1508 -0.2988
   66MOL   C16024990   0.677   3.301   0.761 -0.7165 -0.3812  0.2650
   66MOL   H16124991   0.620   3.489   0.749 -0.6275 -0.7894  0.7749
   66MOL   H16224992   0.557   3.331   0.480  1.8290 -3.8032  1.3093
   66MOL   H16324993   0.628   3.485   0.484  0.5754  1.1555  1.6039
   66MOL   H16424994   0.768   3.234   0.468 -0.7389  2.0439 -2.7644
   66MOL   H16524995   0.828   3.397   0.480 -1.2330  1.2307  0.2779
   66MOL   H16624996   0.861   3.393   0.713  1.0107 -0.5250  1.7120
   66MOL   H16724997   0.865   3.101   0.663 -0.2174  0.0221 -0.3211
   66MOL   H16824998   0.901   3.179   0.816 -0.9445  0.2346 -0.2462
   66MOL   H16924999   1.062   3.172   0.554 -1.4284 -1.9766  0.0250
   66MOL   H17025000   1.081   3.307   0.671 -0.6443  0.5773  0.0202
   66MOL   H17125001   0.693   3.307   0.868 -0.0163 -2.0237  0.2655
   66MOL   H17225002   0.626   3.205   0.757 -0.8117 -0.3030 -0.4834
   66MOL   C17325003   1.145   3.108   0.736 -0.0356  0.3358 -0.4912
   66MOL   C17425004   1.289   3.103   0.680  0.2466  0.0815 -0.3407
   66MOL   C17525005   1.385   3.066   0.794  0.1135  0.0520  0.3148
   66MOL   C17625006   1.285   3.032   0.909 -0.0555 -0.0470  0.0923
   66MOL   C17725007   1.346   3.053   1.040 -0.6808 -0.4925  0.3960
   66MOL   C17825008   1.260   2.996   1.150 -0.7839 -0.7511  0.3224
   66MOL   C17925009   1.163   3.120   0.881  0.0069  0.0410  0.1128
   66MOL   H18025010   1.097   3.012   0.716 -1.7247  1.4450 -1.8671
   66MOL   H18125011   1.333   3.198   0.650 -1.3610  1.3603  1.2641
   66MOL   H18225012   1.285   3.034   0.595 -0.9065 -1.7985  1.1887
   66MOL   H18325013   1.447   2.987   0.753  0.6601  0.4062  0.4529
   66MOL   H18425014   1.452   3.150   0.815  2.2300 -1.2160 -1.1869
   66MOL   H18525015   1.255   2.928   0.896 -0.7304 -0.2280  2.7472
   66MOL   H18625016   1.384   3.154   1.055 -1.9367  0.3586 -1.9069
   66MOL   H18725017   1.434   2.988   1.031 -0.9396 -0.5860 -1.7917
   66MOL   H18825018   1.252   2.888   1.138  1.3683 -0.8211 -0.7411
   66MOL   H18925019   1.157   3.027   1.134 -0.9419 -0.0562  2.4597
   66MOL   H19025020   1.181   3.225   0.907 -1.7570  1.0725 -2.6950
   66MOL   H19125021   1.079   3.100   0.947 -0.1887  1.7195  0.3909
   66MOL   C19225022   1.303   3.026   1.295  0.2744  0.0367 -0.3833
   66MOL   C19325023   1.253   2.934   1.402 -0.3828  0.1405 -0.4406
   66MOL   C19425024   1.299   3.004   1.533  0.5690  0.8161 -0.0068
   66MOL   C19525025   1.301   3.152   1.499  0.6590 -0.1929 -0.7298
   66MOL   C19625026   1.411   3.223   1.573 -0.3546 -0.4325  0.1189
   66MOL   C19725027   1.555   3.179   1.557  0.2523  0.1213 -0.0140
   66MOL   C19825028   1.284   3.167   1.343 -0.3714  0.0856  0.5043
   66MOL   H19925029   1.409   3.003   1.308  0.0717 -0.8464 -0.2323
   66MOL   H20025030   1.144   2.944   1.399 -0.6629 -1.9796  0.9730
   66MOL   H20125031   1.275   2.828   1.385 -1.2179 -0.3469  1.3381
   66MOL   H20225032   1.395   2.970   1.572  0.0391 -0.4100  0.2477
   66MOL   H20325033   1.232   2.988   1.618  1.2690 -2.1378  0.0417
   66MOL   H20425034   1.211   3.200   1.536  1.3841  0.6954 -0.1019
   66MOL   H20525035   1.385   3.226   1.678  0.2971  2.9025  0.2233
   66MOL   H20625036   1.414   3.323   1.529  2.5468 -1.4060 -2.1232
   66MOL   H20725037   1.560   3.160   1.450 -3.8214 -1.4322 -0.0276
   66MOL   H20825038   1.571   3.083   1.606 -0.9607 -0.6010 -0.9693
   66MOL   H20925039   1.363   3.228   1.299 -1.1664 -0.6977 -2.1679
   66MOL   H21025040   1.185   3.206   1.322  0.9971  2.6986 -1.3447
   66MOL   C21125041   1.660   3.280   1.601  0.3483  0.0790 -0.0513
   66MOL   C21225042   1.802   3.227   1.608 -0.1555  0.1681 -0.5584
   66MOL   C21325043   1.885   3.318   1.700 -0.2704 -0.2280 -0.8262
   66MOL   C21425044   1.781   3.420   1.746 -0.0694  0.2482  0.6314
   66MOL   C21525045   1.815   3.476   1.891  0.1675  0.1125  0.4752
   66MOL   C21625046   1.954   3.535   1.904  0.0089  0.0181 -0.0434
   66MOL   C21725047   1.640   3.361   1.727  0.1934  0.0403 -0.5296
   66MOL   H21825048   1.656   3.361   1.528 -2.5137  0.6188  0.6497
   66MOL   H21925049   1.806   3.127   1.652 -0.2289  0.7225  0.7104
   66MOL   H22025050   1.843   3.217   1.507 -0.3990 -0.6243 -0.5836
   66MOL   H22125051   1.925   3.254   1.779  0.5503  0.6308 -0.5300
   66MOL   H22225052   1.973   3.357   1.650  0.0796 -1.6213 -1.3009
   66MOL   H22325053   1.805   3.499   1.675  2.0273 -1.9177 -1.1459
   66MOL   H22425054   1.803   3.393   1.960 -3.6905 -0.0745 -0.3442
   66MOL   H22525055   1.749   3.560   1.909 -1.6581 -1.5712  1.8103
   66MOL   H22625056   2.026   3.455   1.887 -1.4854 -0.9645 -1.9407
   66MOL   H22725057   1.967   3.611   1.827  1.2991  0.3082  0.4340
   66MOL   H22825058   1.565   3.437   1.707  0.9099  0.8592 -0.1733
   66MOL   H22925059   1.623   3.308   1.821 -0.1776  0.7876 -0.1732
   66MOL   C23025060   1.980   3.590   2.046  0.0421 -0.1810  0.3398
   66MOL   C23125061   2.095   3.698   2.036  0.5939 -0.1640  0.8360
   66MOL   C23225062   2.189   3.680   2.156 -0.6866 -0.0035  0.0395
   66MOL   C23325063   2.185   3.523   2.169  0.3587  0.6406 -0.8061
   66MOL   C23425064   2.248   3.479   2.308  0.3794  0.2146  0.7261
   66MOL   C23525065   2.256   3.331   2.342  0.2233 -0.3119  0.4666
   66MOL   C23625066   2.029   3.487   2.145 -0.6803  0.0103  0.1985
   66MOL   H23725067   1.889   3.630   2.089 -0.0756  0.9032 -0.9126
   66MOL   H23825068   2.138   3.685   1.937 -0.8414 -0.8138  0.2793
   66MOL   H23925069   2.052   3.798   2.024  0.9874 -0.2926 -1.8993
   66MOL   H24025070   2.148   3.726   2.246  1.9645  1.6081  0.4662
   66MOL   H24125071   2.289   3.716   2.135 -0.2527 -1.3989 -0.3319
   66MOL   H24225072   2.245   3.475   2.092 -0.0127 -0.9348 -0.1380
   66MOL   H24325073   2.202   3.529   2.394 -0.1647  1.2437 -0.1570
   66MOL   H24425074   2.349   3.520   2.301 -0.0248  0.8153 -1.9199
   66MOL   H24525075   2.165   3.274   2.327  1.2574 -1.5859 -1.0134
   66MOL   H24625076   2.310   3.274   2.266 -1.1782 -0.2113 -0.6219
   66MOL   H24725077   1.975   3.505   2.238  0.5279 -2.1926  1.3803
   66MOL   H24825078   2.003   3.384   2.119 -0.2774 -0.4970  1.7088
   66MOL   C24925079   2.325   3.307   2.482 -0.0229 -0.2509 -0.0463
   66MOL   C25025080   2.218   3.316   2.585 -0.3567  0.7280 -0.0642
   66MOL   C25125081   2.170   3.172   2.606 -0.0108  0.6798  0.2296
   66MOL   C25225082   2.269   3.080   2.552  0.2947 -0.0431 -0.1490
   66MOL   C25325083   2.312   2.967   2.642  0.3271 -0.3398  0.2387
   66MOL   C25425084   2.390   2.857   2.564  0.2869 -0.2403  0.4675
   66MOL   C25525085   2.383   3.174   2.507  0.2508  0.1578 -0.1399
   66MOL   H25625086   2.411   3.373   2.495 -1.2979  2.0221 -2.7052
   66MOL   H25725087   2.258   3.345   2.682  0.0798 -0.0372 -0.0150
   66MOL   H25825088   2.138   3.388   2.566 -1.1114 -0.1303 -0.1139
   66MOL   H25925089   2.083   3.160   2.541 -1.4414  1.3097  1.9920
   66MOL   H26025090   2.131   3.142   2.703 -1.0239  1.9343  0.2273
   66MOL   H26125091   2.222   3.029   2.468  0.8809 -1.2657  0.2442
   66MOL   H26225092   2.228   2.925   2.697 -0.1108  0.3482  0.1179
   66MOL   H26325093   2.377   3.013   2.717  0.9367 -1.8866  0.6713
   66MOL   H26425094   2.454   2.898   2.486 -1.3074  0.5098 -0.4964
   66MOL   H26525095   2.326   2.785   2.511  1.6627 -1.1266 -0.0184
   66MOL   H26625096   2.444   3.142   2.423  1.1516 -3.5814  1.8415
   66MOL   H26725097   2.454   3.200   2.585 -0.4387  0.5173  0.3708
   66MOL   C26825098   2.475   2.774   2.662  0.2223 -0.3820 -0.2082
   66MOL   C26925099   2.563   2.661   2.605 -0.2776 -0.2599 -0.4407
   66MOL   C27025100   2.569   2.542   2.713 -0.2732 -0.7374  0.3714
   66MOL   C27125101   2.470   2.582   2.826 -0.1246 -0.1880  0.0853
   66MOL   C27225102   2.382   2.471   2.895  0.3297  0.5121 -0.3762
   66MOL   C27325103   2.444   2.377   2.993 -0.1713 -0.1349  0.1568
   66MOL   C27425104   2.388   2.695   2.760 -0.5020  0.2015 -0.5647
   66MOL   H27525105   2.535   2.841   2.724 -0.7455  0.0759  0.2595
   66MOL   H27625106   2.511   2.619   2.519 -0.9031 -1.1297  0.3510
   66MOL   H27725107   2.660   2.691   2.564 -0.7754 -1.3625 -2.4998
   66MOL   H27825108   2.533   2.453   2.660  0.2744 -1.4493  1.1942
   66MOL   H27925109   2.673   2.529   2.742  0.0432  0.3776 -0.2023
   66MOL   H28025110   2.540   2.614   2.904  0.4873  3.0332 -1.6931
   66MOL   H28125111   2.352   2.412   2.809  2.4893  0.9790 -1.5027
   66MOL   H28225112   2.300   2.517   2.950 -1.3568  0.6425 -2.9447
   66MOL   H28325113   2.524   2.324   2.941 -0.2124  2.0116 -2.1931
   66MOL   H28425114   2.491   2.436   3.072  0.4890 -2.1102  1.2863
   66MOL   H28525115   2.289   2.666   2.724 -0.9416  0.2507  0.5863
   66MOL   H28625116   2.364   2.758   2.846  0.0719  0.1700 -0.3821
   66MOL   C28725117   2.350   2.272   3.051 -0.2230  0.2387 -0.2857
   66MOL   C28825118   2.391   2.126   3.027 -0.8571 -0.0038 -0.0451
   66MOL   C28925119   2.344   2.039   3.148  0.5153  0.3910 -0.3378
   66MOL   C29025120   2.292   2.147   3.251 -0.2621 -0.0114 -0.2159
   66MOL   C29125121   2.338   2.104   3.389 -0.3066 -0.9180 -0.3784
   66MOL   C29225122   2.276   2.200   3.495 -0.4793  0.7161 -0.0345
   66MOL   C29325123   2.352   2.279   3.206 -0.1481  0.1635  0.1892
   66MOL   H29425124   2.247   2.276   3.015 -0.1789 -0.2655 -0.4676
   66MOL   H29525125   2.348   2.096   2.931 -0.7868  0.8137 -0.3359
   66MOL   H29625126   2.499   2.126   3.014 -1.2455  0.4447 -3.7697
   66MOL   H29725127   2.428   1.979   3.182 -2.2313 -2.8680  0.9848
   66MOL   H29825128   2.261   1.974   3.120  0.1992 -0.0528  1.5305
   66MOL   H29925129   2.184   2.156   3.241 -0.1621 -0.3184 -1.6945
   66MOL   H30025130   2.447   2.099   3.401 -0.0797  2.0270 -0.8843
   66MOL   H30125131   2.296   2.006   3.409 -1.1825 -0.6019 -0.6703
   66MOL   H30225132   2.170   2.177   3.482 -0.5408  0.5288  0.7850
   66MOL   H30325133   2.290   2.302   3.459 -0.7176  1.7327  2.6469
   66MOL   H30425134   2.455   2.280   3.241  0.9216  1.9191 -2.8293
   66MOL   H30525135   2.296   2.366   3.239 -0.2414 -0.0947  0.7124
   66MOL   C30625136   2.331   2.189   3.636 -0.0234  0.3399 -0.7657
   66MOL   C30725137   2.249   2.269   3.743  0.8117  0.0398  0.1556
   66MOL   C30825138   2.194   2.164   3.833  0.1852 -0.0886  0.2473
   66MOL   C30925139   2.298   2.045   3.830  0.7156  0.6320  0.2863
   66MOL   C31025140   2.249   1.905   3.873 -0.7176 -0.3018  0.1392
   66MOL   C31125141   2.224   1.888   4.020 -0.0521  0.1869 -0.1955
   66MOL   C31225142   2.345   2.041   3.686  0.4825 -0.4680  0.4174
   66MOL   H31325143   2.435   2.223   3.632  0.1342 -0.0281  0.0790
   66MOL   H31425144   2.319   2.330   3.800  0.4000  0.3186  0.3644
   66MOL   H31525145   2.173   2.343   3.716  0.7591 -0.4144 -0.9660
   66MOL   H31625146   2.174   2.208   3.931  0.0749 -0.9419  0.6066
   66MOL   H31725147   2.102   2.120   3.794  0.6244 -1.9873  1.3021
   66MOL   H31825148   2.377   2.076   3.898  1.3852  0.4706 -0.4196
   66MOL   H31925149   2.167   1.883   3.804  0.5305 -2.1859 -0.7835
   66MOL   H32025150   2.342   1.851   3.858 -0.3197  0.5820 -0.6838
   66MOL   H32125151   2.122   1.923   4.036 -1.4578 -3.8945  0.3476
   66MOL   H32225152   2.297   1.952   4.070 -0.1400  0.6024 -0.6005
   66MOL   H32325153   2.282   1.978   3.625 -1.4878  2.7544 -1.0114
   66MOL   H32425154   2.442   1.999   3.659  0.5194  1.3574 -2.5308
   66MOL   C32525155   2.240   1.750   4.085 -0.6516  0.6643 -0.6764
   66MOL   C32625156   2.206   1.754   4.236  0.5898  1.2823  0.5371
   66MOL   C32725157   2.113   1.631   4.262  0.4287  0.9786  0.0808
   66MOL   C32825158   2.040   1.612   4.125  0.0956 -0.8637 -0.1152
   66MOL   C32925159   1.956   1.488   4.108  0.7299  0.4316  0.5622
   66MOL   C33025160   2.026   1.354   4.117  0.4616  0.5034  0.0105
   66MOL   C33125161   2.150   1.638   4.021  0.8135 -0.3034  0.6741
   66MOL   H33225162   2.342   1.713   4.080  0.3705  3.2218  0.4651
   66MOL   H33325163   2.170   1.849   4.275  1.6625  1.5261  0.9610
   66MOL   H33425164   2.295   1.730   4.294  0.9144  1.9490  0.3222
   66MOL   H33525165   2.171   1.541   4.279 -2.2001 -0.5922  0.9794
   66MOL   H33625166   2.050   1.651   4.349 -1.1404 -0.4262 -0.7104
   66MOL   H33725167   1.971   1.696   4.115  0.4361 -0.5481  0.1788
   66MOL   H33825168   1.879   1.488   4.185 -1.9720  1.1370 -2.0213
   66MOL   H33925169   1.899   1.486   4.014  1.6932 -0.5924 -0.0080
   66MOL   H34025170   2.087   1.333   4.029 -0.0514 -0.6698 -0.0743
   66MOL   H34125171   2.092   1.354   4.203  0.3323 -0.5294  0.1178
   66MOL   H34225172   2.110   1.670   3.924  1.1657 -1.9592 -0.0213
   66MOL   H34325173   2.220   1.555   4.014  1.2938  0.2693 -1.7392
   66MOL   C34425174   1.932   1.228   4.131 -0.0250 -0.2816  0.1093
   66MOL   C34525175   1.853   1.214   4.259 -0.0217 -0.5661  0.0072
   66MOL   C34625176   1.821   1.066   4.272 -0.2053  0.4168 -0.2067
   66MOL   C34725177   1.946   0.998   4.215  0.2409 -0.3954  0.2516
   66MOL   C34825178   1.910   0.856   4.163 -0.4106  0.5294 -0.3691
   66MOL   C34925179   2.037   0.774   4.145 -0.6402 -0.2149  0.0455
   66MOL   C35025180   2.002   1.092   4.105  0.3694  0.3373 -0.6637
   66MOL   H35125181   1.854   1.245   4.057  0.2317 -0.1049 -0.1203
   66MOL   H35225182   1.769   1.282   4.251  0.3448 -0.1729 -0.5075
   66MOL   H35325183   1.916   1.251   4.339 -0.8347  0.0857  0.3468
   66MOL   H35425184   1.810   1.023   4.372 -2.0863 -1.9357 -1.3666
   66MOL   H35525185   1.737   1.032   4.212  0.0176 -0.6340  0.0672
   66MOL   H35625186   2.023   0.989   4.290 -1.8879  0.9204  2.6767
   66MOL   H35725187   1.849   0.804   4.237  2.9892 -0.9995  1.4478
   66MOL   H35825188   1.865   0.854   4.063  0.1466 -0.7481 -0.5972
   66MOL   H35925189   2.088   0.780   4.241  0.1524  1.4785 -0.4635
   66MOL   H36025190   2.100   0.832   4.077 -2.7109  1.1231 -0.7896
   66MOL   H36125191   2.110   1.097   4.114  0.3822  0.4622 -0.8762
   66MOL   H36225192   1.976   1.054   4.007 -1.5263 -0.6363  0.1847
   66MOL   C36325193   2.020   0.628   4.101 -0.9945  0.7470  0.9604
   66MOL   C36425194   2.155   0.559   4.092  0.7766 -0.0347 -0.3347
   66MOL   C36525195   2.134   0.454   3.988 -0.1748  0.5219 -0.1290
   66MOL   C36625196   2.040   0.505   3.884 -0.8963 -0.1291 -0.5812
   66MOL   C36725197   2.113   0.563   3.759  0.0218 -0.4802 -0.1545
   66MOL   C36825198   2.016   0.582   3.642 -0.2702 -0.2564  0.4344
   66MOL   C36925199   1.956   0.617   3.961  0.5606  0.4745 -0.6389
   66MOL   H37025200   1.969   0.571   4.178  1.6051 -1.7649  0.9071
   66MOL   H37125201   2.229   0.634   4.066  1.2377 -0.4446 -0.2218
   66MOL   H37225202   2.201   0.525   4.186  2.4054  1.1938 -0.6725
   66MOL   H37325203   2.231   0.425   3.948 -1.4520 -1.2123 -2.0511
   66MOL   H37425204   2.093   0.366   4.039  1.8183 -0.0235  0.5984
   66MOL   H37525205   1.974   0.422   3.858 -1.4450 -0.1419  0.8080
   66MOL   H37625206   2.166   0.653   3.788  1.1948 -1.1269 -0.2651
   66MOL   H37725207   2.185   0.485   3.733 -0.4450 -1.9115  2.6398
   66MOL   H37825208   2.063   0.631   3.557 -0.1724 -1.3571 -0.1522
   66MOL   H37925209   1.945   0.661   3.669 -2.0634 -1.5321 -0.4148
   66MOL   H38025210   1.956   0.706   3.897 -0.9070  0.1933 -1.0542
   66MOL   H38125211   1.855   0.581   3.979  0.4475  1.2640  0.3459
   66MOL   H38225212   1.959   0.493   3.615  0.6143 -0.7512  0.2052
   67MOL     C125213   1.411   5.025   6.928 -0.1318 -0.1212 -0.5865
   67MOL     C225214   1.414   5.161   7.009 -0.2794  0.7973  0.1176
   67MOL     C325215   1.551   5.192   7.055  0.1117  0.0033  0.3283
   67MOL     C425216   1.642   5.118   6.957  0.3383 -0.5967 -0.1787
   67MOL     C525217   1.762   5.053   7.025 -0.5677  0.4425  0.0244
   67MOL     C625218   1.866   4.993   6.928 -0.1641 -0.3353  0.0298
   67MOL     C725219   1.561   5.007   6.880  0.1389 -0.3268 -0.7803
   67MOL     H825220   1.373   4.934   6.976  0.3227 -0.3573 -0.6733
   67MOL     H925221   1.336   5.138   7.081  2.3963 -0.3998  2.7583
   67MOL    H1025222   1.375   5.228   6.933 -0.5253 -1.7972 -2.1238
   67MOL    H1125223   1.575   5.298   7.065 -0.8560  0.3449 -0.8957
   67MOL    H1225224   1.552   5.154   7.158  0.1822  1.2065  0.7818
   67MOL    H1325225   1.676   5.193   6.886 -0.1552  0.0214  0.2271
   67MOL    H1425226   1.816   5.120   7.092 -0.5002  1.2253 -0.7917
   67MOL    H1525227   1.734   4.978   7.098 -1.1445 -1.1101 -1.7697
   67MOL    H1625228   1.818   4.916   6.866  0.0709 -0.4035 -0.0679
   67MOL    H1725229   1.900   5.070   6.859 -0.3220  1.4928  1.9387
   67MOL    H1825230   1.583   5.007   6.773  0.1979  2.6084 -0.8198
   67MOL    H1925231   1.589   4.908   6.916  1.6486  0.8873  1.5459
   67MOL    H2025232   1.337   5.038   6.849 -1.4421  0.4049  0.6914
   67MOL    C2125233   1.989   4.939   7.000 -0.5154 -0.0354  0.2586
   67MOL    C2225234   1.952   4.839   7.111  0.1704 -0.3163 -0.1001
   67MOL    C2325235   2.058   4.730   7.113 -0.5325 -0.0992 -0.1934
   67MOL    C2425236   2.108   4.722   6.966  0.0507 -1.2864 -0.8062
   67MOL    C2525237   2.018   4.638   6.872 -0.0647  0.2212 -0.8037
   67MOL    C2625238   2.092   4.587   6.752  0.3782 -0.0391 -0.1774
   67MOL    C2725239   2.105   4.874   6.924  0.3058 -0.5426 -0.2998
   67MOL    H2825240   2.048   5.016   7.051  4.0944 -2.5959 -0.9985
   67MOL    H2925241   1.939   4.896   7.204  0.2355 -1.2550  0.4906
   67MOL    H3025242   1.856   4.792   7.090  0.0321  0.0749 -0.3617
   67MOL    H3125243   2.133   4.755   7.189  0.0601 -0.2727 -0.7193
   67MOL    H3225244   2.015   4.634   7.142  0.8435 -0.8153 -0.4436
   67MOL    H3325245   2.207   4.677   6.970  1.1606  0.7574 -3.4363
   67MOL    H3425246   1.931   4.698   6.844  0.5878  0.3162 -2.7161
   67MOL    H3525247   1.980   4.556   6.933  0.8742  1.9968  2.2899
   67MOL    H3625248   2.193   4.556   6.782  0.7827  1.4946  0.0832
   67MOL    H3725249   2.125   4.670   6.690 -1.5787  0.6615 -0.3004
   67MOL    H3825250   2.197   4.912   6.966 -0.1356  0.2192 -0.0137
   67MOL    H3925251   2.110   4.898   6.817 -1.0237  3.1404  0.4035
   67MOL    C4025252   2.027   4.473   6.670 -0.3991  1.5543  0.5283
   67MOL    C4125253   1.900   4.511   6.588  0.7826 -0.3657  0.6492
   67MOL    C4225254   1.917   4.443   6.448  0.3267  0.0884  0.0511
   67MOL    C4325255   2.069   4.432   6.429 -0.3348  0.1465 -0.1435
   67MOL    C4425256   2.119   4.326   6.317 -0.2540 -0.4049 -0.7141
   67MOL    C4525257   2.090   4.358   6.165 -0.2224  0.5946  0.2225
   67MOL    C4625258   2.129   4.401   6.567  0.9151  0.0249 -0.7291
   67MOL    H4725259   1.997   4.395   6.740 -0.4582  3.2391  2.4316
   67MOL    H4825260   1.900   4.620   6.587 -1.0432 -0.3377 -0.8301
   67MOL    H4925261   1.810   4.474   6.637 -0.3316  2.2737  0.6677
   67MOL    H5025262   1.880   4.341   6.456  1.1231 -0.1996  0.1038
   67MOL    H5125263   1.870   4.504   6.372 -2.4280 -0.1905  1.4717
   67MOL    H5225264   2.098   4.532   6.396  0.5587  0.1076  0.5234
   67MOL    H5325265   2.227   4.312   6.323 -0.1452  0.6140 -0.1527
   67MOL    H5425266   2.085   4.228   6.350 -0.3148 -0.0444  0.2983
   67MOL    H5525267   2.138   4.453   6.141 -0.6010  0.5025 -0.9155
   67MOL    H5625268   1.984   4.360   6.143 -0.7696 -0.3137  2.6286
   67MOL    H5725269   2.131   4.296   6.597 -1.3612  0.1267 -0.1579
   67MOL    H5825270   2.228   4.446   6.573  0.8052  0.5494 -2.6638
   67MOL    C5925271   2.160   4.258   6.072  0.4847 -0.4370  0.2132
   67MOL    C6025272   2.101   4.124   6.090  0.0825 -0.8216  0.0812
   67MOL    C6125273   2.141   4.054   5.966  0.6392  0.5422  0.0947
   67MOL    C6225274   2.149   4.160   5.852  0.5187  0.1215  0.4702
   67MOL    C6325275   2.277   4.160   5.766  1.0058  0.8163 -0.1486
   67MOL    C6425276   2.285   4.039   5.665  0.3073 -0.2861 -0.6275
   67MOL    C6525277   2.130   4.287   5.921  0.1927 -0.0296 -0.2053
   67MOL    H6625278   2.264   4.256   6.105  0.0748 -2.0737  1.4689
   67MOL    H6725279   2.126   4.065   6.178  1.1259  1.9377  1.6845
   67MOL    H6825280   1.993   4.116   6.081  0.1287 -1.6180  0.2595
   67MOL    H6925281   2.241   4.022   5.996 -0.5617 -1.9104  1.6232
   67MOL    H7025282   2.090   3.959   5.949  1.0270  0.7018 -2.1871
   67MOL    H7125283   2.058   4.138   5.796  0.9103 -3.2137  1.0351
   67MOL    H7225284   2.358   4.157   5.839  1.2918  3.2178 -0.3325
   67MOL    H7325285   2.288   4.258   5.720 -0.5294  0.2364 -1.8272
   67MOL    H7425286   2.270   3.948   5.723 -0.7531  0.3904  0.1870
   67MOL    H7525287   2.207   4.049   5.590 -1.6834 -2.0041  1.1325
   67MOL    H7625288   2.182   4.374   5.881 -0.0003  0.0885 -0.2026
   67MOL    H7725289   2.023   4.308   5.916  0.0110 -1.2326 -1.6473
   67MOL    C7825290   2.419   4.035   5.590  0.9558 -0.3864  0.5150
   67MOL    C7925291   2.540   4.030   5.682  0.6073  0.9322  0.2754
   67MOL    C8025292   2.653   3.979   5.586  0.0990 -0.2612 -0.0208
   67MOL    C8125293   2.582   3.917   5.463  0.1185 -0.3348 -0.2352
   67MOL    C8225294   2.650   3.777   5.435  0.6156  0.1971  0.3883
   67MOL    C8325295   2.793   3.792   5.384  0.0798 -0.1457  0.2448
   67MOL    C8425296   2.428   3.911   5.507  0.2498 -0.3642  0.3657
   67MOL    H8525297   2.419   4.128   5.533 -1.8331  1.0905  2.7722
   67MOL    H8625298   2.557   4.133   5.714 -0.7220  1.4963 -0.7530
   67MOL    H8725299   2.531   3.963   5.767 -0.4616 -0.1048 -0.6308
   67MOL    H8825300   2.719   4.060   5.556  0.1152 -0.8851 -1.6996
   67MOL    H8925301   2.718   3.900   5.623 -1.6271 -1.7180  0.0214
   67MOL    H9025302   2.590   3.982   5.376 -2.1466 -0.1757 -0.3497
   67MOL    H9125303   2.590   3.732   5.356 -0.6138  0.8220  0.9656
   67MOL    H9225304   2.651   3.713   5.523  0.9990 -0.3421 -0.0050
   67MOL    H9325305   2.856   3.857   5.444 -1.5938  0.5163  1.3352
   67MOL    H9425306   2.785   3.844   5.288  2.6885  0.0483  0.1143
   67MOL    H9525307   2.396   3.815   5.549 -2.1687 -0.0572 -0.7161
   67MOL    H9625308   2.370   3.915   5.415  0.6131 -4.3499 -0.1232
   67MOL    C9725309   2.854   3.650   5.351  0.2652 -0.2118 -0.0289
   67MOL    C9825310   2.993   3.661   5.282  0.1601 -0.1647  0.0410
   67MOL    C9925311   3.013   3.524   5.211 -0.4632 -0.2536 -0.7525
   67MOL   C10025312   2.875   3.452   5.216 -0.0409 -0.1758  0.2867
   67MOL   C10125313   2.822   3.370   5.096  0.1247  0.3941  1.0794
   67MOL   C10225314   2.926   3.276   5.026 -0.2629  0.2701 -0.4391
   67MOL   C10325315   2.775   3.566   5.253  0.1171 -0.3357  0.4929
   67MOL   H10425316   2.872   3.609   5.450 -0.3117 -1.2206 -0.3369
   67MOL   H10525317   2.995   3.742   5.209  1.3329  0.8285  1.1663
   67MOL   H10625318   3.073   3.683   5.352  0.6417  0.1503 -0.6043
   67MOL   H10725319   3.038   3.535   5.106  0.4181 -0.8295 -0.6011
   67MOL   H10825320   3.087   3.465   5.266  1.1300  0.1081 -2.4970
   67MOL   H10925321   2.885   3.379   5.297  1.7888  1.1280  1.2970
   67MOL   H11025322   2.746   3.308   5.145  1.2417 -1.2654  0.7686
   67MOL   H11125323   2.767   3.440   5.033  0.0317 -0.8533 -0.2631
   67MOL   H11225324   3.005   3.337   4.981  0.5787 -1.0251 -0.7261
   67MOL   H11325325   2.982   3.219   5.100 -0.2392 -1.0039 -1.4318
   67MOL   H11425326   2.733   3.624   5.170  1.3176 -0.3448 -0.1358
   67MOL   H11525327   2.688   3.515   5.295 -0.0396 -1.7313 -1.4349
   67MOL   C11625328   2.867   3.187   4.918 -0.7896  0.0752 -0.4626
   67MOL   C11725329   2.852   3.268   4.786 -0.1089  0.1439 -0.5059
   67MOL   C11825330   2.961   3.224   4.696 -0.6149 -0.8699  0.2452
   67MOL   C11925331   2.986   3.073   4.733  0.0908  0.0015  0.0946
   67MOL   C12025332   3.133   3.018   4.696 -0.6983 -1.2732 -0.4695
   67MOL   C12125333   3.144   2.869   4.716 -0.2681 -0.3392 -0.5901
   67MOL   C12225334   2.961   3.068   4.885 -0.5027 -0.2914 -0.1860
   67MOL   H12325335   2.770   3.152   4.953  0.6880 -3.5360  0.3395
   67MOL   H12425336   2.854   3.377   4.798  2.5475 -0.2009  3.0571
   67MOL   H12525337   2.756   3.243   4.741  0.8954 -1.4720 -1.7955
   67MOL   H12625338   3.056   3.276   4.705 -1.6216  1.3196 -1.4227
   67MOL   H12725339   2.939   3.247   4.591  2.2425  0.6793 -0.0653
   67MOL   H12825340   2.911   3.013   4.682  0.2679 -0.4436  0.3457
   67MOL   H12925341   3.222   3.063   4.739 -0.8271 -1.0947 -0.3892
   67MOL   H13025342   3.145   3.046   4.592 -0.7811  1.1744  0.1523
   67MOL   H13125343   3.057   2.830   4.770 -0.5282  2.2989  0.9909
   67MOL   H13225344   3.231   2.865   4.781  0.9255  0.0121 -2.1486
   67MOL   H13325345   2.912   2.972   4.907 -0.5293  0.2384  2.2712
   67MOL   H13425346   3.058   3.077   4.933 -0.1633 -1.8805 -0.5493
   67MOL   C13525347   3.163   2.795   4.581  0.4963  0.9566 -0.6653
   67MOL   C13625348   3.173   2.639   4.582 -0.0176 -0.3329  0.1313
   67MOL   C13725349   3.139   2.603   4.432  0.3907  0.0894 -0.9117
   67MOL   C13825350   3.038   2.709   4.388  0.0429  1.4100 -0.0812
   67MOL   C13925351   3.079   2.742   4.242 -0.1819 -0.8262 -0.0714
   67MOL   C14025352   2.959   2.824   4.177 -0.6529 -0.4632 -0.1001
   67MOL   C14125353   3.054   2.827   4.482 -0.0145 -0.0121 -0.3667
   67MOL   H14225354   3.259   2.835   4.550  1.1432 -0.1642 -0.1640
   67MOL   H14325355   3.265   2.599   4.624  0.4869 -0.9914 -1.5645
   67MOL   H14425356   3.089   2.615   4.647  0.8279 -1.2126  0.9155
   67MOL   H14525357   3.233   2.611   4.376  1.4412  3.8569  1.2326
   67MOL   H14625358   3.103   2.500   4.425  3.5073 -1.1369  0.1620
   67MOL   H14725359   2.941   2.659   4.392 -1.0519  3.6784  3.8049
   67MOL   H14825360   3.087   2.650   4.186 -0.5930 -0.0017 -1.5120
   67MOL   H14925361   3.169   2.804   4.243  0.2891 -1.5067 -0.2790
   67MOL   H15025362   2.869   2.763   4.171 -0.1187 -1.1943 -0.8346
   67MOL   H15125363   2.953   2.905   4.249  1.7208  1.3847 -1.8687
   67MOL   H15225364   2.961   2.840   4.538  0.3655  0.8515  0.0817
   67MOL   H15325365   3.072   2.917   4.424 -2.0137 -0.4612 -1.7315
   67MOL   C15425366   3.003   2.876   4.039 -0.6542  0.2445 -0.8747
   67MOL   C15525367   3.085   3.001   4.058  0.2391 -0.3016  0.0667
   67MOL   C15625368   3.062   3.095   3.935  1.0417 -1.4311  0.8143
   67MOL   C15725369   2.942   3.036   3.858 -0.4388  0.2475  0.1551
   67MOL   C15825370   2.844   3.149   3.813  0.2063  1.4723  0.6345
   67MOL   C15925371   2.730   3.097   3.720 -0.1473 -0.5272  0.5122
   67MOL   C16025372   2.881   2.930   3.951 -0.0693  0.1514 -0.4633
   67MOL   H16125373   3.054   2.794   3.988  1.4137 -0.3152  1.9728
   67MOL   H16225374   3.054   3.068   4.139 -0.5109  1.1508 -1.4059
   67MOL   H16325375   3.189   2.970   4.068 -0.4168 -2.8685 -0.7854
   67MOL   H16425376   3.051   3.199   3.965 -0.3899 -1.0598 -0.9410
   67MOL   H16525377   3.147   3.095   3.866 -1.3111  1.5671 -2.2431
   67MOL   H16625378   2.985   2.990   3.770 -0.1223 -0.6803  0.7874
   67MOL   H16725379   2.902   3.218   3.752  0.2579  1.6759  0.9133
   67MOL   H16825380   2.794   3.201   3.895 -0.1136 -0.5481  1.7715
   67MOL   H16925381   2.778   3.041   3.640 -0.2698  1.6175 -1.1134
   67MOL   H17025382   2.676   3.018   3.771  0.6783 -1.3982  0.0433
   67MOL   H17125383   2.832   2.851   3.893 -0.3494  1.0383 -1.4512
   67MOL   H17225384   2.807   2.977   4.014  1.3531  1.1331  0.4931
   67MOL   C17325385   2.636   3.213   3.665  0.0254  0.3668  0.6210
   67MOL   C17425386   2.697   3.296   3.550 -0.0784  0.4153  0.0124
   67MOL   C17525387   2.585   3.328   3.456 -0.8500 -0.8116 -0.1959
   67MOL   C17625388   2.463   3.252   3.501 -1.7670 -0.2022  0.3009
   67MOL   C17725389   2.358   3.206   3.391 -0.0926  0.3105 -0.8579
   67MOL   C17825390   2.247   3.112   3.441  0.1458 -1.0977  0.6262
   67MOL   C17925391   2.511   3.149   3.608  0.5687 -0.1524  0.4269
   67MOL   H18025392   2.600   3.271   3.750 -0.0889  0.4098  0.5432
   67MOL   H18125393   2.777   3.250   3.491 -1.0002  0.0064 -0.9290
   67MOL   H18225394   2.742   3.386   3.593  0.9936 -0.9519  1.8160
   67MOL   H18325395   2.559   3.433   3.471 -2.0514 -0.9103 -1.4952
   67MOL   H18425396   2.615   3.307   3.353  1.1915  0.0357  0.2095
   67MOL   H18525397   2.417   3.324   3.568 -0.7972  1.4388 -0.7781
   67MOL   H18625398   2.423   3.147   3.325  0.7329  0.2232  0.0249
   67MOL   H18725399   2.311   3.285   3.333 -0.5080 -0.8045 -2.0823
   67MOL   H18825400   2.310   3.028   3.469  2.2222 -0.4249 -1.7943
   67MOL   H18925401   2.192   3.078   3.353  1.9338 -0.2817 -0.8405
   67MOL   H19025402   2.537   3.054   3.562 -1.0632 -0.9939  1.2122
   67MOL   H19125403   2.422   3.134   3.668  0.1567  1.1643  0.1655
   67MOL   C19225404   2.139   3.173   3.537  0.0778 -0.0499 -0.0026
   67MOL   C19325405   2.047   3.066   3.583  0.2544  0.2023  0.6359
   67MOL   C19425406   1.912   3.096   3.520 -0.5383  0.4345 -0.1496
   67MOL   C19525407   1.911   3.251   3.506  0.4115 -0.3267  0.4460
   67MOL   C19625408   1.854   3.319   3.633  0.3940 -0.1597  0.1590
   67MOL   C19725409   1.805   3.461   3.613 -0.5742 -0.4041 -0.2771
   67MOL   C19825410   2.056   3.282   3.470  0.0452  0.5707 -0.2492
   67MOL   H19925411   2.197   3.216   3.619  1.0165  1.9105 -1.6495
   67MOL   H20025412   2.080   2.964   3.565 -1.7607 -0.1240 -1.4929
   67MOL   H20125413   2.044   3.084   3.691  2.3808 -0.6625  0.8546
   67MOL   H20225414   1.828   3.062   3.580 -0.4056 -1.1430 -0.8438
   67MOL   H20325415   1.896   3.044   3.425 -0.2838 -0.4680  0.2966
   67MOL   H20425416   1.845   3.288   3.427 -0.3898  0.7566  1.6060
   67MOL   H20525417   1.934   3.330   3.706 -0.9766 -1.0061  1.8323
   67MOL   H20625418   1.789   3.247   3.683 -0.3445 -0.2086 -0.8433
   67MOL   H20725419   1.749   3.469   3.519 -1.7227 -0.7448  0.3652
   67MOL   H20825420   1.899   3.506   3.581 -1.0252  0.6647 -0.1456
   67MOL   H20925421   2.092   3.384   3.485  0.1343  0.4126  0.6442
   67MOL   H21025422   2.082   3.273   3.365  0.2516  0.6760 -0.2088
   67MOL   C21125423   1.752   3.542   3.734  0.1376  0.9088  0.1145
   67MOL   C21225424   1.684   3.674   3.678 -0.2948  0.0386  0.7798
   67MOL   C21325425   1.798   3.778   3.711 -0.3116 -0.4387 -0.6483
   67MOL   C21425426   1.838   3.736   3.857 -0.5391  0.2670  0.0892
   67MOL   C21525427   1.966   3.807   3.898 -0.5762 -0.2472  0.3852
   67MOL   C21625428   1.930   3.959   3.906  0.0758  0.0501 -0.2786
   67MOL   C21725429   1.862   3.586   3.838 -0.0826  0.8837  0.3037
   67MOL   H21825430   1.680   3.490   3.797 -0.1947  1.8253  0.4936
   67MOL   H21925431   1.676   3.668   3.569  0.9383  0.8621  0.6291
   67MOL   H22025432   1.587   3.703   3.718 -0.6206  0.4591 -0.2924
   67MOL   H22125433   1.887   3.762   3.649  1.2066  1.1779  1.0475
   67MOL   H22225434   1.747   3.873   3.696 -1.0147 -0.5512  0.9692
   67MOL   H22325435   1.758   3.751   3.928 -1.5466  0.9610 -1.1632
   67MOL   H22425436   2.046   3.781   3.829 -0.3165  0.6052  0.3617
   67MOL   H22525437   1.991   3.782   4.001 -1.4692  0.7051  0.8441
   67MOL   H22625438   1.824   3.961   3.927  0.2152  2.0265  0.3091
   67MOL   H22725439   1.975   4.011   3.991  0.7324 -0.4032 -0.3435
   67MOL   H22825440   1.842   3.534   3.931  1.6759 -0.3942 -0.0029
   67MOL   H22925441   1.962   3.556   3.806  1.1611  2.6718  2.3393
   67MOL   C23025442   1.971   4.041   3.778 -0.4286 -0.0872 -0.1078
   67MOL   C23125443   2.107   4.118   3.791 -0.1140  0.3764  0.7665
   67MOL   C23225444   2.102   4.226   3.681  0.0388 -0.7382  0.6851
   67MOL   C23325445   1.959   4.281   3.698 -0.2467 -0.1270 -0.6461
   67MOL   C23425446   1.898   4.368   3.588 -0.2265  0.2837  0.5987
   67MOL   C23525447   1.985   4.481   3.526  0.0713 -0.0309 -0.0813
   67MOL   C23625448   1.877   4.158   3.737 -0.1893  0.5138 -0.1044
   67MOL   H23725449   1.979   3.973   3.693  0.7641 -0.6266  0.4169
   67MOL   H23825450   2.111   4.168   3.888  0.4048  0.9979  0.4259
   67MOL   H23925451   2.190   4.049   3.774 -0.7872 -0.5087  1.0051
   67MOL   H24025452   2.114   4.178   3.584 -0.1717  0.7910 -0.1098
   67MOL   H24125453   2.176   4.306   3.678 -1.1325  0.3997  1.5084
   67MOL   H24225454   1.973   4.344   3.786 -1.0647  2.7031 -2.4752
   67MOL   H24325455   1.809   4.408   3.635 -0.1226  1.3120 -0.0462
   67MOL   H24425456   1.882   4.302   3.502  0.9593  0.2582  0.3797
   67MOL   H24525457   2.023   4.549   3.603 -0.9387  0.0442  0.3591
   67MOL   H24625458   2.068   4.446   3.465 -1.5326  0.2685 -2.4571
   67MOL   H24725459   1.815   4.125   3.653  1.6020 -2.5171 -0.2865
   67MOL   H24825460   1.808   4.186   3.817 -0.0646 -3.4204  1.4971
   67MOL   C24925461   1.905   4.576   3.433  1.0697 -0.1517 -0.7231
   67MOL   C25025462   1.987   4.693   3.374 -0.3882  0.3576 -0.2808
   67MOL   C25125463   1.917   4.740   3.255  0.7847 -0.1431  0.2493
   67MOL   C25225464   1.860   4.617   3.184  0.5136  0.0105  0.7506
   67MOL   C25325465   1.727   4.646   3.101  0.0527 -0.0560  0.4025
   67MOL   C25425466   1.762   4.704   2.965 -0.1957 -0.1837 -0.1345
   67MOL   C25525467   1.859   4.511   3.296 -0.5338  0.1975  0.3499
   67MOL   H25625468   1.825   4.632   3.481  1.1730 -0.2576 -0.4248
   67MOL   H25725469   1.993   4.778   3.443 -2.2622  2.2216 -2.3245
   67MOL   H25825470   2.086   4.663   3.338 -0.8654  0.0791 -1.3651
   67MOL   H25925471   1.976   4.803   3.189  0.8913 -0.2397  0.2506
   67MOL   H26025472   1.833   4.799   3.291  0.2848 -0.9045  0.3544
   67MOL   H26125473   1.940   4.586   3.117  0.3659 -0.3676  0.7515
   67MOL   H26225474   1.657   4.702   3.164  0.5856  0.0498  0.9024
   67MOL   H26325475   1.670   4.554   3.086 -1.1502  0.5598  1.0939
   67MOL   H26425476   1.824   4.636   2.907 -1.0649 -0.2190 -1.0297
   67MOL   H26525477   1.833   4.785   2.983 -2.0826  1.3700  0.4327
   67MOL   H26625478   1.920   4.424   3.269  0.7483  1.1262  0.2415
   67MOL   H26725479   1.760   4.469   3.315 -0.3499 -1.4053 -2.0083
   67MOL   C26825480   1.640   4.734   2.882 -0.1046 -0.3025  0.9911
   67MOL   C26925481   1.664   4.769   2.734  0.1538 -0.2192 -0.7651
   67MOL   C27025482   1.708   4.916   2.739 -0.3769 -0.3702 -0.1454
   67MOL   C27125483   1.628   4.986   2.854  0.2240 -0.1064  0.2661
   67MOL   C27225484   1.721   5.072   2.952 -0.3669 -0.4173  0.5522
   67MOL   C27325485   1.651   5.204   2.994 -0.3488 -0.2028  0.3344
   67MOL   C27425486   1.569   4.863   2.924  0.5247 -0.2363 -0.0467
   67MOL   H27525487   1.576   4.645   2.878 -0.6676  0.1597 -1.1483
   67MOL   H27625488   1.733   4.695   2.694  0.6546 -0.0325 -0.2566
   67MOL   H27725489   1.577   4.754   2.669 -1.0143 -1.4431  1.0183
   67MOL   H27825490   1.815   4.919   2.758 -0.8562  0.6324  2.6042
   67MOL   H27925491   1.695   4.972   2.646  0.2052  1.1790  0.6951
   67MOL   H28025492   1.533   5.028   2.820  0.1457 -0.6491 -0.1999
   67MOL   H28125493   1.819   5.093   2.911 -1.4502  0.9326 -1.4618
   67MOL   H28225494   1.731   5.004   3.037 -1.4178 -2.8990 -1.2573
   67MOL   H28325495   1.696   5.279   2.930  0.6086 -0.1418  1.0633
   67MOL   H28425496   1.546   5.199   2.966 -0.3096  0.4914  0.0532
   67MOL   H28525497   1.548   4.875   3.030 -0.0596  0.2162 -0.2036
   67MOL   H28625498   1.470   4.839   2.883  0.0886  1.8522 -0.2999
   67MOL   C28725499   1.671   5.256   3.130  0.3218  0.3628  0.1902
   67MOL   C28825500   1.619   5.396   3.145 -0.1448  0.3748  0.4949
   67MOL   C28925501   1.548   5.400   3.282  0.6583  0.8364  0.1991
   67MOL   C29025502   1.579   5.263   3.348 -0.0146 -0.0220 -0.2085
   67MOL   C29125503   1.468   5.204   3.443 -0.0188 -0.3265 -0.3249
   67MOL   C29225504   1.462   5.286   3.572  0.2955  0.2119  0.7489
   67MOL   C29325505   1.602   5.168   3.231 -0.1324  0.0225  0.4817
   67MOL   H29425506   1.778   5.252   3.149  0.6792  2.8972 -1.1704
   67MOL   H29525507   1.696   5.472   3.153  0.0229  0.4183 -1.3926
   67MOL   H29625508   1.546   5.432   3.073 -1.2470 -0.0141  1.3956
   67MOL   H29725509   1.443   5.427   3.268  1.0745  1.7811 -1.3075
   67MOL   H29825510   1.586   5.486   3.338  2.2665  1.3250 -1.5715
   67MOL   H29925511   1.673   5.282   3.399 -0.4429  1.7344 -0.0693
   67MOL   H30025512   1.489   5.098   3.459 -1.4711 -0.6277 -0.3204
   67MOL   H30125513   1.376   5.218   3.385 -1.0395 -0.3001  1.2723
   67MOL   H30225514   1.459   5.392   3.547  2.7173  0.5423  1.7396
   67MOL   H30325515   1.554   5.261   3.626  0.3299 -1.1208  0.0958
   67MOL   H30425516   1.504   5.137   3.195  0.5790  1.0850 -2.5173
   67MOL   H30525517   1.661   5.081   3.259  0.9094 -0.5956 -3.3931
   67MOL   C30625518   1.347   5.257   3.667  0.7493  0.1326 -0.6360
   67MOL   C30725519   1.349   5.344   3.795  0.2732 -0.9207 -0.4232
   67MOL   C30825520   1.220   5.427   3.796 -0.3417  0.2610  0.2847
   67MOL   C30925521   1.126   5.345   3.709 -0.5267 -0.2377 -0.2789
   67MOL   C31025522   1.001   5.424   3.665 -0.1478  0.9176  0.0631
   67MOL   C31125523   0.886   5.340   3.611 -0.1352 -0.2710  0.1324
   67MOL   C31225524   1.205   5.272   3.609 -0.3021  0.2054 -0.9001
   67MOL   H31325525   1.338   5.153   3.697 -1.7564 -0.2012 -2.3794
   67MOL   H31425526   1.362   5.280   3.882 -0.4289  0.8105  0.9802
   67MOL   H31525527   1.436   5.410   3.791 -0.1718 -0.2982  0.0967
   67MOL   H31625528   1.171   5.454   3.890 -1.1280  1.8524 -0.5652
   67MOL   H31725529   1.241   5.523   3.748  3.7089 -0.0505  1.2277
   67MOL   H31825530   1.081   5.267   3.771  0.9905 -0.8945  0.0151
   67MOL   H31925531   0.976   5.495   3.743 -1.8235  0.4904 -0.0534
   67MOL   H32025532   1.038   5.487   3.584  0.3886  0.0448 -0.3869
   67MOL   H32125533   0.859   5.252   3.668 -2.4884  0.9941  1.0354
   67MOL   H32225534   0.935   5.299   3.523 -1.6254  1.1269 -1.4009
   67MOL   H32325535   1.213   5.327   3.515  2.1065 -1.3349 -1.6524
   67MOL   H32425536   1.169   5.172   3.584  0.5588  0.2294 -2.3256
   67MOL   C32525537   0.764   5.406   3.573  0.0414  0.9560  0.1155
   67MOL   C32625538   0.685   5.348   3.457  0.0614  0.5788 -0.1019
   67MOL   C32725539   0.546   5.418   3.473 -0.3800  0.4946 -0.0895
   67MOL   C32825540   0.523   5.412   3.624  0.3294  0.1222  0.0049
   67MOL   C32925541   0.428   5.521   3.679 -0.4593  0.4115 -0.6764
   67MOL   C33025542   0.281   5.492   3.655  0.1961  0.2656  0.4201
   67MOL   C33125543   0.669   5.432   3.683  0.6328 -0.7355 -0.6899
   67MOL   H33225544   0.808   5.498   3.534  1.4078  0.5536  0.6447
   67MOL   H33325545   0.673   5.240   3.464 -0.1024  0.5607 -0.6014
   67MOL   H33425546   0.736   5.366   3.362  1.2912  1.6112  0.7336
   67MOL   H33525547   0.536   5.518   3.432 -1.0598  1.3394  2.0716
   67MOL   H33625548   0.476   5.355   3.419 -2.4707  3.1024 -0.4663
   67MOL   H33725549   0.490   5.314   3.656  0.1197  0.1296 -0.1841
   67MOL   H33825550   0.450   5.519   3.786 -0.5230 -1.3481 -0.6744
   67MOL   H33925551   0.468   5.611   3.633 -2.5527  2.4754  1.4030
   67MOL   H34025552   0.258   5.480   3.550  1.1530  0.4027  0.1891
   67MOL   H34125553   0.254   5.394   3.694  1.0343  0.3914  1.3505
   67MOL   H34225554   0.685   5.367   3.770  0.6059 -0.4570 -0.4762
   67MOL   H34325555   0.684   5.535   3.714 -0.0136 -0.6829 -0.5401
   67MOL   C34425556   0.183   5.607   3.700 -0.1053  0.0587 -0.4939
   67MOL   C34525557   0.195   5.631   3.851 -0.5733  0.4066 -0.6185
   67MOL   C34625558   0.073   5.709   3.884  0.7547  0.1793  0.5457
   67MOL   C34725559   7.611   5.675   3.776 -0.2184  0.4639  0.0704
   67MOL   C34825560   7.573   5.801   3.691 -0.8679  0.6146 -0.4444
   67MOL   C34925561   7.431   5.786   3.618  0.6496 -0.1057  0.1312
   67MOL   C35025562   0.027   5.571   3.690 -0.3505  0.0650  0.1961
   67MOL   H35125563   0.208   5.698   3.646  0.5908  0.5757  0.6854
   67MOL   H35225564   0.289   5.677   3.881 -0.7110 -0.0675  0.5519
   67MOL   H35325565   0.195   5.537   3.906  0.7626  2.1641  2.5276
   67MOL   H35425566   0.032   5.688   3.982  1.1316 -0.1297  0.6404
   67MOL   H35525567   0.095   5.815   3.895 -0.3349  0.6155 -1.3469
   67MOL   H35625568   7.532   5.634   3.839  0.6733  0.1227  0.9782
   67MOL   H35725569   7.556   5.878   3.766  1.5698 -0.6942  1.5441
   67MOL   H35825570   0.010   5.840   3.634 -0.2038  1.3103  0.9658
   67MOL   H35925571   7.377   5.726   3.691  3.7040  2.2638  4.6062
   67MOL   H36025572   7.442   5.734   3.522 -0.9552 -1.4822  0.6646
   67MOL   H36125573   0.011   5.466   3.714 -0.7966  0.4287  1.5382
   67MOL   H36225574   7.636   5.570   3.589  0.4816 -0.3139 -0.1251
   67MOL   C36325575   7.363   5.924   3.589 -0.3551 -0.6840 -0.1790
   67MOL   C36425576   7.226   5.917   3.536  0.4848 -0.2731 -0.0281
   67MOL   C36525577   7.193   6.050   3.460 -0.7775 -0.6468  0.1631
   67MOL   C36625578   7.321   6.131   3.481  0.8189 -0.3191 -0.2583
   67MOL   C36725579   7.340   6.220   3.357 -0.2463  0.2222  0.0185
   67MOL   C36825580   7.463   6.305   3.371  0.7160 -0.8562  0.2797
   67MOL   C36925581   7.431   6.025   3.498  0.2308  0.6057  0.2677
   67MOL   H37025582   7.356   5.966   3.689 -2.6421 -0.3328 -0.4530
   67MOL   H37125583   7.210   5.838   3.462  0.2890  1.4981 -1.9267
   67MOL   H37225584   7.151   5.903   3.614 -0.0283  1.0091 -0.2763
   67MOL   H37325585   7.161   6.024   3.359  0.7952 -2.2135  0.0525
   67MOL   H37425586   7.110   6.098   3.512  1.9143  2.8904  1.3923
   67MOL   H37525587   7.319   6.197   3.568 -1.8963 -0.5923 -0.0774
   67MOL   H37625588   7.346   6.161   3.266 -1.5265  0.1165 -0.0049
   67MOL   H37725589   7.250   6.276   3.334  0.7121  1.5822 -0.4395
   67MOL   H37825590   7.561   6.261   3.389  1.0806 -0.4767 -0.7822
   67MOL   H37925591   7.447   6.387   3.441 -1.4672  0.5103 -1.7444
   67MOL   H38025592   7.451   5.977   3.402  0.4729  1.7514 -0.2546
   67MOL   H38125593   7.515   6.064   3.556  0.0764  0.7929  0.3675
   67MOL   H38225594   7.467   6.369   3.284 -0.6722 -1.3382 -0.1582
   68MOL     C125595   2.778   1.999   3.651  0.0925 -0.1775  0.4295
   68MOL     C225596   2.874   1.884   3.653 -0.3643 -0.1173  0.0550
   68MOL     C325597   2.889   1.848   3.802 -0.4641  0.9227 -0.3209
   68MOL     C425598   2.762   1.886   3.865  0.1299  0.1119 -0.8390
   68MOL     C525599   2.760   1.899   4.015  0.0484  0.0810  0.3144
   68MOL     C625600   2.617   1.866   4.066 -0.3262  0.7718 -0.1080
   68MOL     C725601   2.720   2.014   3.794 -0.5113 -0.3060 -0.5019
   68MOL     H825602   2.827   2.089   3.615  0.1789 -0.4326 -0.0973
   68MOL     H925603   2.968   1.904   3.601  1.3088 -2.0598  2.1874
   68MOL    H1025604   2.831   1.794   3.608  0.1643 -1.6287  2.4619
   68MOL    H1125605   2.912   1.742   3.817  1.9838  1.2932 -1.2285
   68MOL    H1225606   2.970   1.903   3.849  0.1127  0.4867 -0.7854
   68MOL    H1325607   2.694   1.808   3.832 -1.2940 -0.1393  2.4699
   68MOL    H1425608   2.828   1.827   4.061  1.2196 -1.3970 -3.5080
   68MOL    H1525609   2.788   1.998   4.051 -0.1585  0.2828 -0.0840
   68MOL    H1625610   2.539   1.927   4.021 -1.6018  1.0241  2.3637
   68MOL    H1725611   2.596   1.765   4.032 -1.2434  1.9117 -3.0969
   68MOL    H1825612   2.612   2.023   3.798 -0.5335 -0.0869 -1.3441
   68MOL    H1925613   2.761   2.104   3.841 -0.7127 -1.5454  2.0826
   68MOL    H2025614   2.695   1.979   3.583 -0.8753 -0.7811  1.7506
   68MOL    C2125615   2.597   1.858   4.217 -0.2553  0.2242 -0.2412
   68MOL    C2225616   2.677   1.752   4.292 -0.1693 -0.0518 -0.2736
   68MOL    C2325617   2.771   1.829   4.382  0.2664  0.4153 -0.0068
   68MOL    C2425618   2.710   1.967   4.412  0.0433  0.4130 -0.1711
   68MOL    C2525619   2.802   2.079   4.455  0.6287 -0.2546  0.0697
   68MOL    C2625620   2.847   2.071   4.605 -0.5252  0.5614  0.1166
   68MOL    C2725621   2.621   1.991   4.287  0.2786  0.5875 -0.1827
   68MOL    H2825622   2.493   1.832   4.232 -0.6143  2.2066  0.7941
   68MOL    H2925623   2.606   1.694   4.351 -1.3878  0.4535 -1.2289
   68MOL    H3025624   2.726   1.668   4.243 -2.7922 -1.0865 -1.2192
   68MOL    H3125625   2.797   1.785   4.478  2.1549 -0.1862 -0.7852
   68MOL    H3225626   2.865   1.849   4.331  0.1483 -0.6063 -0.6318
   68MOL    H3325627   2.638   1.956   4.493 -0.0188 -2.8340 -0.5683
   68MOL    H3425628   2.747   2.173   4.463  1.2896  0.0967  0.5096
   68MOL    H3525629   2.886   2.079   4.386  1.6082 -0.1820  1.2455
   68MOL    H3625630   2.838   1.973   4.652 -3.4132  0.8160  0.1481
   68MOL    H3725631   2.767   2.118   4.662 -1.8585 -1.1095 -0.3486
   68MOL    H3825632   2.523   2.022   4.322  0.9251 -0.1846  2.4850
   68MOL    H3925633   2.663   2.070   4.224  1.6014  0.4874  0.5370
   68MOL    C4025634   2.982   2.151   4.626  0.3704  0.6146  0.3300
   68MOL    C4125635   3.009   2.180   4.773  0.2200  0.2393  0.0037
   68MOL    C4225636   3.149   2.237   4.766  0.2089 -0.5277  0.3778
   68MOL    C4325637   3.222   2.164   4.652  0.2265  0.7428  0.3576
   68MOL    C4425638   3.296   2.264   4.567  0.7984 -0.0341  0.2660
   68MOL    C4525639   3.426   2.212   4.501  0.3934 -0.6991  0.1131
   68MOL    C4625640   3.110   2.086   4.577  0.1107  0.1842  0.1971
   68MOL    H4725641   2.977   2.247   4.575 -0.8571  0.2918 -0.1688
   68MOL    H4825642   3.004   2.078   4.810 -1.6091  0.8249  1.5168
   68MOL    H4925643   2.939   2.242   4.830  1.6499  0.2993  1.7572
   68MOL    H5025644   3.157   2.345   4.759 -1.0035 -0.5461 -1.5905
   68MOL    H5125645   3.203   2.223   4.860  0.6932  1.2309  0.3742
   68MOL    H5225646   3.284   2.091   4.705  0.0818  1.1957  1.1601
   68MOL    H5325647   3.231   2.311   4.493 -1.5278 -2.7914  0.5213
   68MOL    H5425648   3.324   2.347   4.633  0.0882 -1.0401  1.8726
   68MOL    H5525649   3.415   2.137   4.423 -1.7399 -0.1788 -0.1119
   68MOL    H5625650   3.477   2.165   4.586  1.3622 -0.9081 -0.5751
   68MOL    H5725651   3.106   2.078   4.468 -0.2865 -1.2202  0.3059
   68MOL    H5825652   3.123   1.984   4.611 -0.8976  0.9427  3.0391
   68MOL    C5925653   3.531   2.323   4.457 -0.1659 -0.1294 -0.3674
   68MOL    C6025654   3.674   2.278   4.398 -0.0415  0.8226 -0.6190
   68MOL    C6125655   3.728   2.393   4.309  0.1047  0.5245 -0.4799
   68MOL    C6225656   3.597   2.444   4.242  0.0043 -0.9379  0.1724
   68MOL    C6325657   3.608   2.585   4.192  0.0905 -0.2879  0.4839
   68MOL    C6425658   3.498   2.635   4.095  0.0603  0.1729  0.3789
   68MOL    C6525659   3.482   2.421   4.347 -0.2473 -0.2286 -0.4479
   68MOL    H6625660   3.548   2.382   4.547  0.1226 -0.9687  0.1242
   68MOL    H6725661   3.743   2.242   4.475 -1.7450 -1.2402 -0.0004
   68MOL    H6825662   3.667   2.191   4.333  0.0203  0.4105 -0.0792
   68MOL    H6925663   3.781   2.463   4.374 -0.6500 -1.4837  2.4241
   68MOL    H7025664   3.796   2.362   4.230  0.7094  0.6733 -0.0209
   68MOL    H7125665   3.587   2.371   4.162 -0.5654 -0.1457 -0.4879
   68MOL    H7225666   3.700   2.589   4.133 -0.2539 -0.5478 -0.0691
   68MOL    H7325667   3.623   2.663   4.267 -0.6324  1.3107 -0.9803
   68MOL    H7425668   3.464   2.550   4.036  1.7941  0.4238 -1.0390
   68MOL    H7525669   3.418   2.654   4.166 -0.7680 -0.4336 -0.3787
   68MOL    H7625670   3.447   2.515   4.390  1.9778  0.8204 -0.8836
   68MOL    H7725671   3.395   2.376   4.299 -0.3345  0.9895 -1.4633
   68MOL    C7825672   3.530   2.749   4.001  0.1028 -0.4105  0.1234
   68MOL    C7925673   3.415   2.783   3.901  0.1957 -0.0401  0.0956
   68MOL    C8025674   3.429   2.937   3.868 -0.4345  0.5922 -0.7665
   68MOL    C8125675   3.550   2.989   3.952 -0.4932  1.0563 -0.0879
   68MOL    C8225676   3.537   3.129   4.029 -0.2568 -0.3362 -0.0749
   68MOL    C8325677   3.523   3.252   3.928  0.2389 -0.0132 -0.2772
   68MOL    C8425678   3.570   2.882   4.062 -0.0506 -0.3484  0.4108
   68MOL    H8525679   3.610   2.720   3.932  1.2967  0.4141  1.1305
   68MOL    H8625680   3.424   2.713   3.818  2.5518 -1.1154  1.1864
   68MOL    H8725681   3.316   2.765   3.944 -0.6953  0.4371 -1.7060
   68MOL    H8825682   3.441   2.955   3.761 -1.9151  3.9008 -0.4163
   68MOL    H8925683   3.339   2.988   3.901 -0.7819  0.0317 -0.8480
   68MOL    H9025684   3.630   2.994   3.878 -1.4782 -0.8040 -1.3243
   68MOL    H9125685   3.633   3.144   4.079 -1.8395 -0.7815  3.2706
   68MOL    H9225686   3.456   3.130   4.102 -1.1971 -0.5501 -1.1130
   68MOL    H9325687   3.435   3.250   3.863  1.1907 -1.0967 -1.5492
   68MOL    H9425688   3.604   3.261   3.856  0.9833 -0.6494  0.4769
   68MOL    H9525689   3.511   2.899   4.152  0.5393  0.0858  0.7187
   68MOL    H9625690   3.670   2.857   4.095  1.0927  1.9676 -1.1385
   68MOL    C9725691   3.509   3.377   4.020  0.2207  0.3368 -0.7953
   68MOL    C9825692   3.473   3.508   3.954  0.1165 -0.4471 -0.3411
   68MOL    C9925693   3.510   3.611   4.063 -0.3316 -0.1872 -0.3539
   68MOL   C10025694   3.607   3.547   4.153 -0.8627 -0.6051 -0.5097
   68MOL   C10125695   3.736   3.639   4.175 -0.2816  0.4679 -0.1808
   68MOL   C10225696   3.810   3.590   4.303  0.5817  0.7228  0.6083
   68MOL   C10325697   3.641   3.414   4.093  1.0489  0.7786 -0.2986
   68MOL   H10425698   3.428   3.354   4.089 -0.5041 -0.6236 -1.9429
   68MOL   H10525699   3.524   3.527   3.860  0.6503  0.3828  0.1123
   68MOL   H10625700   3.365   3.511   3.938  0.2510  0.6274 -1.0817
   68MOL   H10725701   3.536   3.698   4.002 -1.7593  1.9991  2.0603
   68MOL   H10825702   3.426   3.644   4.124 -0.0052  0.9069 -0.4845
   68MOL   H10925703   3.566   3.526   4.252  1.1918 -3.4528 -0.2115
   68MOL   H11025704   3.802   3.639   4.089  0.9779 -1.2330  0.7386
   68MOL   H11125705   3.701   3.740   4.196 -1.5426  0.3648 -1.7603
   68MOL   H11225706   3.743   3.586   4.389 -0.0724 -0.5539  0.0420
   68MOL   H11325707   3.849   3.490   4.288 -0.4511  0.2919  0.7433
   68MOL   H11425708   3.727   3.430   4.028  1.6249 -1.1031 -0.0477
   68MOL   H11525709   3.659   3.337   4.168 -0.6892  0.7825  0.1517
   68MOL   C11625710   3.935   3.673   4.338 -0.0729 -0.7674  0.7598
   68MOL   C11725711   4.009   3.642   4.467 -0.2373 -0.0280  0.0839
   68MOL   C11825712   4.150   3.682   4.448 -0.7360  0.3397 -0.5594
   68MOL   C11925713   4.164   3.725   4.302 -0.3511 -0.4412  0.1012
   68MOL   C12025714   4.296   3.700   4.229 -0.4731  0.3594  0.4070
   68MOL   C12125715   4.335   3.801   4.120  0.3272  0.2132 -0.5798
   68MOL   C12225716   4.042   3.674   4.231  0.1419  0.6924  0.3666
   68MOL   H12325717   3.889   3.771   4.349  2.4306  0.3401  1.8121
   68MOL   H12425718   4.012   3.536   4.489 -3.4062 -0.1972 -0.1703
   68MOL   H12525719   3.967   3.693   4.554  1.3747 -0.6586  1.2714
   68MOL   H12625720   4.192   3.583   4.467 -2.2926  0.0331  1.4523
   68MOL   H12725721   4.195   3.752   4.518  0.7052 -1.1399  0.0388
   68MOL   H12825722   4.163   3.834   4.314 -0.3923 -0.4426  0.1177
   68MOL   H12925723   4.294   3.603   4.181 -1.5086 -0.0358  1.2330
   68MOL   H13025724   4.378   3.685   4.300 -0.2187  0.2292  0.0836
   68MOL   H13125725   4.316   3.907   4.136  2.4062  0.5276 -0.0590
   68MOL   H13225726   4.259   3.790   4.043  0.1002 -0.8991 -0.2087
   68MOL   H13325727   4.008   3.717   4.137  0.1309  2.3210  1.1051
   68MOL   H13425728   4.058   3.571   4.199  1.0190  0.7793  0.4977
   68MOL   C13525729   4.464   3.766   4.044  0.3273  0.0151 -0.7235
   68MOL   C13625730   4.471   3.823   3.905 -0.2331 -0.6180 -0.6321
   68MOL   C13725731   4.623   3.813   3.877  0.7725  0.1479 -0.0318
   68MOL   C13825732   4.695   3.817   4.015 -0.1227  0.3945  0.1177
   68MOL   C13925733   4.783   3.692   4.040  0.0866  0.6098  0.0504
   68MOL   C14025734   4.916   3.698   3.954 -0.4401 -0.5317  0.8690
   68MOL   C14125735   4.584   3.813   4.117 -0.7117 -0.1880  0.0924
   68MOL   H14225736   4.467   3.657   4.051 -1.9348 -0.1547 -1.6961
   68MOL   H14325737   4.417   3.769   3.827  0.2492  0.8940 -2.0361
   68MOL   H14425738   4.442   3.927   3.912 -0.2440 -0.5552 -1.5405
   68MOL   H14525739   4.638   3.716   3.829 -0.4741  1.6803 -3.6362
   68MOL   H14625740   4.666   3.889   3.813  1.2003 -2.2430 -2.6742
   68MOL   H14725741   4.755   3.907   4.029 -0.3310  0.3856  1.0937
   68MOL   H14825742   4.729   3.600   4.018  1.5938 -0.4208  0.5984
   68MOL   H14925743   4.802   3.684   4.147  1.1506  1.7203 -0.0465
   68MOL   H15025744   4.888   3.700   3.848 -0.2840  1.3425  0.8509
   68MOL   H15125745   4.968   3.789   3.982  1.5351 -0.9773 -1.1992
   68MOL   H15225746   4.569   3.908   4.168  1.5793  0.5599 -0.5545
   68MOL   H15325747   4.601   3.746   4.202 -1.6692  1.0951  1.3294
   68MOL   C15425748   5.016   3.588   3.974 -0.1442  0.3690 -0.8901
   68MOL   C15525749   5.146   3.603   3.900  0.8084  0.2698 -0.0823
   68MOL   C15625750   5.206   3.466   3.884 -0.5317 -0.6395 -0.1322
   68MOL   C15725751   5.090   3.367   3.919  0.9177  0.2593  0.2139
   68MOL   C15825752   5.069   3.258   3.823  0.1236 -0.1200 -0.8599
   68MOL   C15925753   5.165   3.136   3.850  1.4894 -0.1903 -0.1332
   68MOL   C16025754   4.965   3.456   3.925 -0.2501 -0.1853  0.3908
   68MOL   H16125755   5.035   3.570   4.079 -3.2580 -2.3809 -0.7326
   68MOL   H16225756   5.128   3.644   3.801 -0.0516  1.2672  0.4705
   68MOL   H16325757   5.224   3.658   3.953  0.1474  1.7272 -0.5847
   68MOL   H16425758   5.235   3.450   3.780  2.9057 -0.1131  0.7017
   68MOL   H16525759   5.290   3.443   3.949 -1.3660  1.5594  1.8227
   68MOL   H16625760   5.114   3.314   4.012  1.2553 -2.6663 -1.4759
   68MOL   H16725761   5.091   3.311   3.731 -0.6540  0.6314 -0.6171
   68MOL   H16825762   4.967   3.222   3.837 -0.4121  2.1558  1.4780
   68MOL   H16925763   5.269   3.167   3.861  1.1514 -0.0467  3.0067
   68MOL   H17025764   5.149   3.100   3.952  0.8582  1.6179  0.4209
   68MOL   H17125765   4.897   3.414   3.999 -0.0710 -0.0479  0.6348
   68MOL   H17225766   4.921   3.475   3.827  0.3158  1.1588  0.3916
   68MOL   C17325767   5.169   3.019   3.751 -0.0055  0.1497  0.8191
   68MOL   C17425768   5.282   2.910   3.774 -0.4764  0.5150 -0.5239
   68MOL   C17525769   5.208   2.781   3.826 -0.5539 -0.1120 -0.0572
   68MOL   C17625770   5.077   2.786   3.752  0.6137  0.1751  0.2085
   68MOL   C17725771   4.971   2.687   3.819  0.4470  0.3531  0.1920
   68MOL   C17825772   4.829   2.734   3.772  0.6737 -0.3392 -0.4454
   68MOL   C17925773   5.038   2.934   3.766 -0.3811 -0.6112  0.4822
   68MOL   H18025774   5.185   3.057   3.650  0.4968  0.8643  1.1649
   68MOL   H18125775   5.339   2.933   3.865 -0.8744 -0.0075 -0.1399
   68MOL   H18225776   5.349   2.904   3.689 -0.0215 -0.4050 -0.1052
   68MOL   H18325777   5.260   2.688   3.804  0.8628  0.1019  2.2075
   68MOL   H18425778   5.190   2.787   3.933 -0.0667  0.3642 -0.0006
   68MOL   H18525779   5.095   2.758   3.649 -3.6167 -1.5834 -0.1535
   68MOL   H18625780   4.970   2.703   3.927  1.2805 -0.4834  0.3271
   68MOL   H18725781   4.996   2.583   3.802  2.2202  0.7738  0.1748
   68MOL   H18825782   4.827   2.799   3.684 -1.5632  0.7311  0.3493
   68MOL   H18925783   4.786   2.790   3.855 -2.0021 -1.6122 -0.8986
   68MOL   H19025784   4.994   2.938   3.866 -1.6710  0.6271 -0.1290
   68MOL   H19125785   4.957   2.960   3.698 -0.2703 -1.0709  0.1725
   68MOL   C19225786   4.727   2.621   3.744 -0.0051 -0.2655  0.3232
   68MOL   C19325787   4.744   2.537   3.615 -0.3360  0.1384  0.2700
   68MOL   C19425788   4.603   2.528   3.552 -0.2745  0.6616  0.3222
   68MOL   C19525789   4.538   2.667   3.595  1.2659 -0.3663 -0.5105
   68MOL   C19625790   4.384   2.677   3.577 -0.2730 -0.0734  0.6237
   68MOL   C19725791   4.341   2.664   3.432  0.1357 -0.4834 -0.0257
   68MOL   C19825792   4.582   2.682   3.736  0.5538  0.3356  0.5715
   68MOL   H19925793   4.736   2.548   3.824 -0.0003 -0.5773  0.0382
   68MOL   H20025794   4.801   2.593   3.542 -0.2041  1.6209  1.4819
   68MOL   H20125795   4.795   2.442   3.633 -1.8985 -0.3867  2.0673
   68MOL   H20225796   4.551   2.438   3.588 -0.4928  1.0876  1.0747
   68MOL   H20325797   4.596   2.527   3.443  0.2403 -1.1801  0.2807
   68MOL   H20425798   4.585   2.752   3.547  1.4294  0.7711  1.6076
   68MOL   H20525799   4.352   2.771   3.622  0.4691  0.3260  0.3133
   68MOL   H20625800   4.339   2.604   3.645  0.2940 -1.5548 -0.5719
   68MOL   H20725801   4.356   2.564   3.391  1.0756  0.1978 -1.3925
   68MOL   H20825802   4.403   2.735   3.377 -1.1141  0.4093 -0.2893
   68MOL   H20925803   4.521   2.610   3.791  1.0195 -0.0163  0.6291
   68MOL   H21025804   4.563   2.782   3.776 -0.9098  0.2658  0.0729
   68MOL   C21125805   4.196   2.682   3.394  0.1774 -0.1088 -0.2933
   68MOL   C21225806   4.107   2.565   3.443  0.1384 -0.9049 -0.2009
   68MOL   C21325807   4.061   2.492   3.318 -0.3682 -0.2077  0.4320
   68MOL   C21425808   4.043   2.605   3.214  0.3001  1.2802  0.3724
   68MOL   C21525809   4.038   2.556   3.073  0.1745  0.7114 -0.1443
   68MOL   C21625810   3.926   2.467   3.036  0.3828  0.1987  0.0172
   68MOL   C21725811   4.172   2.681   3.241 -0.1805 -0.7797  0.2885
   68MOL   H21825812   4.176   2.781   3.436  3.2870  0.8403 -0.8765
   68MOL   H21925813   4.164   2.490   3.498 -0.5422 -0.5729  0.9739
   68MOL   H22025814   4.021   2.602   3.499  0.8719 -0.4237  0.6249
   68MOL   H22125815   4.129   2.415   3.280  0.4146  1.0467 -0.7962
   68MOL   H22225816   3.966   2.443   3.338  0.3752 -1.7300  0.2601
   68MOL   H22325817   3.957   2.670   3.228  0.0645  1.3144 -1.1626
   68MOL   H22425818   4.131   2.516   3.034 -1.0917 -0.9115 -1.5839
   68MOL   H22525819   4.020   2.649   3.018 -0.7262 -0.1888 -1.3971
   68MOL   H22625820   3.928   2.367   3.081  2.0992 -0.5519 -1.6867
   68MOL   H22725821   3.828   2.500   3.070  0.1925  1.6992 -1.9301
   68MOL   H22825822   4.174   2.784   3.206 -0.0074 -1.2409 -1.0528
   68MOL   H22925823   4.259   2.642   3.188  0.9130  5.7521 -3.1314
   68MOL   C23025824   3.928   2.433   2.882 -0.6532 -0.2719 -0.5205
   68MOL   C23125825   3.902   2.547   2.789 -0.0185  0.3596 -0.4284
   68MOL   C23225826   3.811   2.494   2.683 -0.0432  0.3895 -0.4545
   68MOL   C23325827   3.713   2.400   2.749  0.2860  0.1566  0.4676
   68MOL   C23425828   3.645   2.298   2.667 -0.2383 -0.5734 -0.2101
   68MOL   C23525829   3.528   2.231   2.738  0.9118  0.0911  0.2830
   68MOL   C23625830   3.806   2.341   2.862  0.7753 -0.1646 -0.1866
   68MOL   H23725831   4.019   2.382   2.853 -0.1110  0.7920 -0.7137
   68MOL   H23825832   3.856   2.631   2.842 -0.1001  0.1077 -0.0988
   68MOL   H23925833   3.996   2.576   2.743 -0.2056  0.1238 -0.9618
   68MOL   H24025834   3.873   2.445   2.608 -0.5900 -1.9192  0.5558
   68MOL   H24125835   3.768   2.567   2.614 -0.5591  1.2642  0.7770
   68MOL   H24225836   3.639   2.462   2.801 -0.9509 -0.4411 -0.5610
   68MOL   H24325837   3.724   2.225   2.645 -0.1301 -0.4272 -0.3035
   68MOL   H24425838   3.619   2.332   2.567 -0.6697  0.8231  0.3735
   68MOL   H24525839   3.523   2.128   2.702 -2.1046 -0.3339  1.7903
   68MOL   H24625840   3.550   2.221   2.844  0.5690 -1.5573  0.2143
   68MOL   H24725841   3.840   2.239   2.849  2.7552  0.3329  0.9693
   68MOL   H24825842   3.740   2.330   2.948  2.1340  0.3948  0.9349
   68MOL   C24925843   3.383   2.301   2.716 -0.2066 -1.4679  0.4609
   68MOL   C25025844   3.336   2.292   2.573  0.3546  0.0541  0.2533
   68MOL   C25125845   3.182   2.293   2.577  0.4243 -0.4454  0.6617
   68MOL   C25225846   3.155   2.198   2.693 -0.9576  0.1607  0.5269
   68MOL   C25325847   3.009   2.205   2.746  0.7629  0.4033 -0.1415
   68MOL   C25425848   2.981   2.148   2.885  0.0550  0.2457  0.6325
   68MOL   C25525849   3.269   2.232   2.794  0.5740 -0.5186 -1.0525
   68MOL   H25625850   3.386   2.406   2.746  3.0284 -1.3015 -0.2581
   68MOL   H25725851   3.368   2.369   2.504  0.3229 -1.5267 -1.5536
   68MOL   H25825852   3.365   2.196   2.532 -3.6650 -1.1442 -0.0032
   68MOL   H25925853   3.142   2.267   2.479  0.1093  1.5308  0.2566
   68MOL   H26025854   3.153   2.395   2.599  0.6850 -0.2988  0.3301
   68MOL   H26125855   3.165   2.095   2.659 -0.5419 -0.0119  1.1738
   68MOL   H26225856   2.938   2.148   2.686  1.0091 -1.8517  1.6225
   68MOL   H26325857   2.974   2.308   2.744 -0.7817 -0.1168 -0.8935
   68MOL   H26425858   2.882   2.180   2.919  0.5935  0.9171  1.5928
   68MOL   H26525859   3.046   2.191   2.961 -1.4848  0.0905  2.0645
   68MOL   H26625860   3.301   2.134   2.827  0.6186 -0.8943 -2.1856
   68MOL   H26725861   3.243   2.295   2.879  1.2602  0.3098 -1.4437
   68MOL   C26825862   2.999   1.999   2.891  0.0020 -0.6033 -0.5468
   68MOL   C26925863   2.892   1.911   2.825  0.3018  0.3603 -0.0580
   68MOL   C27025864   2.886   1.778   2.910  0.5185 -0.0446  0.4225
   68MOL   C27125865   2.984   1.801   3.018 -0.6626  0.0912  0.2098
   68MOL   C27225866   2.964   1.713   3.148 -0.4238  0.1525 -0.0348
   68MOL   C27325867   3.082   1.695   3.241 -0.0609  0.6735  0.1383
   68MOL   C27425868   2.993   1.954   3.037  0.5620  0.1376  0.1184
   68MOL   H27525869   3.095   1.972   2.848  0.7486 -0.2760  0.9009
   68MOL   H27625870   2.795   1.961   2.814 -0.4034 -0.9620  0.1353
   68MOL   H27725871   2.925   1.887   2.724 -0.7108  0.1395 -0.3411
   68MOL   H27825872   2.785   1.758   2.946 -0.0210 -0.6673 -1.3849
   68MOL   H27925873   2.910   1.697   2.841 -0.5324  0.7434 -0.8985
   68MOL   H28025874   3.078   1.767   2.973 -0.8567  0.1595 -0.2427
   68MOL   H28125875   2.925   1.618   3.114  1.0642 -0.4698 -0.0059
   68MOL   H28225876   2.877   1.754   3.201 -0.2451 -0.6378  0.8847
   68MOL   H28325877   3.144   1.613   3.204 -1.6277 -0.1111 -0.7857
   68MOL   H28425878   3.130   1.793   3.238 -0.0237  0.7240  1.6262
   68MOL   H28525879   2.912   1.999   3.094  0.8679 -0.8438  1.3593
   68MOL   H28625880   3.086   1.985   3.085  0.9684 -3.1198  1.5958
   68MOL   C28725881   3.043   1.650   3.381 -0.7097 -0.7170  0.3595
   68MOL   C28825882   2.947   1.526   3.388 -0.0428  0.1102 -0.7492
   68MOL   C28925883   3.000   1.450   3.507  0.0275 -0.3850 -0.2654
   68MOL   C29025884   3.112   1.532   3.581 -0.3352  0.0028  0.4517
   68MOL   C29125885   3.218   1.443   3.657  0.2674  0.3983  0.1210
   68MOL   C29225886   3.146   1.351   3.757 -0.0335 -0.6958  0.3686
   68MOL   C29325887   3.165   1.626   3.472  0.3356  0.6214 -0.2055
   68MOL   H29425888   2.979   1.729   3.420 -0.0022  0.2510 -0.4142
   68MOL   H29525889   2.845   1.554   3.412 -0.6305 -1.1370 -1.7210
   68MOL   H29625890   2.955   1.465   3.298 -0.0357 -0.6928 -0.2101
   68MOL   H29725891   3.049   1.366   3.459  0.2513  0.4918 -1.6035
   68MOL   H29825892   2.926   1.407   3.574  1.2658 -1.9502  0.1254
   68MOL   H29925893   3.069   1.592   3.661 -2.8242 -0.7711 -0.2567
   68MOL   H30025894   3.290   1.504   3.711 -2.3512  1.5941  2.4423
   68MOL   H30125895   3.282   1.391   3.586 -1.4463 -0.5106 -0.7832
   68MOL   H30225896   3.063   1.289   3.721  0.1354 -0.5442 -0.2793
   68MOL   H30325897   3.089   1.415   3.824 -0.8441  1.7857 -2.5699
   68MOL   H30425898   3.241   1.569   3.419  2.3061  3.9270 -1.0965
   68MOL   H30525899   3.213   1.718   3.507 -0.5700  0.0285  2.7164
   68MOL   C30625900   3.247   1.256   3.822 -0.2337 -0.4681 -0.2470
   68MOL   C30725901   3.194   1.177   3.949 -0.0778 -0.0286  0.3791
   68MOL   C30825902   3.310   1.075   3.966 -0.4929 -0.0326  0.1871
   68MOL   C30925903   3.368   1.039   3.823 -0.0199 -0.3019  0.5762
   68MOL   C31025904   3.353   0.903   3.757  0.3368  0.0355 -0.3824
   68MOL   C31125905   3.434   0.794   3.823  0.6272 -0.3107 -0.3260
   68MOL   C31225906   3.298   1.145   3.730  0.1957 -0.3261 -0.3109
   68MOL   H31325907   3.335   1.317   3.841 -0.6094  0.0225 -0.0755
   68MOL   H31425908   3.175   1.235   4.039  2.3537  0.9080  0.3361
   68MOL   H31525909   3.108   1.118   3.919  0.7513 -1.4702  0.8150
   68MOL   H31625910   3.390   1.122   4.023 -0.9301  0.7341  0.1727
   68MOL   H31725911   3.290   0.985   4.024  0.5690  0.7316  1.7723
   68MOL   H31825912   3.469   1.077   3.804 -1.9618  3.2773 -3.4342
   68MOL   H31925913   3.251   0.867   3.761  1.2478 -2.5686  0.4734
   68MOL   H32025914   3.382   0.904   3.652  1.6965 -0.2526 -0.0235
   68MOL   H32125915   3.400   0.778   3.925  0.6111  2.8235  0.2197
   68MOL   H32225916   3.541   0.817   3.828  0.5972  0.2417 -1.7926
   68MOL   H32325917   3.217   1.102   3.671 -0.5296  2.0630 -1.1246
   68MOL   H32425918   3.368   1.190   3.660  0.9085  0.4125  0.8541
   68MOL   C32525919   3.417   0.660   3.759  0.5600 -0.2593  0.3484
   68MOL   C32625920   3.457   0.654   3.611 -0.2185 -0.2188  0.3227
   68MOL   C32725921   3.541   0.533   3.597  0.3102 -0.2870  0.4105
   68MOL   C32825922   3.607   0.496   3.731  0.0812 -0.8627 -0.1849
   68MOL   C32925923   3.656   0.344   3.733 -0.2698  0.4269 -0.4483
   68MOL   C33025924   3.694   0.305   3.877 -0.0714  0.1842  0.6198
   68MOL   C33125925   3.502   0.540   3.829  0.1695  0.2456 -0.2662
   68MOL   H33225926   3.311   0.636   3.765 -0.3159  3.0186 -1.0298
   68MOL   H33325927   3.517   0.743   3.590 -1.2102  0.2225 -0.7084
   68MOL   H33425928   3.375   0.657   3.539  0.7609 -1.3213 -0.8702
   68MOL   H33525929   3.479   0.445   3.582  0.4487 -0.2739 -0.2086
   68MOL   H33625930   3.619   0.543   3.522  1.3115  2.7214  1.7711
   68MOL   H33725931   3.689   0.566   3.747 -0.6077  0.5725 -2.6701
   68MOL   H33825932   3.580   0.276   3.693  0.3285 -0.6938  0.3124
   68MOL   H33925933   3.741   0.331   3.666 -0.1012 -2.3418  0.2454
   68MOL   H34025934   3.769   0.372   3.920 -2.2634  1.8385  1.9368
   68MOL   H34125935   3.607   0.328   3.937 -0.6303 -1.2962  0.3840
   68MOL   H34225936   3.533   0.565   3.930  0.8058 -0.1322 -0.3663
   68MOL   H34325937   3.423   0.464   3.830 -1.6892  2.1177 -0.2686
   68MOL   C34425938   3.739   0.152   3.878 -0.6575  0.1243 -0.4763
   68MOL   C34525939   3.623   0.065   3.833 -0.0429  0.6684  0.4345
   68MOL   C34625940   3.619   7.595   3.929 -0.1841  0.2224 -0.5171
   68MOL   C34725941   3.670   0.000   4.061  0.4210  0.0052  0.6454
   68MOL   C34825942   3.725   7.533   4.145  0.4978 -0.1777  0.0413
   68MOL   C34925943   3.761   7.594   4.278  0.1285  1.0195 -0.6912
   68MOL   C35025944   3.782   0.102   4.017  0.8366  0.2643 -0.6531
   68MOL   H35125945   3.831   0.129   3.823  0.9872  0.3230  2.0817
   68MOL   H35225946   3.634   0.046   3.726 -0.3708 -0.4025  0.5911
   68MOL   H35325947   3.537   0.130   3.851  0.0544  0.3961  1.9873
   68MOL   H35425948   3.515   7.564   3.934 -0.2194  0.3093 -0.6903
   68MOL   H35525949   3.679   7.511   3.893  0.1787  0.1439  0.2735
   68MOL   H35625950   3.583   0.051   4.102  0.1654 -1.2083  1.6385
   68MOL   H35725951   3.642   7.464   4.156  1.2385 -0.9646  0.7615
   68MOL   H35825952   3.808   7.482   4.095 -0.0641 -0.3649 -0.7164
   68MOL   H35925953   3.670   7.643   4.313 -0.8516 -1.1962 -0.0684
   68MOL   H36025954   3.835   0.026   4.261 -0.3966  1.9167  1.0706
   68MOL   H36125955   3.794   0.176   4.097  0.4638  2.2204 -2.3752
   68MOL   H36225956   3.873   0.045   4.005  0.6592 -0.6428  1.8859
   68MOL   C36325957   3.817   7.504   4.385  1.1832 -0.6518 -0.3010
   68MOL   C36425958   3.839   7.581   4.516 -0.1521  0.2110 -0.5181
   68MOL   C36525959   3.987   7.597   4.533  0.4459 -0.5110  0.0306
   68MOL   C36625960   4.048   7.475   4.461  0.4288 -0.2788  0.6702
   68MOL   C36725961   4.189   7.501   4.415  0.7009 -0.0817 -0.1513
   68MOL   C36825962   4.236   7.391   4.325 -0.1652  0.1488 -0.3251
   68MOL   C36925963   3.955   7.444   4.351 -0.4621  0.7378 -0.5276
   68MOL   H37025964   3.745   7.425   4.407 -0.5886  0.8320 -0.6631
   68MOL   H37125965   3.794   0.033   4.513 -1.9468 -0.5648  0.0474
   68MOL   H37225966   3.802   7.517   4.596  2.4686  0.4502  0.9505
   68MOL   H37325967   4.026   0.032   4.474  0.2290 -1.9059 -2.1207
   68MOL   H37425968   4.031   7.613   4.632 -1.3005  0.6953  0.6209
   68MOL   H37525969   4.048   7.394   4.534 -1.9637 -1.1907 -0.2837
   68MOL   H37625970   4.177   7.591   4.353 -0.3314 -0.6851 -0.8410
   68MOL   H37725971   4.257   7.523   4.497  1.2258  1.8431 -1.0682
   68MOL   H37825972   4.241   7.300   4.384  0.8819  0.1692 -0.3709
   68MOL   H37925973   4.339   7.404   4.293  0.3879 -1.1858  0.8381
   68MOL   H38025974   3.999   7.499   4.269  1.1484 -0.2878 -0.3587
   68MOL   H38125975   3.952   7.336   4.338 -1.3787  0.3614  2.2650
   68MOL   H38225976   4.170   7.374   4.240 -1.7043  1.4297  0.5727
   69MOL     C125977   4.264   3.408   3.930  0.3883 -0.5645 -0.5290
   69MOL     C225978   4.155   3.337   4.014 -0.1301 -0.0381  0.8229
   69MOL     C325979   4.031   3.344   3.928 -0.1843  0.6567  0.0558
   69MOL     C425980   4.053   3.452   3.824  0.1736 -0.7226  0.4797
   69MOL     C525981   3.926   3.541   3.813  0.3632 -0.2904  0.4509
   69MOL     C625982   3.931   3.647   3.700  0.7905  0.8349 -0.2342
   69MOL     C725983   4.182   3.522   3.866 -0.3379 -0.2699  0.6065
   69MOL     H825984   4.347   3.447   3.989 -1.1934  0.7384  0.8795
   69MOL     H925985   4.139   3.394   4.105 -2.5933  3.5707 -1.7149
   69MOL    H1025986   4.180   3.232   4.031  1.3099  0.1240 -0.2490
   69MOL    H1125987   4.018   3.248   3.879 -0.2766  0.5424  0.3019
   69MOL    H1225988   3.947   3.351   3.997 -0.1763  0.0786  0.1290
   69MOL    H1325989   4.063   3.400   3.729  0.4968 -0.7358  0.5198
   69MOL    H1425990   3.835   3.481   3.810  1.5109 -2.0221 -1.3398
   69MOL    H1525991   3.918   3.598   3.905 -1.0023 -2.6924  1.8816
   69MOL    H1625992   4.012   3.719   3.710  1.7253 -0.1627 -0.5328
   69MOL    H1725993   3.952   3.605   3.601 -0.8234 -2.0371  0.5693
   69MOL    H1825994   4.248   3.567   3.791  1.9345 -2.0563  1.4863
   69MOL    H1925995   4.167   3.590   3.950  0.7046  0.0324  0.5563
   69MOL    H2025996   4.309   3.351   3.849 -0.2025  0.5975 -1.6969
   69MOL    C2125997   3.789   3.713   3.702 -0.6242 -0.2585  0.1514
   69MOL    C2225998   3.789   3.853   3.629 -0.2880 -0.3359  0.0225
   69MOL    C2325999   3.655   3.856   3.559 -0.2497 -0.3298 -0.4582
   69MOL    C2426000   3.573   3.743   3.607 -0.2409 -0.0762  0.1287
   69MOL    C2526001   3.462   3.702   3.517 -0.2647  0.0193 -0.1620
   69MOL    C2626002   3.349   3.612   3.568 -0.4714  0.4126  0.0421
   69MOL    C2726003   3.679   3.636   3.628 -0.4426 -0.0464  0.4201
   69MOL    H2826004   3.759   3.721   3.806  2.4370 -1.8697  1.2365
   69MOL    H2926005   3.798   3.936   3.699  2.0124 -3.1700  3.2851
   69MOL    H3026006   3.866   3.860   3.551 -0.4170  0.5235 -0.0322
   69MOL    H3126007   3.621   3.957   3.582 -1.0263 -0.2013 -2.0818
   69MOL    H3226008   3.658   3.860   3.450 -1.7050 -0.4662 -0.5223
   69MOL    H3326009   3.523   3.778   3.697 -0.4631  3.4464 -1.2957
   69MOL    H3426010   3.502   3.646   3.432  0.6737 -0.0904  0.3382
   69MOL    H3526011   3.414   3.789   3.471 -1.2912 -0.5326 -0.1451
   69MOL    H3626012   3.324   3.631   3.672 -1.6979 -2.4713  0.3272
   69MOL    H3726013   3.387   3.510   3.579  0.3322  0.4509 -2.1451
   69MOL    H3826014   3.642   3.547   3.680  0.9694 -1.0938 -0.3247
   69MOL    H3926015   3.715   3.603   3.531  0.3249  1.2231  0.2706
   69MOL    C4026016   3.231   3.619   3.480  0.2185 -0.7029  0.5096
   69MOL    C4126017   3.137   3.501   3.500  0.7608  0.3541  0.1100
   69MOL    C4226018   3.017   3.553   3.581 -0.1764 -0.0203  0.0149
   69MOL    C4326019   3.041   3.704   3.611 -0.3070 -0.3793  0.1648
   69MOL    C4426020   2.915   3.785   3.617  0.8155 -0.5189 -0.2251
   69MOL    C4526021   2.816   3.747   3.732 -0.1591  0.2580 -0.3540
   69MOL    C4626022   3.137   3.746   3.504  0.4359  0.3821 -0.3772
   69MOL    H4726023   3.266   3.633   3.378  2.2852  1.1041  1.4393
   69MOL    H4826024   3.182   3.413   3.547  1.7000  1.0986  0.6054
   69MOL    H4926025   3.097   3.472   3.402  1.3876 -0.5514  0.1218
   69MOL    H5026026   2.929   3.534   3.519 -1.9089 -2.2950  3.0663
   69MOL    H5126027   3.007   3.503   3.677 -2.1892  1.7675  0.7734
   69MOL    H5226028   3.094   3.706   3.707  0.1040 -0.8118 -0.0472
   69MOL    H5326029   2.945   3.889   3.631 -0.1348 -0.4078  1.1478
   69MOL    H5426030   2.865   3.792   3.520  0.7441 -1.0537 -0.2259
   69MOL    H5526031   2.783   3.645   3.713  1.5263 -0.1711 -1.0234
   69MOL    H5626032   2.728   3.812   3.726 -0.0226  0.8419  3.0079
   69MOL    H5726033   3.072   3.777   3.423  0.9302  2.8532  0.1280
   69MOL    H5826034   3.198   3.836   3.515  0.1852  0.5946 -0.7303
   69MOL    C5926035   2.872   3.748   3.874 -0.2948  0.4665  0.6499
   69MOL    C6026036   2.772   3.787   3.983 -0.5454  0.4959  0.1022
   69MOL    C6126037   2.840   3.746   4.113 -0.0823 -0.6529  0.0778
   69MOL    C6226038   2.903   3.613   4.087  1.1301 -1.0712  0.3670
   69MOL    C6326039   3.036   3.587   4.149 -0.2403  0.1284 -0.3432
   69MOL    C6426040   3.060   3.440   4.175 -0.8133 -0.0136  0.1853
   69MOL    C6526041   2.913   3.605   3.930 -0.6693  0.2792 -0.6225
   69MOL    H6626042   2.964   3.806   3.886  0.0464 -0.2625  1.6894
   69MOL    H6726043   2.744   3.892   3.996 -2.1861 -0.1845  2.3077
   69MOL    H6826044   2.672   3.742   3.976  0.1618 -0.9319 -1.0601
   69MOL    H6926045   2.908   3.827   4.140 -0.7628 -0.1151  0.1894
   69MOL    H7026046   2.773   3.746   4.198  0.4836 -1.0188  0.5215
   69MOL    H7126047   2.830   3.541   4.124  0.1243 -1.9354 -3.1369
   69MOL    H7226048   3.041   3.641   4.244  1.2708 -0.5739 -0.0089
   69MOL    H7326049   3.117   3.640   4.099 -0.2184  0.3004 -0.1262
   69MOL    H7426050   2.978   3.395   4.230 -0.3546  0.8917  1.6249
   69MOL    H7526051   3.074   3.383   4.082  0.1405 -1.9661  1.4862
   69MOL    H7626052   3.013   3.572   3.903 -0.7877 -2.4195  2.0268
   69MOL    H7726053   2.844   3.524   3.907  0.6193 -1.0838  0.2011
   69MOL    C7826054   3.193   3.418   4.250 -0.1777 -0.0937 -0.5100
   69MOL    C7926055   3.207   3.481   4.390  0.6315  0.6309 -0.7679
   69MOL    C8026056   3.334   3.415   4.447 -0.1937 -0.0552  0.2885
   69MOL    C8126057   3.353   3.280   4.372 -0.3217  0.2478  0.3225
   69MOL    C8226058   3.380   3.156   4.454  0.8590 -0.0758  0.9054
   69MOL    C8326059   3.524   3.102   4.445 -0.0330 -0.7548 -0.3787
   69MOL    C8426060   3.230   3.272   4.281  0.0442  0.4062 -0.0879
   69MOL    H8526061   3.273   3.458   4.187 -0.3152 -0.5211 -0.9518
   69MOL    H8626062   3.210   3.590   4.401 -0.3807  0.5010  0.9134
   69MOL    H8726063   3.117   3.463   4.449  1.0706 -4.2665 -1.4118
   69MOL    H8826064   3.428   3.467   4.428 -0.0214 -0.7452 -0.7994
   69MOL    H8926065   3.319   3.408   4.555 -1.0623 -3.2633 -0.0040
   69MOL    H9026066   3.440   3.285   4.306 -0.4913  0.7483  0.1358
   69MOL    H9126067   3.309   3.081   4.417 -0.2605  0.7876  1.2916
   69MOL    H9226068   3.342   3.176   4.554 -2.0582  1.4505 -0.4423
   69MOL    H9326069   3.592   3.166   4.501 -0.1874 -1.4726  0.6648
   69MOL    H9426070   3.547   3.073   4.343 -2.1012  0.6312 -1.2532
   69MOL    H9526071   3.151   3.209   4.321 -1.5413  1.0208 -2.1369
   69MOL    H9626072   3.267   3.233   4.186  2.5246 -1.8550  1.7493
   69MOL    C9726073   3.541   2.970   4.517  0.8371  0.2609  0.0701
   69MOL    C9826074   3.528   2.985   4.670 -0.4600 -0.7369 -0.6361
   69MOL    C9926075   3.629   2.897   4.724 -0.0080  0.0708 -0.3694
   69MOL   C10026076   3.693   2.807   4.615  0.8033  0.1040  0.3500
   69MOL   C10126077   3.830   2.758   4.648  0.1865 -0.7531  0.0214
   69MOL   C10226078   3.872   2.650   4.554  0.4648  0.8092  0.7420
   69MOL   C10326079   3.681   2.907   4.493 -0.2508 -0.4637 -0.0675
   69MOL   H10426080   3.466   2.902   4.475 -1.0812  1.5397  1.3211
   69MOL   H10526081   3.557   3.087   4.697 -1.3243 -0.2969 -1.3402
   69MOL   H10626082   3.428   2.966   4.711  0.1362  1.6340  2.1048
   69MOL   H10726083   3.705   2.968   4.758  1.8870 -1.7513 -0.6497
   69MOL   H10826084   3.610   2.842   4.817 -3.1376 -1.0079 -1.6004
   69MOL   H10926085   3.626   2.722   4.599  0.9477 -0.1867  1.2521
   69MOL   H11026086   3.900   2.841   4.638 -0.9608  0.5686  2.4433
   69MOL   H11126087   3.831   2.720   4.750 -2.0120  0.8121  0.6552
   69MOL   H11226088   3.796   2.573   4.565  0.8201  0.3074 -0.3390
   69MOL   H11326089   3.857   2.687   4.453 -1.7162  0.7720  1.0282
   69MOL   H11426090   3.759   2.983   4.503 -0.7209  0.2616 -1.7558
   69MOL   H11526091   3.699   2.858   4.397  0.3181 -0.6274  0.1165
   69MOL   C11626092   4.004   2.593   4.594 -0.3137  0.2601  0.0293
   69MOL   C11726093   4.049   2.470   4.516 -0.4860  0.3796 -0.5995
   69MOL   C11826094   4.207   2.469   4.525  0.0897  0.5102 -0.2249
   69MOL   C11926095   4.238   2.586   4.613  0.2467 -0.5053 -0.6440
   69MOL   C12026096   4.382   2.647   4.603  0.4566  0.5744  0.3020
   69MOL   C12126097   4.490   2.541   4.634  0.4059  0.0277  0.6293
   69MOL   C12226098   4.129   2.684   4.590  0.5534  0.3342 -0.0367
   69MOL   H12326099   3.992   2.563   4.699 -0.9039 -0.1350 -0.1497
   69MOL   H12426100   4.023   2.446   4.413 -0.5219 -2.0628 -0.0654
   69MOL   H12526101   4.012   2.387   4.576  1.2791  1.3048  1.8673
   69MOL   H12626102   4.248   2.485   4.425  0.5637 -2.4626 -0.5562
   69MOL   H12726103   4.245   2.379   4.574  0.8655  1.5968  1.1953
   69MOL   H12826104   4.215   2.542   4.710  1.3981  0.5351  0.1085
   69MOL   H12926105   4.391   2.739   4.661  0.5916  0.1151  1.0041
   69MOL   H13026106   4.398   2.670   4.498 -0.5397  0.5523  0.1421
   69MOL   H13126107   4.463   2.449   4.584 -1.4156  0.1355  1.3794
   69MOL   H13226108   4.483   2.496   4.733  0.8245  2.2628  1.7119
   69MOL   H13326109   4.114   2.753   4.672 -1.3928 -1.6360  1.3132
   69MOL   H13426110   4.143   2.742   4.498 -1.4835  0.9970  0.0524
   69MOL   C13526111   4.639   2.575   4.606  0.3330 -0.5302  0.1869
   69MOL   C13626112   4.687   2.676   4.709  0.0098  0.0147  0.2402
   69MOL   C13726113   4.799   2.620   4.788 -0.3973  0.0522  0.4597
   69MOL   C13826114   4.793   2.466   4.753 -0.6338 -0.2991  0.0094
   69MOL   C13926115   4.934   2.395   4.781 -0.4064 -0.6155 -0.2333
   69MOL   C14026116   4.936   2.254   4.749  0.1253 -0.1426  0.0480
   69MOL   C14126117   4.732   2.451   4.618  0.5441  0.4456 -0.5332
   69MOL   H14226118   4.649   2.617   4.506  0.5963 -1.0341  0.0009
   69MOL   H14326119   4.713   2.776   4.674 -0.6340  0.7655  1.8723
   69MOL   H14426120   4.603   2.692   4.777  0.2021  2.9956 -0.1474
   69MOL   H14526121   4.886   2.671   4.747 -0.4583 -0.8890 -0.9071
   69MOL   H14626122   4.799   2.641   4.895  0.2740 -0.0570  0.4817
   69MOL   H14726123   4.723   2.430   4.829  0.0628  0.5611  1.0675
   69MOL   H14826124   4.937   2.419   4.888 -0.8330  1.0012 -0.5625
   69MOL   H14926125   5.009   2.443   4.719 -1.5572  0.5497 -0.7397
   69MOL   H15026126   4.851   2.202   4.792  0.6009 -1.4095 -0.5255
   69MOL   H15126127   4.923   2.229   4.644  0.5154 -0.0090 -0.0334
   69MOL   H15226128   4.678   2.358   4.604 -1.7289  1.2403  2.4019
   69MOL   H15326129   4.806   2.453   4.538  0.4334 -1.6836 -0.7073
   69MOL   C15426130   5.067   2.187   4.804  0.4279  0.0028  0.5510
   69MOL   C15526131   5.202   2.191   4.717 -0.2067  0.0945  0.1317
   69MOL   C15626132   5.242   2.043   4.720  0.1883  0.6434  0.2053
   69MOL   C15726133   5.186   1.987   4.847  0.8445 -0.3000  0.5628
   69MOL   C15826134   5.194   1.836   4.864 -0.8102 -0.4087  0.3805
   69MOL   C15926135   5.111   1.777   4.978  0.2543 -0.0100  0.0887
   69MOL   C16026136   5.046   2.044   4.847 -0.1890 -0.0015  0.4344
   69MOL   H16126137   5.089   2.227   4.903  1.2356 -1.0377  0.7902
   69MOL   H16226138   5.191   2.240   4.620 -1.3884 -3.4987 -1.6506
   69MOL   H16326139   5.270   2.260   4.767 -1.4385  3.0158 -2.0986
   69MOL   H16426140   5.188   1.995   4.639 -0.7037  0.1872  1.0550
   69MOL   H16526141   5.346   2.015   4.709  0.0599 -0.3077  1.3071
   69MOL   H16626142   5.235   2.031   4.933 -0.3047  0.3378  0.9006
   69MOL   H16726143   5.301   1.814   4.867 -0.1670  2.5239 -0.0537
   69MOL   H16826144   5.165   1.793   4.767  2.3714  0.7560 -1.1571
   69MOL   H16926145   5.134   1.826   5.073 -0.4728 -2.0172  1.3220
   69MOL   H17026146   5.004   1.786   4.959 -0.1034  1.7670  2.6764
   69MOL   H17126147   4.989   2.030   4.939 -0.7858  0.0367  0.0702
   69MOL   H17226148   4.995   1.986   4.770  0.2660 -0.1542  0.2485
   69MOL   C17326149   5.125   1.622   4.997 -0.1750  0.0138  0.2612
   69MOL   C17426150   5.261   1.569   5.057 -0.0601  0.2754 -0.0666
   69MOL   C17526151   5.229   1.432   5.118 -0.0933 -0.4537 -0.2227
   69MOL   C17626152   5.068   1.432   5.134 -0.5188 -0.2450  0.6426
   69MOL   C17726153   5.017   1.364   5.261  0.3884 -0.2513 -0.8624
   69MOL   C17826154   5.077   1.232   5.300  0.3000  0.0140 -0.3120
   69MOL   C17926155   5.025   1.578   5.099 -0.4924  0.0889 -0.0519
   69MOL   H18026156   5.104   1.571   4.903 -1.3400  0.2174  0.4125
   69MOL   H18126157   5.298   1.634   5.136  0.0072  0.3957 -0.1983
   69MOL   H18226158   5.333   1.558   4.976  3.1676 -2.2542  2.9445
   69MOL   H18326159   5.256   1.346   5.056 -2.2205 -0.2293 -1.5126
   69MOL   H18426160   5.270   1.417   5.217 -1.4220 -1.1218  0.2408
   69MOL   H18526161   5.030   1.362   5.060  1.3618 -0.7540  0.1468
   69MOL   H18626162   4.912   1.335   5.251 -0.1487  0.4416  2.1746
   69MOL   H18726163   5.027   1.427   5.350  2.2513 -1.1839 -0.4045
   69MOL   H18826164   5.176   1.253   5.338  0.3073 -1.5632  0.5993
   69MOL   H18926165   5.085   1.169   5.211 -2.6575  1.4758 -1.6922
   69MOL   H19026166   5.040   1.645   5.183  0.2182  0.2014 -0.2669
   69MOL   H19126167   4.922   1.589   5.066 -0.1484  0.7928 -0.9200
   69MOL   C19226168   4.998   1.163   5.418  0.1369  0.0814 -0.4314
   69MOL   C19326169   5.076   1.045   5.468  0.1650 -0.1229  0.3225
   69MOL   C19426170   4.972   0.972   5.547  0.6016 -0.1124  0.2095
   69MOL   C19526171   4.833   0.992   5.478  0.0294  0.3046 -0.0874
   69MOL   C19626172   4.726   1.028   5.584  0.1348  0.4939  0.3970
   69MOL   C19726173   4.589   1.006   5.525  0.0838 -0.2140  0.1185
   69MOL   C19826174   4.861   1.104   5.369 -0.3903 -0.6941 -0.5095
   69MOL   H19926175   4.986   1.233   5.500  0.5991 -0.8869  0.4725
   69MOL   H20026176   5.105   0.975   5.390 -0.6092  0.8319 -0.8445
   69MOL   H20126177   5.163   1.065   5.530  1.1482 -1.1077 -0.7257
   69MOL   H20226178   4.975   1.021   5.645  0.9428  1.6848 -0.6806
   69MOL   H20326179   4.995   0.867   5.568  0.2009 -0.1355  0.5405
   69MOL   H20426180   4.803   0.895   5.438 -0.7462  0.5572 -0.1174
   69MOL   H20526181   4.740   1.134   5.604 -0.3528  0.6220  0.0580
   69MOL   H20626182   4.739   0.973   5.677  0.6350 -1.3175 -0.7225
   69MOL   H20726183   4.585   0.897   5.520  3.2376 -0.5059  2.3589
   69MOL   H20826184   4.579   1.044   5.423 -0.1038  0.3005  0.3304
   69MOL   H20926185   4.783   1.180   5.363 -0.6261 -0.9686 -1.0274
   69MOL   H21026186   4.897   1.058   5.276  1.4062 -1.2814  0.4542
   69MOL   C21126187   4.470   1.054   5.603  0.0709 -0.4685  0.5884
   69MOL   C21226188   4.335   1.008   5.543 -0.4201  0.5953 -0.0830
   69MOL   C21326189   4.234   1.102   5.612 -0.2230  0.5506 -0.0442
   69MOL   C21426190   4.314   1.230   5.656  0.4794 -0.4375 -0.4021
   69MOL   C21526191   4.260   1.369   5.593  0.2994  0.1571 -0.6078
   69MOL   C21626192   4.274   1.484   5.691 -0.1529 -0.5467  0.6071
   69MOL   C21726193   4.461   1.208   5.608  0.9366  0.1353  0.4757
   69MOL   H21826194   4.481   1.012   5.703  0.0926  0.3772  0.9458
   69MOL   H21926195   4.344   1.020   5.435 -0.1352  1.4164  0.0277
   69MOL   H22026196   4.309   0.905   5.565  1.0200  0.3701  0.6022
   69MOL   H22126197   4.168   1.150   5.540  2.2840  0.5919 -2.4107
   69MOL   H22226198   4.182   1.056   5.695 -0.4581 -1.4433 -1.2841
   69MOL   H22326199   4.316   1.243   5.764  1.3539 -2.3803 -0.1580
   69MOL   H22426200   4.158   1.366   5.555  1.0152  0.4380 -2.5972
   69MOL   H22526201   4.320   1.401   5.508  2.7820  1.5232  1.5543
   69MOL   H22626202   4.216   1.466   5.782 -1.1474  0.2189  0.1300
   69MOL   H22726203   4.376   1.492   5.730 -0.5457  2.2465  1.1891
   69MOL   H22826204   4.528   1.254   5.680 -1.0879  0.3314  2.3192
   69MOL   H22926205   4.489   1.245   5.510 -0.8925  0.4873  0.0628
   69MOL   C23026206   4.241   1.622   5.637  0.0517 -0.3830 -0.7295
   69MOL   C23126207   4.089   1.637   5.588  0.5594 -0.0472 -0.1264
   69MOL   C23226208   4.097   1.744   5.479  0.3231  0.5173 -0.7538
   69MOL   C23326209   4.217   1.699   5.395  0.4478  0.0466  0.0722
   69MOL   C23426210   4.265   1.811   5.303 -0.1401 -0.5783  0.2426
   69MOL   C23526211   4.173   1.841   5.180 -0.2539 -0.3644 -0.1773
   69MOL   C23626212   4.320   1.671   5.511 -0.2692  0.2870 -0.1427
   69MOL   H23726213   4.250   1.694   5.719 -0.6104 -1.7816  0.6048
   69MOL   H23826214   4.069   1.543   5.536  1.5374  0.1990 -0.9647
   69MOL   H23926215   4.008   1.644   5.661 -1.0629 -2.6244 -1.6045
   69MOL   H24026216   4.101   1.840   5.530 -1.1970  0.3241 -0.2290
   69MOL   H24126217   4.005   1.741   5.419 -0.7137  1.1971  0.7762
   69MOL   H24226218   4.188   1.616   5.331 -0.6168  0.8500 -0.5058
   69MOL   H24326219   4.367   1.797   5.268  0.6919  0.5698  2.1199
   69MOL   H24426220   4.268   1.905   5.359  2.9814  0.6137 -1.8155
   69MOL   H24526221   4.156   1.749   5.124 -0.3497  0.3819 -1.3912
   69MOL   H24626222   4.071   1.859   5.215 -0.3614 -3.0886  1.0003
   69MOL   H24726223   4.372   1.764   5.534 -0.9204 -0.2859  4.0342
   69MOL   H24826224   4.409   1.617   5.480  1.1434  2.3970  0.1342
   69MOL   C24926225   4.214   1.951   5.084  0.0293 -0.4973 -0.3197
   69MOL   C25026226   4.150   1.947   4.951 -0.3682 -0.5370  0.6867
   69MOL   C25126227   4.158   2.096   4.896 -0.2087 -0.6200 -0.4693
   69MOL   C25226228   4.137   2.184   5.022  1.0634 -0.4315  0.3224
   69MOL   C25326229   4.207   2.317   5.015  0.3851 -0.6378  0.5949
   69MOL   C25426230   4.198   2.404   5.143  0.8510  0.0750 -0.2970
   69MOL   C25526231   4.197   2.094   5.140 -0.2835  0.2587  0.0843
   69MOL   H25626232   4.318   1.935   5.057  0.6888  1.4981  0.9632
   69MOL   H25726233   4.198   1.877   4.884 -1.2052  2.1278 -2.8619
   69MOL   H25826234   4.043   1.925   4.960 -0.2891 -1.2347 -0.0122
   69MOL   H25926235   4.098   2.118   4.808 -0.0046  2.5502  0.1313
   69MOL   H26026236   4.259   2.108   4.858 -0.0009  0.2882  0.3703
   69MOL   H26126237   4.031   2.188   5.050  0.7799  0.1259 -0.7770
   69MOL   H26226238   4.182   2.375   4.927  0.9238 -1.0583  0.1601
   69MOL   H26326239   4.314   2.297   5.002  0.4429  0.0353  0.0587
   69MOL   H26426240   4.218   2.338   5.228  1.5735 -0.2453 -0.7154
   69MOL   H26526241   4.093   2.427   5.160  1.0131 -0.3885  1.4443
   69MOL   H26626242   4.122   2.093   5.219 -0.2544  1.0443  0.1187
   69MOL   H26726243   4.289   2.143   5.173 -1.2021  2.5524 -0.6869
   69MOL   C26826244   4.302   2.526   5.132 -0.2204 -0.2186  0.6532
   69MOL   C26926245   4.285   2.626   5.252  0.0134  0.0554 -0.1110
   69MOL   C27026246   4.306   2.768   5.194  0.7664  0.1070  0.3220
   69MOL   C27126247   4.338   2.756   5.043  0.0377  0.5204 -0.1727
   69MOL   C27226248   4.263   2.863   4.961  0.2931  0.0904  0.3677
   69MOL   C27326249   4.306   3.009   4.994  0.6833 -0.0081 -0.0584
   69MOL   C27426250   4.297   2.613   5.001  0.3534 -0.1439 -0.8416
   69MOL   H27526251   4.400   2.480   5.134  0.1554  0.5922  0.8548
   69MOL   H27626252   4.192   2.622   5.307  0.6397  2.1360  1.1667
   69MOL   H27726253   4.365   2.608   5.324  1.2245  3.4863 -0.4741
   69MOL   H27826254   4.213   2.818   5.221  0.1277 -0.5461 -0.6326
   69MOL   H27926255   4.383   2.820   5.252 -0.2079  1.3119  0.5528
   69MOL   H28026256   4.445   2.768   5.033  0.1359 -0.3147 -0.1263
   69MOL   H28126257   4.160   2.859   4.995  0.5395  0.7009  1.1949
   69MOL   H28226258   4.262   2.845   4.854  1.1490 -0.1613  0.3958
   69MOL   H28326259   4.300   3.036   5.100  0.0671  0.6255 -0.2492
   69MOL   H28426260   4.408   3.029   4.963  0.4572 -1.8787 -2.1570
   69MOL   H28526261   4.198   2.619   4.956  0.5731 -0.2682 -1.3407
   69MOL   H28626262   4.362   2.568   4.927  1.1667 -1.3344  0.5704
   69MOL   C28726263   4.216   3.109   4.918 -0.7628  0.3316  0.6087
   69MOL   C28826264   4.234   3.258   4.949 -0.3660  0.0693 -0.5521
   69MOL   C28926265   4.175   3.343   4.836 -0.1894  0.2102  0.2620
   69MOL   C29026266   4.161   3.242   4.716  0.3715  0.3525  0.0970
   69MOL   C29126267   4.215   3.281   4.577 -0.5314  0.4526  0.9540
   69MOL   C29226268   4.223   3.171   4.469  0.7044  0.0577  0.0431
   69MOL   C29326269   4.231   3.117   4.766  0.1033 -0.7135 -0.2626
   69MOL   H29426270   4.111   3.086   4.933 -1.2688  2.6128  0.7392
   69MOL   H29526271   4.190   3.291   5.044 -0.2497 -2.0569  0.2501
   69MOL   H29626272   4.341   3.272   4.963  0.2925 -3.5920 -1.5082
   69MOL   H29726273   4.250   3.421   4.821 -0.1400  0.1874  0.3908
   69MOL   H29826274   4.076   3.385   4.855 -1.8460 -2.8151 -1.3139
   69MOL   H29926275   4.052   3.231   4.713  0.4543 -1.0288  1.3149
   69MOL   H30026276   4.321   3.302   4.592 -0.4530  2.9782 -2.5617
   69MOL   H30126277   4.174   3.378   4.547 -0.9028 -0.3377 -1.1191
   69MOL   H30226278   4.287   3.089   4.501  1.6849 -0.3304 -2.7574
   69MOL   H30326279   4.276   3.228   4.393 -0.2247 -1.4569 -1.7644
   69MOL   H30426280   4.337   3.122   4.740 -0.6410 -0.4164 -3.4911
   69MOL   H30526281   4.186   3.033   4.713 -1.9813 -1.6762  2.8695
   69MOL   C30626282   4.089   3.106   4.437 -0.3913 -0.3655  0.1464
   69MOL   C30726283   3.997   3.211   4.367  0.1363  0.2438 -0.3140
   69MOL   C30826284   3.900   3.135   4.273  0.5572  0.6267 -0.5804
   69MOL   C30926285   3.953   2.992   4.265 -0.9363 -0.7158 -0.5157
   69MOL   C31026286   3.952   2.930   4.125  0.1801  0.0978 -0.7203
   69MOL   C31126287   3.994   2.785   4.126  0.5802 -0.7062  0.6190
   69MOL   C31226288   4.088   2.991   4.330 -0.5337 -0.2947 -0.7321
   69MOL   H31326289   4.041   3.064   4.525  0.2188 -1.7901 -0.1920
   69MOL   H31426290   3.944   3.277   4.437  1.6246 -0.4380  1.5206
   69MOL   H31526291   4.056   3.288   4.317 -0.1870 -0.8501 -2.4175
   69MOL   H31626292   3.799   3.131   4.313 -0.3378  0.7891 -2.7338
   69MOL   H31726293   3.891   3.185   4.176 -1.1901 -2.2314 -1.9594
   69MOL   H31826294   3.896   2.936   4.339 -0.5595  1.0990  1.2210
   69MOL   H31926295   3.857   2.946   4.073 -0.3159  2.2926  0.7709
   69MOL   H32026296   4.021   2.986   4.061  0.4190  2.8421  1.7955
   69MOL   H32126297   3.929   2.731   4.194  1.6880  0.6838  2.8354
   69MOL   H32226298   4.095   2.769   4.164  0.2395  0.0076  1.8344
   69MOL   H32326299   4.163   3.024   4.259 -1.1591 -0.9655 -1.7194
   69MOL   H32426300   4.119   2.891   4.363 -0.2930 -0.1875 -0.6341
   69MOL   C32526301   3.988   2.718   3.996  0.1810  0.2320 -0.7305
   69MOL   C32626302   4.099   2.769   3.903  0.2469  0.2974  0.0450
   69MOL   C32726303   4.161   2.640   3.854  0.2516 -0.2287  0.3045
   69MOL   C32826304   4.138   2.531   3.965 -0.4815 -0.5510  0.3245
   69MOL   C32926305   4.145   2.393   3.906  0.4339  0.0748 -0.1714
   69MOL   C33026306   4.289   2.341   3.865 -0.8417  0.1179  0.9185
   69MOL   C33126307   3.990   2.562   4.005 -0.5317  0.6133  0.0240
   69MOL   H33226308   3.892   2.745   3.951 -0.6927 -3.0311 -0.9537
   69MOL   H33326309   4.175   2.819   3.962 -2.3552  1.1050  2.8750
   69MOL   H33426310   4.061   2.834   3.825 -0.6251 -1.5523 -1.1260
   69MOL   H33526311   4.107   2.609   3.764 -2.4479 -0.3076  1.8909
   69MOL   H33626312   4.267   2.652   3.836  0.1612 -0.8191 -0.6553
   69MOL   H33726313   4.204   2.550   4.050  1.7064  0.4296 -1.5674
   69MOL   H33826314   4.107   2.316   3.973 -1.1400  1.0266  0.0577
   69MOL   H33926315   4.082   2.398   3.817  0.3996  0.6371 -0.1185
   69MOL   H34026316   4.338   2.411   3.797  3.5385 -2.0591  1.7000
   69MOL   H34126317   4.353   2.349   3.953  1.6739 -1.5565 -0.6813
   69MOL   H34226318   3.971   2.532   4.108 -0.1816  1.4953  0.3517
   69MOL   H34326319   3.913   2.509   3.950 -0.4953 -0.3563  0.9076
   69MOL   C34426320   4.315   2.199   3.817 -0.7064 -0.6298 -1.0440
   69MOL   C34526321   4.227   2.141   3.701 -0.1495  0.3405 -0.1814
   69MOL   C34626322   4.269   1.994   3.705 -0.1233  0.7264  0.6134
   69MOL   C34726323   4.293   1.952   3.851  0.5303  0.1311  0.0199
   69MOL   C34826324   4.384   1.835   3.868 -0.8694 -0.6865 -0.2402
   69MOL   C34926325   4.387   1.779   4.014  0.4779  0.2329  0.4377
   69MOL   C35026326   4.338   2.089   3.923 -0.9500 -0.6851  0.3146
   69MOL   H35126327   4.406   2.214   3.759  0.5599 -2.1804  0.5002
   69MOL   H35226328   4.236   2.184   3.601  0.5796 -1.5773 -0.9679
   69MOL   H35326329   4.123   2.148   3.730  0.3606 -1.1797  2.1380
   69MOL   H35426330   4.203   1.925   3.651 -0.1352 -0.0975  1.6669
   69MOL   H35526331   4.366   2.000   3.657 -0.4645  1.5088  0.0163
   69MOL   H35626332   4.207   1.922   3.911  0.8319 -0.1396  0.3220
   69MOL   H35726333   4.347   1.762   3.796 -0.3445 -1.3751  0.1797
   69MOL   H35826334   4.488   1.854   3.841 -0.7913 -0.4005  0.2603
   69MOL   H35926335   4.290   1.744   4.051 -0.0535 -0.5093 -1.6457
   69MOL   H36026336   4.421   1.859   4.081  3.1253  0.0340 -0.6161
   69MOL   H36126337   4.268   2.121   4.000  0.3562  0.7565  0.9367
   69MOL   H36226338   4.436   2.078   3.969 -0.3442 -0.5867 -0.9156
   69MOL   C36326339   4.485   1.665   4.042  0.9544 -0.0722 -0.3394
   69MOL   C36426340   4.472   1.608   4.184  0.3964 -0.1248 -0.1654
   69MOL   C36526341   4.604   1.539   4.214  0.8159 -0.1402 -0.8153
   69MOL   C36626342   4.699   1.580   4.106 -0.5195  0.0804  0.2822
   69MOL   C36726343   4.846   1.597   4.154 -0.1565 -0.0678  0.0292
   69MOL   C36826344   4.933   1.618   4.026  0.6180 -0.0231  0.2057
   69MOL   C36926345   4.633   1.703   4.037 -0.5024 -0.2618  0.5043
   69MOL   H37026346   4.455   1.580   3.980  0.2500 -0.9977  1.2369
   69MOL   H37126347   4.462   1.689   4.257  2.0262 -2.2349  2.5119
   69MOL   H37226348   4.383   1.546   4.199 -0.9225  1.7379 -0.0725
   69MOL   H37326349   4.645   1.576   4.308  0.8661 -0.1738 -0.8238
   69MOL   H37426350   4.600   1.430   4.215  0.1386 -0.1137 -0.8560
   69MOL   H37526351   4.694   1.494   4.040 -1.6409 -0.7827  1.4605
   69MOL   H37626352   4.874   1.663   4.236  0.7369 -1.9274  1.2631
   69MOL   H37726353   4.877   1.501   4.195 -0.1293 -0.5069 -0.9990
   69MOL   H37826354   4.914   1.714   3.977 -2.0292 -1.3296 -1.4595
   69MOL   H37926355   4.928   1.538   3.952  0.9071  1.2964 -1.2673
   69MOL   H38026356   4.645   1.786   4.106 -1.4310  0.7107 -0.4782
   69MOL   H38126357   4.669   1.732   3.938 -0.7023  0.7072  0.7096
   69MOL   H38226358   5.037   1.610   4.057  1.1114  2.5976 -0.6025
   70MOL     C126359   4.418   2.140   6.696  0.3986 -0.3214 -0.8872
   70MOL     C226360   4.274   2.169   6.657  0.7731 -0.6190  0.2218
   70MOL     C326361   4.199   2.240   6.769  0.1857 -0.0879 -0.4598
   70MOL     C426362   4.302   2.248   6.880  0.4644  0.7419 -0.2177
   70MOL     C526363   4.243   2.219   7.019 -0.0760  0.3825  0.1361
   70MOL     C626364   4.151   2.330   7.074  0.0918  0.6634  0.5108
   70MOL     C726365   4.418   2.149   6.852  0.6813 -0.0229  0.1632
   70MOL     H826366   4.453   2.044   6.657 -0.2330  0.0249 -2.3143
   70MOL     H926367   4.233   2.068   6.652  0.1538 -0.3639  0.1367
   70MOL    H1026368   4.268   2.223   6.562  0.2351  0.6097  0.9540
   70MOL    H1126369   4.172   2.340   6.733  4.2593  1.6613  0.9984
   70MOL    H1226370   4.109   2.185   6.796 -2.7430  3.7828 -1.8609
   70MOL    H1326371   4.349   2.345   6.865  1.0606  0.2732 -1.4484
   70MOL    H1426372   4.184   2.128   7.018  1.4166 -0.6118  0.0243
   70MOL    H1526373   4.316   2.201   7.098 -1.8667  1.9384  2.2111
   70MOL    H1626374   4.210   2.421   7.090  1.5350 -0.0635 -0.5599
   70MOL    H1726375   4.087   2.356   6.990 -0.7712 -0.5272  0.7933
   70MOL    H1826376   4.511   2.192   6.890  0.2280 -0.6064  1.9820
   70MOL    H1926377   4.408   2.057   6.910  0.5265  0.0548  0.2583
   70MOL    H2026378   4.480   2.215   6.647 -1.5876  0.7126 -1.8464
   70MOL    C2126379   4.057   2.285   7.189 -1.0302  0.5076 -0.0528
   70MOL    C2226380   4.131   2.242   7.319 -0.2902  0.0588 -0.7405
   70MOL    C2326381   4.055   2.295   7.435  0.4819 -0.2838 -0.9959
   70MOL    C2426382   3.924   2.347   7.388 -0.1729  0.5121  0.3198
   70MOL    C2526383   3.865   2.465   7.473  0.3591  0.3472  0.4547
   70MOL    C2626384   3.734   2.515   7.418  0.3351  0.1743  0.1894
   70MOL    C2726385   3.959   2.384   7.238  0.2388 -0.1100 -0.4042
   70MOL    H2826386   3.999   2.197   7.162 -0.1993  0.6630 -2.4433
   70MOL    H2926387   4.139   2.133   7.322 -2.3957 -0.0675  2.8641
   70MOL    H3026388   4.230   2.286   7.327 -0.2229 -0.5059  2.0951
   70MOL    H3126389   4.037   2.219   7.511  2.0920  1.0464  0.7846
   70MOL    H3226390   4.104   2.376   7.490  0.4854 -0.5228 -0.6449
   70MOL    H3326391   3.861   2.259   7.387 -1.6674  1.5598  0.7287
   70MOL    H3426392   3.935   2.548   7.490  1.1625  0.3859 -2.7532
   70MOL    H3526393   3.837   2.432   7.573 -0.6237 -0.8866 -0.2173
   70MOL    H3626394   3.670   2.549   7.499 -0.9970  1.0325 -1.1795
   70MOL    H3726395   3.687   2.426   7.378 -0.1309  0.1368  0.8264
   70MOL    H3826396   3.871   2.386   7.174  1.7701  1.0145 -2.5153
   70MOL    H3926397   4.014   2.478   7.238 -2.4846  1.5992  2.7581
   70MOL    C4026398   3.751   2.638   7.321 -0.7273  0.9917  0.2344
   70MOL    C4126399   3.646   2.634   7.202 -0.4339  0.0073 -0.0712
   70MOL    C4226400   3.655   2.778   7.142 -0.0659 -0.1732 -0.7205
   70MOL    C4326401   3.692   2.874   7.258 -0.4295  0.3272  0.8066
   70MOL    C4426402   3.812   2.960   7.220  0.5692  0.5596 -0.1182
   70MOL    C4526403   3.788   3.055   7.108  0.3036  0.0944 -0.2292
   70MOL    C4626404   3.726   2.782   7.377  0.3575 -0.4106  0.6212
   70MOL    H4726405   3.846   2.637   7.269 -1.2595  3.0870 -0.8527
   70MOL    H4826406   3.547   2.614   7.242 -0.4760 -0.1493 -0.2496
   70MOL    H4926407   3.673   2.551   7.135 -1.9072  0.7991 -1.6963
   70MOL    H5026408   3.725   2.772   7.058  0.9675 -0.2012  0.1431
   70MOL    H5126409   3.563   2.804   7.089 -1.7806  0.3376  2.4103
   70MOL    H5226410   3.610   2.938   7.288 -0.9830 -0.2488  0.5363
   70MOL    H5326411   3.846   3.020   7.305 -0.5468 -1.8853  2.1126
   70MOL    H5426412   3.892   2.889   7.197 -2.1253 -2.4353 -0.6849
   70MOL    H5526413   3.689   3.093   7.134 -0.3159  1.2820 -3.9664
   70MOL    H5626414   3.776   2.991   7.020  1.1388  0.0473 -0.3107
   70MOL    H5726415   3.814   2.803   7.438  1.2047 -0.0965 -0.6927
   70MOL    H5826416   3.639   2.791   7.442  1.2130  1.3439  1.5479
   70MOL    C5926417   3.894   3.168   7.098 -0.3072 -0.4803 -0.0420
   70MOL    C6026418   4.043   3.135   7.131 -0.2051  0.2823 -0.1534
   70MOL    C6126419   4.129   3.236   7.061  0.1957 -0.1461  0.4138
   70MOL    C6226420   4.052   3.262   6.931  0.0840 -0.0017  0.3859
   70MOL    C6326421   4.088   3.407   6.885 -0.2734  1.1900  1.0455
   70MOL    C6426422   4.083   3.420   6.735 -0.2738 -0.0731  0.1090
   70MOL    C6526423   3.901   3.247   6.967  0.1305 -0.3700  0.0487
   70MOL    H6626424   3.859   3.241   7.172  2.0089  1.2318 -0.5662
   70MOL    H6726425   4.056   3.134   7.239  0.4775 -0.2484 -0.2394
   70MOL    H6826426   4.054   3.031   7.100  0.7670 -0.6459  3.1144
   70MOL    H6926427   4.126   3.318   7.133  0.2744  0.0626  0.1831
   70MOL    H7026428   4.230   3.200   7.043  0.1256 -0.2846  0.2963
   70MOL    H7126429   4.076   3.190   6.852 -0.9333  0.7781 -0.6586
   70MOL    H7226430   4.194   3.424   6.906 -0.4062  1.3934  1.5368
   70MOL    H7326431   4.049   3.486   6.948 -2.3096  0.4564  0.7461
   70MOL    H7426432   4.137   3.333   6.697  0.2488  0.0087  0.6475
   70MOL    H7526433   3.982   3.400   6.699 -0.3976 -0.9249  0.9046
   70MOL    H7626434   3.856   3.346   6.975  1.6309  0.5609 -2.3358
   70MOL    H7726435   3.863   3.198   6.877 -1.2210  1.9926 -0.7176
   70MOL    C7826436   4.140   3.549   6.672  0.1458  0.6335 -0.3632
   70MOL    C7926437   4.137   3.554   6.516 -0.0290 -0.7056  0.3855
   70MOL    C8026438   4.114   3.705   6.484  0.2490 -0.2440  0.3119
   70MOL    C8126439   4.097   3.784   6.607 -0.6119  0.0264 -0.1265
   70MOL    C8226440   3.991   3.902   6.606 -0.0960  0.7998  0.1436
   70MOL    C8326441   4.033   4.019   6.516  0.0165  0.0042  0.3081
   70MOL    C8426442   4.072   3.678   6.717 -0.5142  0.2159 -0.0325
   70MOL    H8526443   4.247   3.554   6.690  0.4349 -2.5539 -0.8644
   70MOL    H8626444   4.234   3.530   6.472  0.1608 -0.4426  0.6558
   70MOL    H8726445   4.055   3.495   6.475  0.3300 -1.3546  0.5950
   70MOL    H8826446   4.198   3.748   6.430 -0.0917 -1.1655 -1.0007
   70MOL    H8926447   4.022   3.708   6.426  0.6954  2.3301 -0.3241
   70MOL    H9026448   4.196   3.829   6.619 -0.7926  0.6625 -0.9941
   70MOL    H9126449   3.994   3.934   6.710  0.0847 -0.0041  0.3974
   70MOL    H9226450   3.888   3.875   6.586 -0.1249 -0.4969  1.9201
   70MOL    H9326451   4.028   3.965   6.421  0.1127  2.2980 -1.0334
   70MOL    H9426452   4.132   4.049   6.549 -1.0235  1.5927  2.0878
   70MOL    H9526453   3.965   3.659   6.728 -0.3352 -2.5561 -2.3267
   70MOL    H9626454   4.112   3.711   6.813 -1.2185 -1.0634  0.7070
   70MOL    C9726455   3.936   4.140   6.522  0.1015 -0.8834 -0.1753
   70MOL    C9826456   3.972   4.245   6.420 -0.1955  0.1367 -0.1055
   70MOL    C9926457   3.881   4.360   6.456  0.2457 -0.3879  0.5003
   70MOL   C10026458   3.838   4.336   6.607  0.5708 -0.0091 -0.1057
   70MOL   C10126459   3.843   4.469   6.686  0.1558  0.0995 -0.2416
   70MOL   C10226460   3.822   4.434   6.843 -0.2977  0.3326  0.2767
   70MOL   C10326461   3.927   4.219   6.645  0.1748 -0.1519  0.1647
   70MOL   H10426462   3.837   4.101   6.497  0.4540 -1.0449 -1.3363
   70MOL   H10526463   4.077   4.267   6.437 -0.5891  0.8304  1.5427
   70MOL   H10626464   3.965   4.216   6.315  0.2776  2.6464 -0.8858
   70MOL   H10726465   3.939   4.450   6.435 -0.0724 -0.7938 -2.3304
   70MOL   H10826466   3.791   4.354   6.394 -0.0871 -0.8043  1.0249
   70MOL   H10926467   3.734   4.303   6.611  0.2996  0.7598 -0.6323
   70MOL   H11026468   3.935   4.527   6.680 -0.9538  1.8441 -0.8284
   70MOL   H11126469   3.765   4.535   6.649  0.0737 -0.3536 -0.8957
   70MOL   H11226470   3.732   4.374   6.831  0.1252 -0.3684  0.5949
   70MOL   H11326471   3.891   4.361   6.885 -1.3989 -2.0175 -1.8322
   70MOL   H11426472   4.026   4.247   6.683  0.0136  2.6364 -1.2987
   70MOL   H11526473   3.889   4.158   6.726  0.1776 -2.5088 -1.5701
   70MOL   C11626474   3.789   4.559   6.932  0.1982 -0.1176  0.3934
   70MOL   C11726475   3.664   4.639   6.894  0.2680 -0.2045 -0.1080
   70MOL   C11826476   3.596   4.708   7.023  0.1475  0.1886  0.3263
   70MOL   C11926477   3.685   4.652   7.142 -0.0778 -0.3612  0.5974
   70MOL   C12026478   3.611   4.604   7.265 -0.2828  0.2796 -0.6814
   70MOL   C12126479   3.495   4.698   7.294  0.7382 -0.6363  0.5553
   70MOL   C12226480   3.762   4.528   7.078  0.0449  0.0055 -0.3713
   70MOL   H12326481   3.871   4.630   6.922 -0.2400  0.1904 -1.2964
   70MOL   H12426482   3.592   4.579   6.839  1.3905 -0.7217 -1.0343
   70MOL   H12526483   3.682   4.729   6.835  2.0364 -0.9172 -0.6978
   70MOL   H12626484   3.493   4.675   7.033 -0.4015  1.7048 -0.1810
   70MOL   H12726485   3.603   4.817   7.020  0.5838  0.1388 -1.0729
   70MOL   H12826486   3.748   4.732   7.180  2.4048 -1.1125 -1.7824
   70MOL   H12926487   3.690   4.598   7.340 -0.8966  1.4735  0.0833
   70MOL   H13026488   3.569   4.505   7.249  1.6294 -0.5763 -0.4721
   70MOL   H13126489   3.398   4.661   7.260  0.3134  0.2553  0.7836
   70MOL   H13226490   3.517   4.791   7.242 -1.1752 -0.9650 -0.8923
   70MOL   H13326491   3.848   4.496   7.136 -1.0691 -2.8724 -0.2113
   70MOL   H13426492   3.706   4.434   7.080  1.4808 -0.8487  0.4603
   70MOL   C13526493   3.483   4.729   7.444 -0.0780 -0.3082 -0.2071
   70MOL   C13626494   3.386   4.838   7.495  0.5452 -0.0179 -0.4962
   70MOL   C13726495   3.379   4.819   0.004 -0.5529 -0.3389 -0.3959
   70MOL   C13826496   3.370   4.668   0.005 -0.1057  0.0110  0.0022
   70MOL   C13926497   3.414   4.606   0.135 -0.0846  0.1401 -0.1512
   70MOL   C14026498   3.363   4.464   0.158 -0.5506 -0.3495 -0.0502
   70MOL   C14126499   3.447   4.604   7.526 -0.2705 -0.7606  0.7104
   70MOL   H14226500   3.579   4.769   7.477  0.6931 -2.9643  0.8413
   70MOL   H14326501   3.419   4.937   7.462 -1.4382  0.4914 -1.0007
   70MOL   H14426502   3.291   4.817   7.445 -0.2874  0.8820  0.6854
   70MOL   H14526503   3.474   4.854   0.046  0.8269 -2.2239 -1.8549
   70MOL   H14626504   3.283   4.862   0.033 -0.1689  0.1658  0.1432
   70MOL   H14726505   3.266   4.639   7.638  0.1958 -2.0445  1.7310
   70MOL   H14826506   3.364   4.661   0.215  1.2491 -2.6775  2.7371
   70MOL   H14926507   3.521   4.620   0.148 -0.0656 -0.4433  0.3611
   70MOL   H15026508   3.272   4.437   0.104 -0.7794  3.6019 -1.8734
   70MOL   H15126509   3.436   4.395   0.116 -0.1514  0.4787 -0.7397
   70MOL   H15226510   3.379   4.534   7.477 -0.3363  0.2574 -0.6988
   70MOL   H15326511   3.536   4.544   7.542 -0.4865 -1.2587  0.0607
   70MOL   C15426512   3.356   4.434   0.316 -0.3268 -0.1318  0.3373
   70MOL   C15526513   3.491   4.458   0.389  0.1819  0.0642 -1.0191
   70MOL   C15626514   3.478   4.376   0.520  0.3779 -0.0262  0.3912
   70MOL   C15726515   3.351   4.291   0.505  0.0656 -0.1113  0.0202
   70MOL   C15826516   3.361   4.135   0.542 -0.4239  0.2647  0.1923
   70MOL   C15926517   3.368   4.091   0.693 -0.1006  0.2266 -0.6688
   70MOL   C16026518   3.310   4.302   0.358  0.3557 -0.3174 -0.1735
   70MOL   H16126519   3.287   4.505   0.362  0.5813  1.2935 -0.4639
   70MOL   H16226520   3.576   4.416   0.335  1.6563  0.6928  0.7568
   70MOL   H16326521   3.527   4.559   0.407  0.6245 -0.4066  0.8948
   70MOL   H16426522   3.569   4.316   0.516  0.5807  0.2767  0.4526
   70MOL   H16526523   3.488   4.433   0.612  2.7130  0.5168 -0.1759
   70MOL   H16626524   3.271   4.339   0.561 -3.7548 -2.5889 -2.9902
   70MOL   H16726525   3.441   4.098   0.478 -0.6846  0.9258 -0.5291
   70MOL   H16826526   3.271   4.091   0.499 -0.2434 -0.2781  0.3685
   70MOL   H16926527   3.438   4.159   0.743 -0.9924 -0.3574  1.4215
   70MOL   H17026528   3.275   4.113   0.745  0.2170 -0.6979  0.3135
   70MOL   H17126529   3.201   4.296   0.352  0.2074  1.7245  0.2313
   70MOL   H17226530   3.348   4.219   0.298 -3.6737 -0.6901 -2.3854
   70MOL   C17326531   3.392   3.938   0.709  0.7475  0.0546 -0.3217
   70MOL   C17426532   3.533   3.903   0.683  0.1772 -0.5087  0.0355
   70MOL   C17526533   3.557   3.778   0.776 -0.1477  0.0636  0.2809
   70MOL   C17626534   3.435   3.753   0.860 -0.1351  0.2291  0.0845
   70MOL   C17726535   3.449   3.697   1.000  0.5976  0.2347 -0.6444
   70MOL   C17826536   3.315   3.656   1.059  0.0910 -0.2714 -0.1549
   70MOL   C17926537   3.359   3.894   0.847  0.0475  0.2416  0.1247
   70MOL   H18026538   3.322   3.886   0.645  0.9133  0.6325 -0.9752
   70MOL   H18126539   3.600   3.988   0.698  0.7459 -0.8524 -0.5000
   70MOL   H18226540   3.547   3.874   0.579  1.0493  0.2287 -0.0636
   70MOL   H18326541   3.587   3.691   0.719  1.2298  0.4431  0.3862
   70MOL   H18426542   3.629   3.812   0.852 -0.9640 -2.6789  2.3464
   70MOL   H18526543   3.374   3.687   0.799  0.6135 -0.1175 -0.2930
   70MOL   H18626544   3.493   3.775   1.062 -0.8949  0.0160  0.7356
   70MOL   H18726545   3.526   3.622   0.984  0.5111 -0.1471  0.6406
   70MOL   H18826546   3.263   3.587   0.992 -1.0631 -1.6147  2.0692
   70MOL   H18926547   3.255   3.747   1.068  1.4671  0.5047  1.6434
   70MOL   H19026548   3.407   3.956   0.922  0.7203  2.3339 -1.9735
   70MOL   H19126549   3.250   3.887   0.843 -0.1543  3.0502 -0.2446
   70MOL   C19226550   3.339   3.584   1.197 -0.1806  0.0426 -0.1879
   70MOL   C19326551   3.216   3.515   1.254  0.1819 -0.3235  0.7303
   70MOL   C19426552   3.250   3.502   1.406  0.7857 -0.2933  0.0950
   70MOL   C19526553   3.345   3.610   1.441 -0.2250  0.1044  0.3547
   70MOL   C19626554   3.472   3.563   1.524  0.2028 -0.3266 -0.4871
   70MOL   C19726555   3.445   3.516   1.661 -0.6247  0.6228 -0.3580
   70MOL   C19826556   3.388   3.673   1.307 -0.5317  0.0156 -0.2458
   70MOL   H19926557   3.419   3.510   1.186 -0.8084 -0.5091 -1.1855
   70MOL   H20026558   3.121   3.567   1.243 -1.0464 -2.3217  1.5157
   70MOL   H20126559   3.197   3.419   1.205  0.9276  0.2859 -0.7749
   70MOL   H20226560   3.309   3.413   1.429  1.4934  0.4374  1.1453
   70MOL   H20326561   3.173   3.492   1.482 -0.1644 -0.8739 -0.9242
   70MOL   H20426562   3.292   3.686   1.498 -1.6697  0.4279 -1.3856
   70MOL   H20526563   3.547   3.642   1.528  0.9885 -1.1414  1.3297
   70MOL   H20626564   3.518   3.480   1.470 -0.6495 -0.4383 -1.0527
   70MOL   H20726565   3.370   3.438   1.647  0.1087  0.3768 -3.2916
   70MOL   H20826566   3.398   3.593   1.721  0.0393 -0.4230  1.5535
   70MOL   H20926567   3.495   3.689   1.296 -0.7418  1.7471  0.1379
   70MOL   H21026568   3.348   3.773   1.291  0.9552  0.6008 -0.3637
   70MOL   C21126569   3.561   3.460   1.740 -0.2687  0.3333  0.0149
   70MOL   C21226570   3.522   3.378   1.863  0.5485  0.3384  0.6030
   70MOL   C21326571   3.623   3.411   1.980 -0.3935 -0.1939  0.5340
   70MOL   C21426572   3.737   3.496   1.908 -0.5199  0.7647 -0.1568
   70MOL   C21526573   3.824   3.585   1.999  0.5458 -0.1536 -0.8476
   70MOL   C21626574   3.940   3.509   2.073 -0.0800 -0.4379  0.3297
   70MOL   C21726575   3.662   3.564   1.792  0.0196  0.4221 -0.3519
   70MOL   H21826576   3.615   3.388   1.680 -2.2537  0.3716 -1.8644
   70MOL   H21926577   3.422   3.413   1.887  0.3261  0.7180 -0.8356
   70MOL   H22026578   3.513   3.271   1.840  0.7548  0.6150 -0.8116
   70MOL   H22126579   3.575   3.472   2.056  1.2061  1.5636  0.1648
   70MOL   H22226580   3.660   3.316   2.018 -0.0487  0.1201  0.9853
   70MOL   H22326581   3.813   3.428   1.870 -1.0010 -1.2322  2.3549
   70MOL   H22426582   3.752   3.634   2.064  0.9569  1.2479 -1.4373
   70MOL   H22526583   3.864   3.660   1.931 -0.3008  1.4829  0.4526
   70MOL   H22626584   3.904   3.424   2.130  0.0257 -0.7715 -0.1011
   70MOL   H22726585   3.993   3.458   1.992 -1.2151 -0.3758 -0.4636
   70MOL   H22826586   3.723   3.599   1.709  1.5389 -0.5618  0.3463
   70MOL   H22926587   3.602   3.651   1.820  0.2351  1.3272 -2.5900
   70MOL   C23026588   4.035   3.596   2.156  0.4298 -0.2760  0.7364
   70MOL   C23126589   4.113   3.699   2.071 -0.5400  0.7597  0.0678
   70MOL   C23226590   4.258   3.662   2.079  0.3078 -0.4583 -0.3221
   70MOL   C23326591   4.254   3.517   2.117 -0.2450  0.0574 -0.3134
   70MOL   C23426592   4.388   3.467   2.170 -1.1576  0.4700 -0.2211
   70MOL   C23526593   4.398   3.309   2.172  0.0571 -0.1859  0.7308
   70MOL   C23626594   4.145   3.509   2.218 -0.3976 -0.0688 -0.5395
   70MOL   H23726595   3.980   3.641   2.238 -2.5355 -1.3269 -0.6130
   70MOL   H23826596   4.094   3.695   1.964 -0.5612 -1.1220  0.1324
   70MOL   H23926597   4.094   3.803   2.097 -0.3196  1.0604 -0.9554
   70MOL   H24026598   4.292   3.717   2.167 -2.5656  1.5098 -0.4012
   70MOL   H24126599   4.329   3.704   2.008 -0.2665  0.0014 -0.6247
   70MOL   H24226600   4.226   3.465   2.025 -1.8271 -1.0877  0.8046
   70MOL   H24326601   4.407   3.502   2.271  0.9331  1.5542 -0.9629
   70MOL   H24426602   4.462   3.502   2.098 -0.2435 -1.3644 -0.1785
   70MOL   H24526603   4.370   3.280   2.273 -2.0320  0.8521  0.4649
   70MOL   H24626604   4.323   3.264   2.107  0.5843  1.2268 -0.9059
   70MOL   H24726605   4.179   3.553   2.311  0.4684 -0.8574 -0.4755
   70MOL   H24826606   4.111   3.406   2.233  1.3015 -0.3403  1.6287
   70MOL   C24926607   4.542   3.260   2.143 -0.1093  0.1406 -0.4895
   70MOL   C25026608   4.547   3.106   2.164 -0.1076 -0.9441 -0.5092
   70MOL   C25126609   4.633   3.051   2.056 -0.8647  0.6219 -0.1812
   70MOL   C25226610   4.602   3.135   1.938 -0.0378 -0.7345 -0.3973
   70MOL   C25326611   4.715   3.138   1.828 -0.2018 -0.5097  0.4178
   70MOL   C25426612   4.666   3.210   1.702  0.0008  0.0325  0.3201
   70MOL   C25526613   4.597   3.279   1.999 -0.1191  0.0550 -0.0332
   70MOL   H25626614   4.607   3.319   2.207  1.6941 -0.7416 -1.4912
   70MOL   H25726615   4.584   3.085   2.264 -1.6087 -2.0516 -0.1733
   70MOL   H25826616   4.446   3.067   2.165 -0.3497 -0.3274 -0.3485
   70MOL   H25926617   4.591   2.954   2.032  0.2859  0.3464 -1.1651
   70MOL   H26026618   4.741   3.051   2.074 -0.9644  1.3386  0.4155
   70MOL   H26126619   4.507   3.097   1.901 -0.7576 -0.0518  0.7198
   70MOL   H26226620   4.748   3.037   1.803 -0.5257 -0.6497  0.5423
   70MOL   H26326621   4.794   3.197   1.875 -1.9921  2.7029 -0.4619
   70MOL   H26426622   4.642   3.315   1.720 -0.6810  0.2228 -1.5931
   70MOL   H26526623   4.565   3.181   1.671 -0.3199  1.7621 -0.3120
   70MOL   H26626624   4.531   3.346   1.943  2.2468  1.7928 -0.8095
   70MOL   H26726625   4.695   3.325   2.008 -1.3429  2.2822  2.8418
   70MOL   C26826626   4.754   3.187   1.575 -0.1510  0.8582  0.6733
   70MOL   C26926627   4.896   3.245   1.582 -0.8750  0.4100  0.9758
   70MOL   C27026628   4.945   3.254   1.436  0.2636  0.6183  0.0520
   70MOL   C27126629   4.815   3.241   1.351  0.0681 -0.1737 -0.1124
   70MOL   C27226630   4.819   3.352   1.235 -0.0790  0.8903 -0.2724
   70MOL   C27326631   4.934   3.329   1.136 -1.0660 -0.3222 -0.3303
   70MOL   C27426632   4.695   3.239   1.454  0.7653 -0.4452  0.0699
   70MOL   H27526633   4.763   3.078   1.570  0.2871  0.8945  0.6413
   70MOL   H27626634   4.890   3.342   1.629  1.8872 -0.0209  2.3211
   70MOL   H27726635   4.965   3.185   1.642  0.3609  0.4804 -0.3213
   70MOL   H27826636   4.992   3.352   1.424  1.0672  0.0176 -1.7836
   70MOL   H27926637   5.017   3.175   1.417  0.7406  0.8006  1.0333
   70MOL   H28026638   4.817   3.144   1.301 -2.5625 -0.7090  0.7511
   70MOL   H28126639   4.831   3.452   1.275 -1.7945  1.1351 -0.3421
   70MOL   H28226640   4.721   3.345   1.188 -0.3143  1.2738  0.1572
   70MOL   H28326641   5.032   3.370   1.160 -0.3949 -2.2526  0.2803
   70MOL   H28426642   4.952   3.223   1.116  1.7601 -0.3634  2.0675
   70MOL   H28526643   4.670   3.344   1.468  0.0775 -0.3349 -1.8069
   70MOL   H28626644   4.604   3.194   1.415 -0.4357  0.8032  1.4281
   70MOL   C28726645   4.908   3.402   1.002  0.1560 -0.6102 -0.2142
   70MOL   C28826646   5.037   3.413   0.912 -0.1935  0.3757 -0.6610
   70MOL   C28926647   5.021   3.317   0.791  0.4952 -0.0951  0.0453
   70MOL   C29026648   4.871   3.325   0.771 -0.2555  0.5728 -0.5914
   70MOL   C29126649   4.814   3.216   0.688 -0.0885  0.1667 -0.3025
   70MOL   C29226650   4.866   3.210   0.547  0.4681  0.2303  0.4930
   70MOL   C29326651   4.804   3.335   0.914 -0.1103  0.5423  0.4685
   70MOL   H29426652   4.867   3.501   1.022  0.3979 -0.5533  0.0080
   70MOL   H29526653   5.027   3.513   0.870  3.8456  0.7871 -0.7948
   70MOL   H29626654   5.135   3.405   0.958  0.1057 -0.3130 -1.3998
   70MOL   H29726655   5.059   3.217   0.810  0.1074 -0.4760 -1.1082
   70MOL   H29826656   5.076   3.343   0.701 -0.5865  1.3922 -0.2074
   70MOL   H29926657   4.854   3.419   0.719 -1.0704  0.7469 -0.0412
   70MOL   H30026658   4.707   3.234   0.685 -0.2893 -0.5853  1.8685
   70MOL   H30126659   4.822   3.132   0.757 -0.3622  2.8482  3.1133
   70MOL   H30226660   4.973   3.189   0.542  0.3217 -1.0739  2.2349
   70MOL   H30326661   4.857   3.309   0.504 -0.4775 -0.0316  0.0732
   70MOL   H30426662   4.774   3.236   0.950 -1.4081  1.1599  1.1154
   70MOL   H30526663   4.721   3.402   0.894  0.5589  1.6176  1.2004
   70MOL   C30626664   4.788   3.103   0.461  0.7931 -0.6815 -0.0726
   70MOL   C30726665   4.809   3.107   0.311 -0.3915  0.0148 -0.3116
   70MOL   C30826666   4.845   2.966   0.274  0.1489  0.2968 -0.3975
   70MOL   C30926667   4.775   2.879   0.385 -0.1448  0.1198  0.0789
   70MOL   C31026668   4.812   2.728   0.394 -0.7273 -0.9526  0.4752
   70MOL   C31126669   4.781   2.661   0.527 -0.1395  0.4481  0.0266
   70MOL   C31226670   4.829   2.959   0.503 -0.2562 -0.4204  1.2230
   70MOL   H31326671   4.684   3.125   0.483  0.2356 -1.8315 -1.5417
   70MOL   H31426672   4.717   3.144   0.266 -0.3468 -0.2031 -0.5816
   70MOL   H31526673   4.896   3.170   0.290  1.7248 -3.2018 -1.6434
   70MOL   H31626674   4.798   2.949   0.177  0.4741  1.9384 -0.8472
   70MOL   H31726675   4.953   2.950   0.264  0.2862 -0.0112  1.4172
   70MOL   H31826676   4.667   2.891   0.376 -0.1606  0.1480  0.3213
   70MOL   H31926677   4.771   2.663   0.316  0.1877 -0.1455 -0.6811
   70MOL   H32026678   4.920   2.721   0.378 -0.7024 -0.0678  0.2380
   70MOL   H32126679   4.687   2.703   0.562 -2.0618 -0.5719 -3.7118
   70MOL   H32226680   4.840   2.698   0.611 -1.3991  1.4866  0.4566
   70MOL   H32326681   4.936   2.942   0.510  0.1865  0.4377 -2.4359
   70MOL   H32426682   4.791   2.918   0.597 -1.5744 -0.1534  0.8192
   70MOL   C32526683   4.779   2.505   0.540  0.5103 -0.1859  0.3940
   70MOL   C32626684   4.788   2.453   0.681  0.3861  0.3794 -0.2187
   70MOL   C32726685   4.744   2.308   0.660  0.0993 -0.8173 -1.3895
   70MOL   C32826686   4.628   2.308   0.552  0.0775 -0.6463  0.0127
   70MOL   C32926687   4.644   2.184   0.464  0.3678  0.1189  1.0874
   70MOL   C33026688   4.518   2.158   0.384  0.4931 -0.1261  0.6381
   70MOL   C33126689   4.656   2.447   0.483 -0.5019 -0.2012  0.1356
   70MOL   H33226690   4.861   2.458   0.487  0.3241 -0.0005 -0.0659
   70MOL   H33326691   4.719   2.503   0.749 -0.7390  0.7223 -1.6008
   70MOL   H33426692   4.889   2.459   0.722  1.3031 -1.5135 -2.0876
   70MOL   H33526693   4.833   2.255   0.625  3.1995  3.7526 -0.9179
   70MOL   H33626694   4.709   2.249   0.745  1.9388 -1.4170 -1.0233
   70MOL   H33726695   4.536   2.302   0.610  0.7760 -2.3430  0.9590
   70MOL   H33826696   4.738   2.184   0.408 -1.0805 -0.1750 -1.4515
   70MOL   H33926697   4.647   2.093   0.525  2.0649  0.3660  1.3910
   70MOL   H34026698   4.521   2.068   0.322  1.9592 -0.6365  1.4459
   70MOL   H34126699   4.433   2.150   0.452  0.6068 -1.1305  0.6671
   70MOL   H34226700   4.570   2.510   0.504 -1.1356 -1.2857  0.8766
   70MOL   H34326701   4.668   2.445   0.375  0.2383 -0.3723  0.2120
   70MOL   C34426702   4.491   2.252   0.261 -0.1862 -0.4303 -0.0448
   70MOL   C34526703   4.368   2.214   0.175  0.0084  0.2610  0.2366
   70MOL   C34626704   4.409   2.261   0.029 -0.1339  0.2181 -0.0734
   70MOL   C34726705   4.560   2.240   0.022 -0.6601  0.2382 -0.0431
   70MOL   C34826706   4.621   2.343   7.577  0.0793  0.5469 -0.0685
   70MOL   C34926707   4.582   2.322   7.431 -0.0898 -0.1369 -0.4635
   70MOL   C35026708   4.612   2.239   0.166  0.2947 -0.1735 -0.5042
   70MOL   H35126709   4.475   2.356   0.288 -0.6267 -1.0527  2.2332
   70MOL   H35226710   4.278   2.270   0.198 -0.2440 -0.1006  0.1274
   70MOL   H35326711   4.351   2.107   0.186 -1.8831  0.6493  1.2120
   70MOL   H35426712   4.341   2.218   7.603 -1.4544 -1.2623  1.9342
   70MOL   H35526713   4.396   2.368   0.042  0.3693  0.1406  1.2112
   70MOL   H35626714   4.581   2.142   7.626 -1.9279  0.2488 -0.7452
   70MOL   H35726715   4.589   2.442   7.609 -1.4978 -0.6213  2.1206
   70MOL   H35826716   4.729   2.327   7.579  0.2580  1.8255  1.7258
   70MOL   H35926717   4.477   2.351   7.425  0.2477  1.5732  1.4233
   70MOL   H36026718   4.599   2.220   7.397  0.2274 -0.2369 -0.0003
   70MOL   H36126719   4.657   2.143   0.192  0.9385 -0.0406 -1.1059
   70MOL   H36226720   4.673   2.329   0.178 -1.0310  0.2408  4.1065
   70MOL   C36326721   4.665   2.421   7.341  0.4927 -0.5265  0.2744
   70MOL   C36426722   4.624   2.420   7.199 -0.1451  0.6916  0.5479
   70MOL   C36526723   4.735   2.492   7.118  0.5636  0.6417 -0.0245
   70MOL   C36626724   4.865   2.462   7.205  0.3121 -0.6318  0.2620
   70MOL   C36726725   4.975   2.386   7.120  0.2126  0.3860 -0.0980
   70MOL   C36826726   5.047   2.480   7.023 -0.5115  0.4072  0.0971
   70MOL   C36926727   4.815   2.390   7.329 -0.2473 -0.1349  0.4174
   70MOL   H37026728   4.649   2.523   7.374 -0.3625  0.4687 -3.0164
   70MOL   H37126729   4.626   2.318   7.161  1.9610 -0.2170  3.0053
   70MOL   H37226730   4.524   2.461   7.186 -1.0703 -1.7324 -0.4059
   70MOL   H37326731   4.748   2.444   7.021 -0.3151 -0.7323  0.5257
   70MOL   H37426732   4.724   2.597   7.093 -0.2832  0.1583 -1.7508
   70MOL   H37526733   4.905   2.562   7.223  1.3014 -1.0354  0.3354
   70MOL   H37626734   5.049   2.352   7.192  0.3537  1.0599  0.0802
   70MOL   H37726735   4.936   2.299   7.067 -0.3904 -0.4376  1.6670
   70MOL   H37826736   5.139   2.427   6.997  0.0351  1.0874  0.6631
   70MOL   H37926737   5.081   2.572   7.071  2.0589 -0.2994 -0.2660
   70MOL   H38026738   4.826   2.284   7.307  1.0232  0.4913 -2.1692
   70MOL   H38126739   4.883   2.409   7.412 -0.8196 -0.9181  1.0750
   70MOL   H38226740   4.991   2.513   6.936  0.3746  0.5534 -0.4208
   71MOL     C126741   2.637   6.558   0.018  0.2522  1.0616 -0.4739
   71MOL     C226742   2.626   6.602   7.516 -0.0086 -0.2864  0.1563
   71MOL     C326743   2.663   6.740   7.519 -0.6118 -0.0724 -0.2300
   71MOL     C426744   2.772   6.751   7.630  0.5313  0.2468  0.3791
   71MOL     C526745   2.798   6.889   0.038  1.0668 -0.2743  0.5400
   71MOL     C626746   2.850   6.981   7.580  0.3037  0.4014  0.4257
   71MOL     C726747   2.733   6.649   0.095 -0.2354  0.5844 -0.4673
   71MOL     H826748   2.535   6.576   0.053  0.6871  1.2171  0.7085
   71MOL     H926749   2.528   6.576   7.477  0.0773 -0.8319  0.3039
   71MOL    H1026750   2.690   6.545   7.449 -0.1188 -0.9380  0.5981
   71MOL    H1126751   2.712   6.775   7.428  2.4549  0.1307  1.4135
   71MOL    H1226752   2.575   6.797   7.545  0.3816  2.1711 -1.6470
   71MOL    H1326753   2.867   6.712   7.594 -0.2640 -1.7364  0.3496
   71MOL    H1426754   2.712   6.927   0.092  0.2079  2.4218 -2.5675
   71MOL    H1526755   2.868   6.868   0.119  1.9089  1.4509  0.2769
   71MOL    H1626756   2.924   6.933   7.516 -0.2683 -1.3621  1.0431
   71MOL    H1726757   2.763   7.004   7.519  1.7442  2.2330 -1.0126
   71MOL    H1826758   2.821   6.602   0.137 -1.2634 -1.4053 -0.4759
   71MOL    H1926759   2.675   6.685   0.180 -0.6213 -1.7443  0.3097
   71MOL    H2026760   2.674   6.456   0.030  0.6654  0.9915 -2.2212
   71MOL    C2126761   2.923   7.103   7.632  0.7100 -0.1766  0.3704
   71MOL    C2226762   2.962   7.199   7.518  0.9048 -0.5973 -0.1096
   71MOL    C2326763   2.995   7.328   7.589 -0.1788 -0.7961  0.2124
   71MOL    C2426764   2.932   7.325   0.077  0.1817 -0.0727 -0.1700
   71MOL    C2526765   2.846   7.453   0.106  0.2247 -0.4295  0.4738
   71MOL    C2626766   2.811   7.466   0.250 -0.0026 -0.5256 -0.4786
   71MOL    C2726767   2.849   7.194   0.081  0.1553 -0.1601  0.0550
   71MOL    H2826768   3.013   7.062   0.029  1.3741 -0.7810 -1.4766
   71MOL    H2926769   3.051   7.166   7.464  2.4534  0.8400  1.5115
   71MOL    H3026770   2.892   7.211   7.435  1.4268  1.5311 -0.2801
   71MOL    H3126771   3.102   7.346   7.598 -0.7098  2.0567  1.2585
   71MOL    H3226772   2.957   7.410   7.528 -0.3512 -0.0197  1.3589
   71MOL    H3326773   3.014   7.315   0.148  0.8565 -0.3898 -0.9841
   71MOL    H3426774   2.761   7.463   0.039  1.0664 -1.1169 -0.7434
   71MOL    H3526775   2.918   7.531   0.079 -1.8209  0.4699 -2.6232
   71MOL    H3626776   2.903   7.454   0.307  0.5275 -1.7229 -1.5660
   71MOL    H3726777   2.747   7.383   0.280  0.3613 -1.0616 -1.1784
   71MOL    H3826778   2.827   7.160   0.183 -0.2168  2.0084  0.7216
   71MOL    H3926779   2.751   7.219   0.040  0.0395 -0.8880 -0.1169
   71MOL    C4026780   2.745   7.605   0.288 -0.7422 -0.0601  0.0703
   71MOL    C4126781   2.700   7.612   0.431  0.2466 -0.2392 -1.0328
   71MOL    C4226782   2.791   0.062   0.507 -0.4963 -0.3792 -0.1008
   71MOL    C4326783   2.917   0.079   0.425  0.0679 -0.1926 -0.5159
   71MOL    C4426784   2.996   0.208   0.439 -0.0204 -0.1184 -0.0772
   71MOL    C4526785   3.031   0.247   0.585  0.2132 -0.0697  0.0026
   71MOL    C4626786   2.862   0.065   0.286  0.1193  0.5228  0.6998
   71MOL    H4726787   2.662   7.631   0.223 -1.1333  1.3644  1.1094
   71MOL    H4826788   2.732   7.520   0.481 -2.1442 -0.0474  0.9970
   71MOL    H4926789   2.592   7.627   0.438  0.2921 -0.4382  0.2274
   71MOL    H5026790   2.749   0.161   0.528 -0.8596 -1.0004  2.3067
   71MOL    H5126791   2.825   0.038   0.608  1.2078  0.5851 -0.4227
   71MOL    H5226792   2.978   7.640   0.453 -0.0492 -0.0578  0.1709
   71MOL    H5326793   3.086   0.198   0.378 -0.8817  1.2270 -1.6025
   71MOL    H5426794   2.944   0.285   0.382 -1.2070 -0.2351  0.8066
   71MOL    H5526795   3.077   0.161   0.632 -1.4676 -1.9941 -1.8015
   71MOL    H5626796   2.934   0.267   0.630  0.4946  0.1883  0.5007
   71MOL    H5726797   2.823   0.166   0.269 -0.3482 -0.0585 -1.8987
   71MOL    H5826798   2.944   0.060   0.214 -1.6454  1.1176 -1.4271
   71MOL    C5926799   3.126   0.368   0.586 -0.4513 -0.6869 -0.5622
   71MOL    C6026800   3.084   0.495   0.518  0.4779 -0.3699 -0.2225
   71MOL    C6126801   3.181   0.599   0.566  0.1966 -0.4088  0.5693
   71MOL    C6226802   3.229   0.555   0.702  0.5358  0.0447 -0.2846
   71MOL    C6326803   3.384   0.536   0.710 -0.2536 -0.0879 -0.9889
   71MOL    C6426804   3.463   0.674   0.714  0.1860  0.3638 -0.3635
   71MOL    C6526805   3.155   0.420   0.727  0.0087 -0.5402  0.5375
   71MOL    H6626806   3.217   0.335   0.537  0.6755 -1.6048  2.0407
   71MOL    H6726807   3.083   0.493   0.409 -0.4147 -0.3535 -0.2192
   71MOL    H6826808   2.981   0.525   0.540  0.3094  0.9476 -2.6207
   71MOL    H6926809   3.265   0.607   0.497 -0.1840  0.0694  0.1526
   71MOL    H7026810   3.137   0.699   0.560  1.7649  0.2630 -0.3690
   71MOL    H7126811   3.192   0.631   0.770  0.0348 -1.5073  1.2063
   71MOL    H7226812   3.426   0.483   0.624 -0.8080  1.4142 -2.2027
   71MOL    H7326813   3.417   0.475   0.794  1.0348  1.1755 -0.5556
   71MOL    H7426814   3.446   0.724   0.618  0.8272 -0.5376 -0.9587
   71MOL    H7526815   3.422   0.727   0.800 -0.3988  0.1555 -0.5048
   71MOL    H7626816   3.227   0.360   0.783  2.2714  0.7993 -0.8957
   71MOL    H7726817   3.065   0.425   0.789 -0.3231 -0.7205  0.0723
   71MOL    C7826818   3.613   0.666   0.736 -0.2988  0.5362 -0.3618
   71MOL    C7926819   3.675   0.802   0.745 -0.2664  0.5838  0.4011
   71MOL    C8026820   3.796   0.791   0.844 -0.6364  0.4583  0.1404
   71MOL    C8126821   3.782   0.657   0.905  0.1827  0.3463  0.3236
   71MOL    C8226822   3.810   0.669   1.056  0.1099  0.1867 -0.1677
   71MOL    C8326823   3.951   0.691   1.108  0.2328  0.9496 -0.3756
   71MOL    C8426824   3.647   0.604   0.877  0.5022 -0.3541  0.3831
   71MOL    H8526825   3.670   0.616   0.659  0.1013 -0.7531  0.7510
   71MOL    H8626826   3.708   0.829   0.645 -1.3233  0.6854  0.0689
   71MOL    H8726827   3.599   0.877   0.769 -2.0220  0.3502 -3.9441
   71MOL    H8826828   3.888   0.785   0.786 -1.3987 -0.1278 -1.0186
   71MOL    H8926829   3.789   0.870   0.919 -2.3033  1.2050 -0.7463
   71MOL    H9026830   3.853   0.590   0.857 -1.3454 -1.2670  0.2986
   71MOL    H9126831   3.759   0.585   1.103 -4.2955  1.4983 -2.2527
   71MOL    H9226832   3.741   0.747   1.087  1.1854  0.4196  1.7282
   71MOL    H9326833   3.996   0.782   1.066  1.3200  0.8553  0.5691
   71MOL    H9426834   4.017   0.607   1.088  2.3655  2.2163  1.1874
   71MOL    H9526835   3.570   0.628   0.951  0.5200 -0.9240  0.5840
   71MOL    H9626836   3.642   0.496   0.877 -0.9413 -0.2987  0.3730
   71MOL    C9726837   3.942   0.714   1.268  0.3139  0.6136 -0.8749
   71MOL    C9826838   4.067   0.783   1.329 -0.4253  0.0544  0.8113
   71MOL    C9926839   4.161   0.668   1.336 -0.2507  0.0862 -0.1763
   71MOL   C10026840   4.081   0.552   1.393 -0.3902 -0.1093 -0.1783
   71MOL   C10126841   4.122   0.407   1.369 -0.1935  0.7587 -0.0657
   71MOL   C10226842   4.055   0.303   1.455  0.3187  0.8297  0.4979
   71MOL   C10326843   3.934   0.584   1.352 -0.3364 -0.0004  0.2496
   71MOL   H10426844   3.862   0.780   1.301  0.3959 -0.2441  1.1132
   71MOL   H10526845   4.099   0.861   1.259  0.5986  1.0530  2.3568
   71MOL   H10626846   4.045   0.824   1.428  0.4759 -0.4441  1.2277
   71MOL   H10726847   4.198   0.643   1.236 -3.1540 -0.7442 -1.1044
   71MOL   H10826848   4.255   0.689   1.388  0.6958 -1.8902 -1.0146
   71MOL   H10926849   4.073   0.570   1.500 -2.5415 -0.7306 -0.2027
   71MOL   H11026850   4.104   0.380   1.264  0.5356  1.0841 -0.2747
   71MOL   H11126851   4.231   0.404   1.379 -0.3231 -0.5163  1.0798
   71MOL   H11226852   3.949   0.328   1.460  0.3886  1.5388 -1.2948
   71MOL   H11326853   4.060   0.210   1.400  3.1328  1.9947 -1.2918
   71MOL   H11426854   3.899   0.500   1.292  0.3986 -2.0248  2.5465
   71MOL   H11526855   3.876   0.596   1.443  0.4512 -0.5972  0.8392
   71MOL   C11626856   4.113   0.280   1.599 -0.1427 -0.9893 -0.3695
   71MOL   C11726857   4.049   0.157   1.668 -0.1027  0.5200 -0.3132
   71MOL   C11826858   4.152   0.077   1.747 -0.7278 -0.0550 -0.0300
   71MOL   C11926859   4.280   0.166   1.737 -0.0574 -0.0630 -0.8053
   71MOL   C12026860   4.415   0.085   1.755  0.2564  0.2246 -0.1078
   71MOL   C12126861   4.535   0.183   1.766  0.5752 -0.9350  0.0981
   71MOL   C12226862   4.269   0.252   1.613  1.4292 -0.1206 -0.0660
   71MOL   H12326863   4.098   0.368   1.661  3.4227 -0.8364  0.3501
   71MOL   H12426864   4.003   0.097   1.589 -0.2641 -0.4601  0.5301
   71MOL   H12526865   3.969   0.189   1.734  0.7860 -3.2714  2.8135
   71MOL   H12626866   4.175   7.625   1.707  1.5399  0.1474  0.6957
   71MOL   H12726867   4.133   0.073   1.854  1.3786 -1.6414  0.3333
   71MOL   H12826868   4.271   0.237   1.819  0.1885 -0.6505 -0.2640
   71MOL   H12926869   4.419   0.022   1.666 -0.5085  0.2855 -0.1917
   71MOL   H13026870   4.406   0.012   1.835  1.9263 -0.1692 -0.2692
   71MOL   H13126871   4.514   0.286   1.735 -0.0722 -0.9579  0.4575
   71MOL   H13226872   4.619   0.161   1.700  0.3649 -1.0044 -0.1497
   71MOL   H13326873   4.325   0.344   1.624 -1.6586  1.6496  1.5979
   71MOL   H13426874   4.308   0.197   1.527 -0.4837 -0.9981 -0.4174
   71MOL   C13526875   4.589   0.194   1.918 -0.0982  0.2851  0.0887
   71MOL   C13626876   4.713   0.286   1.943  0.0883  0.2267  0.7304
   71MOL   C13726877   4.690   0.350   2.085 -0.7400  0.3266 -0.5884
   71MOL   C13826878   4.574   0.279   2.144  0.0247  0.1570  0.2597
   71MOL   C13926879   4.618   0.161   2.234  0.8496 -1.2846  0.0393
   71MOL   C14026880   4.500   0.103   2.317 -0.6127  0.1216 -0.3086
   71MOL   C14126881   4.486   0.238   2.020  0.1164 -0.2888  0.3129
   71MOL   H14226882   4.620   0.092   1.943 -1.0081  0.1574  0.7093
   71MOL   H14326883   4.804   0.227   1.944 -0.6700 -0.9825  2.8834
   71MOL   H14426884   4.724   0.352   1.857  0.5389 -2.2519 -1.1702
   71MOL   H14526885   4.771   0.338   2.157 -0.1631  0.2253 -1.2494
   71MOL   H14626886   4.671   0.456   2.072  1.4095  0.6002 -1.5976
   71MOL   H14726887   4.531   0.355   2.209 -1.8710  0.1793 -0.9732
   71MOL   H14826888   4.688   0.198   2.309  0.7516  1.1663 -1.0155
   71MOL   H14926889   4.664   0.076   2.184  0.1681 -2.3370  1.1681
   71MOL   H15026890   4.473   0.182   2.387 -0.1947 -0.5754  0.6489
   71MOL   H15126891   4.413   0.097   2.252 -1.3597 -1.6769  0.7923
   71MOL   H15226892   4.431   0.320   1.977  2.0327  2.4780  2.8895
   71MOL   H15326893   4.410   0.161   2.036 -0.6492  0.4903  0.4507
   71MOL   C15426894   4.541   7.615   2.375  0.2202 -0.7294 -0.2252
   71MOL   C15526895   4.423   7.538   2.445  0.0778  0.7998  0.1007
   71MOL   C15626896   4.491   7.435   2.532 -0.0118 -0.7177  0.3615
   71MOL   C15726897   4.628   7.478   2.563  0.2157 -0.2144  0.1458
   71MOL   C15826898   4.659   7.495   2.712 -0.6239  0.5698 -0.5655
   71MOL   C15926899   4.795   7.552   2.748  0.0891 -0.2124 -0.5755
   71MOL   C16026900   4.652   7.612   2.484  0.2266  0.4967  0.1581
   71MOL   H16126901   4.570   7.554   2.290 -0.0102 -0.3717 -0.5566
   71MOL   H16226902   4.374   7.601   2.519  1.3480  1.2783  0.5476
   71MOL   H16326903   4.348   7.505   2.373  0.3675 -1.4822  0.8246
   71MOL   H16426904   4.438   7.438   2.627 -1.6241 -1.1255 -0.5078
   71MOL   H16526905   4.480   7.335   2.490 -1.0887 -1.0757  1.4801
   71MOL   H16626906   4.692   7.402   2.519  2.1878  0.1976  2.1553
   71MOL   H16726907   4.633   7.395   2.748 -1.9782  1.1332  0.0800
   71MOL   H16826908   4.581   7.553   2.763  0.3138  0.8559  0.5678
   71MOL   H16926909   4.875   7.495   2.700  0.1089 -2.1841  1.7235
   71MOL   H17026910   4.809   0.009   2.718  3.5625  0.4435  2.8201
   71MOL   H17126911   4.754   7.611   2.446  0.3677  1.0842  0.5270
   71MOL   H17226912   4.657   0.049   2.553 -1.3898  1.2632 -0.6206
   71MOL   C17326913   4.840   7.553   2.895 -0.3220  0.1173 -0.1572
   71MOL   C17426914   4.991   7.586   2.911  0.4220  0.4620  0.1665
   71MOL   C17526915   5.010   0.011   3.034  0.1352 -0.1748 -0.0783
   71MOL   C17626916   4.873   0.037   3.099 -0.6848 -0.3809 -0.2410
   71MOL   C17726917   4.857   0.181   3.167 -0.1091 -0.0113 -0.4003
   71MOL   C17826918   4.730   0.188   3.253  0.3731 -0.7045 -0.1972
   71MOL   C17926919   4.769   0.012   2.983  0.3129 -0.1677 -0.0896
   71MOL   H18026920   4.815   7.454   2.932  1.2308 -0.4713 -0.6703
   71MOL   H18126921   5.034   7.647   2.831  0.6532  1.7265  1.2408
   71MOL   H18226922   5.046   7.492   2.909 -0.0854  0.1747 -2.0777
   71MOL   H18326923   5.068   7.601   3.107  1.1269  2.1518  1.0051
   71MOL   H18426924   5.060   0.104   3.008 -0.0225 -0.1286 -0.2191
   71MOL   H18526925   4.873   7.612   3.180 -1.0039  0.1095  0.2005
   71MOL   H18626926   4.872   0.247   3.082 -1.0698  3.5287  2.0730
   71MOL   H18726927   4.942   0.208   3.230  0.5138 -1.2728 -0.6797
   71MOL   H18826928   4.725   0.098   3.314 -1.0561  0.9525  2.2502
   71MOL   H18926929   4.635   0.194   3.200 -0.7269  0.7312  1.8504
   71MOL   H19026930   4.763   0.101   2.920  2.1969  0.3753  0.4611
   71MOL   H19126931   4.671   7.621   3.013  1.2859 -2.8953 -0.2299
   71MOL   C19226932   4.733   0.286   3.372 -0.1627 -0.5947  0.1237
   71MOL   C19326933   4.592   0.297   3.435 -0.5798 -0.0660  0.1513
   71MOL   C19426934   4.525   0.426   3.375 -1.0913  0.2882  0.1930
   71MOL   C19526935   4.644   0.517   3.356 -0.4025  0.1589  0.1735
   71MOL   C19626936   4.672   0.625   3.470 -0.1545  0.1618  0.4480
   71MOL   C19726937   4.562   0.729   3.477  0.7912 -0.1534 -0.5174
   71MOL   C19826938   4.768   0.429   3.330  0.5100 -0.4072 -0.5100
   71MOL   H19926939   4.801   0.255   3.451 -0.2403  1.6267  1.0860
   71MOL   H20026940   4.528   0.209   3.425 -1.3039  0.4222  0.4057
   71MOL   H20126941   4.606   0.320   3.541 -2.6518  2.4175 -0.0643
   71MOL   H20226942   4.460   0.467   3.452 -0.5067 -0.0801  0.8938
   71MOL   H20326943   4.475   0.406   3.280 -1.1731  2.2657 -0.1994
   71MOL   H20426944   4.627   0.582   3.270 -0.6212 -1.8463 -1.3251
   71MOL   H20526945   4.760   0.685   3.446 -0.1495  0.5668  1.4420
   71MOL   H20626946   4.689   0.577   3.566  2.5963 -1.6496 -0.8724
   71MOL   H20726947   4.464   0.681   3.478 -0.1532  1.7304 -0.7814
   71MOL   H20826948   4.564   0.776   3.379  1.0742  2.3377  0.6447
   71MOL   H20926949   4.853   0.467   3.387 -0.7047  1.3403  0.1700
   71MOL   H21026950   4.795   0.430   3.225  2.7660  3.0198  0.0387
   71MOL   C21126951   4.575   0.836   3.590 -0.3656 -0.2894 -0.0362
   71MOL   C21226952   4.446   0.924   3.604 -0.1006  0.1812 -0.2815
   71MOL   C21326953   4.490   1.066   3.585 -0.6783  0.4515  0.1690
   71MOL   C21426954   4.632   1.068   3.610  0.0625 -0.2261  0.0010
   71MOL   C21526955   4.701   1.195   3.562  0.2506 -0.0694  0.2970
   71MOL   C21626956   4.658   1.321   3.633 -0.3120 -0.5779 -0.0480
   71MOL   C21726957   4.688   0.932   3.559 -0.1796  0.6122  0.3901
   71MOL   H21826958   4.592   0.781   3.682  0.0813 -1.4733 -0.8046
   71MOL   H21926959   4.362   0.891   3.542  1.1185  1.4024 -2.6333
   71MOL   H22026960   4.408   0.904   3.705  2.7140 -2.1830  0.3637
   71MOL   H22126961   4.463   1.077   3.480 -0.9049 -3.7873 -0.3073
   71MOL   H22226962   4.428   1.138   3.637  0.2827  1.4782 -0.0913
   71MOL   H22326963   4.631   1.070   3.719 -1.3362 -0.7227  0.0017
   71MOL   H22426964   4.675   1.215   3.458  1.7940  0.0753 -0.0754
   71MOL   H22526965   4.809   1.186   3.574  0.3858 -1.3654 -1.7301
   71MOL   H22626966   4.552   1.329   3.613 -0.3501  0.1526  0.3885
   71MOL   H22726967   4.674   1.311   3.740  1.9951 -1.6824 -0.4532
   71MOL   H22826968   4.779   0.906   3.612  1.1806 -0.0269 -2.1987
   71MOL   H22926969   4.703   0.942   3.452  1.9568  2.5894  0.8453
   71MOL   C23026970   4.730   1.447   3.573  0.2887  0.0891 -0.2510
   71MOL   C23126971   4.883   1.440   3.587  0.5396 -0.1552  0.3473
   71MOL   C23226972   4.934   1.583   3.573  0.3457 -0.7659 -0.5582
   71MOL   C23326973   4.825   1.661   3.650  0.3082  0.2982 -0.2973
   71MOL   C23426974   4.816   1.806   3.593  0.3545  0.5080 -0.1577
   71MOL   C23526975   4.761   1.903   3.692  1.2298  0.1235  0.1923
   71MOL   C23626976   4.705   1.575   3.655 -0.2767  0.7403 -0.0607
   71MOL   H23726977   4.694   1.460   3.471  2.3540 -0.8687 -1.1255
   71MOL   H23826978   4.900   1.401   3.687 -2.7539 -0.0805  0.9879
   71MOL   H23926979   4.931   1.372   3.517  0.8417 -1.2485  1.5925
   71MOL   H24026980   4.944   1.609   3.467 -0.5214  0.0291 -0.4496
   71MOL   H24126981   5.034   1.588   3.616  0.0917  0.3879 -0.0652
   71MOL   H24226982   4.860   1.659   3.753 -2.2935 -0.7614  0.5949
   71MOL   H24326983   4.767   1.816   3.496  0.5898 -0.9664 -0.4431
   71MOL   H24426984   4.918   1.832   3.568 -0.7875  3.2218 -2.2460
   71MOL   H24526985   4.653   1.893   3.694  1.3087 -2.0818 -2.5232
   71MOL   H24626986   4.783   1.876   3.795  0.1193 -1.6018 -0.0038
   71MOL   H24726987   4.618   1.626   3.613  0.9010 -0.4379 -4.1486
   71MOL   H24826988   4.691   1.554   3.761 -0.0778 -3.6133 -0.7893
   71MOL   C24926989   4.795   2.044   3.658 -0.5773 -0.5729 -0.6532
   71MOL   C25026990   4.696   2.143   3.716 -0.8313 -0.2953  0.4733
   71MOL   C25126991   4.759   2.191   3.842 -0.0412 -0.3553 -0.0736
   71MOL   C25226992   4.907   2.154   3.840 -0.5183  0.3015  0.7983
   71MOL   C25326993   4.995   2.275   3.867  0.7690 -0.5829  0.2066
   71MOL   C25426994   5.142   2.226   3.906  0.0535 -0.6845  0.2806
   71MOL   C25526995   4.928   2.096   3.699  0.0832 -0.0408 -0.8620
   71MOL   H25626996   4.798   2.058   3.550  0.8026 -0.5860 -0.6173
   71MOL   H25726997   4.692   2.235   3.658  0.1562  1.6090  3.3077
   71MOL   H25826998   4.594   2.106   3.726 -0.9223 -0.1982 -0.0720
   71MOL   H25926999   4.706   2.157   3.931  2.0126  0.6734  1.6008
   71MOL   H26027000   4.744   2.299   3.835  1.0620 -0.1198  1.0366
   71MOL   H26127001   4.928   2.083   3.920 -0.8401  0.8259  1.3479
   71MOL   H26227002   4.953   2.327   3.953  1.3037 -1.2731  0.8836
   71MOL   H26327003   4.999   2.335   3.776  0.9830  0.3790  0.8450
   71MOL   H26427004   5.193   2.172   3.827  1.0496  0.2663  0.2541
   71MOL   H26527005   5.138   2.160   3.993 -3.8394 -1.5050 -0.4378
   71MOL   H26627006   5.011   2.026   3.700  1.1370  1.1916 -1.0971
   71MOL   H26727007   4.956   2.168   3.622 -1.2721  0.8793 -0.5237
   71MOL   C26827008   5.222   2.354   3.945 -0.0257 -0.2200  0.5423
   71MOL   C26927009   5.374   2.321   3.948 -0.6289  0.1942  0.0731
   71MOL   C27027010   5.442   2.415   4.049  0.4801  0.1734 -0.1054
   71MOL   C27127011   5.321   2.487   4.114 -0.3813  0.0178 -0.8326
   71MOL   C27227012   5.339   2.524   4.263  0.6758  0.2296  0.0340
   71MOL   C27327013   5.228   2.596   4.343  1.2111  0.2729  0.2709
   71MOL   C27427014   5.195   2.405   4.087 -0.4261 -0.2428  0.6350
   71MOL   H27527015   5.205   2.423   3.862  1.2497 -0.4112  0.1102
   71MOL   H27627016   5.381   2.220   3.989 -0.1398  0.6144  1.0162
   71MOL   H27727017   5.418   2.320   3.848 -0.5340  3.7645  0.0386
   71MOL   H27827018   5.506   2.366   4.123  1.0181 -0.8794 -1.2530
   71MOL   H27927019   5.512   2.470   3.986  0.9358  0.7787  0.9079
   71MOL   H28027020   5.322   2.580   4.058  0.8405  0.7460  0.3805
   71MOL   H28127021   5.430   2.585   4.257  0.2905  0.8332  0.3124
   71MOL   H28227022   5.366   2.436   4.321 -0.6261 -0.2608 -0.1001
   71MOL   H28327023   5.150   2.522   4.355 -1.0251  2.4438 -0.3823
   71MOL   H28427024   5.258   2.631   4.442  2.0793 -1.3310  0.5958
   71MOL   H28527025   5.172   2.316   4.146  2.8990 -0.5138  1.5953
   71MOL   H28627026   5.109   2.472   4.091  0.9276  1.6750 -1.2335
   71MOL   C28727027   5.161   2.715   4.268 -0.9834 -0.6459 -0.2323
   71MOL   C28827028   5.012   2.736   4.294 -0.5607 -0.1618  0.8662
   71MOL   C28927029   4.992   2.884   4.316 -0.2314 -0.4392  0.3260
   71MOL   C29027030   5.123   2.956   4.277 -0.3797 -0.5559 -0.1460
   71MOL   C29127031   5.165   3.079   4.356 -0.2182 -1.1498  0.0107
   71MOL   C29227032   5.063   3.198   4.345 -0.3117  0.3095  0.0962
   71MOL   C29327033   5.229   2.852   4.287 -0.1932  0.3231 -0.3147
   71MOL   H29427034   5.169   2.690   4.162 -0.6096  1.1338 -0.6357
   71MOL   H29527035   4.958   2.693   4.210 -2.4850 -0.4411  2.1910
   71MOL   H29627036   4.991   2.684   4.388  2.5820 -0.1432  1.6287
   71MOL   H29727037   4.966   2.897   4.421  0.3949 -1.3443  0.6051
   71MOL   H29827038   4.905   2.912   4.257  1.4866 -0.0583 -2.0670
   71MOL   H29927039   5.107   2.986   4.173 -0.0710  1.0273  0.2642
   71MOL   H30027040   5.247   3.129   4.305 -1.3037 -0.0168 -0.6718
   71MOL   H30127041   5.206   3.063   4.456 -0.3165 -0.6428  0.1346
   71MOL   H30227042   4.965   3.172   4.387 -2.0295  1.8810 -2.8328
   71MOL   H30327043   5.029   3.225   4.246 -0.0272  0.5293  0.0614
   71MOL   H30427044   5.266   2.856   4.390 -0.6029  2.2980 -0.2262
   71MOL   H30527045   5.315   2.857   4.220 -0.1366  0.7038 -0.2182
   71MOL   C30627046   5.122   3.330   4.417  0.0895 -0.3197  0.1583
   71MOL   C30727047   5.226   3.394   4.326  0.3597 -0.2821 -0.8612
   71MOL   C30827048   5.231   3.549   4.351 -0.5865  0.0736  0.3269
   71MOL   C30927049   5.109   3.581   4.442 -0.5380  0.3567  0.4920
   71MOL   C31027050   5.033   3.706   4.375  0.2566 -0.0794 -0.2586
   71MOL   C31127051   5.102   3.842   4.386  0.3245  0.2230  0.3971
   71MOL   C31227052   5.027   3.442   4.440 -0.3921 -0.3404  0.2025
   71MOL   H31327053   5.162   3.315   4.517 -2.1159 -1.3951  0.9113
   71MOL   H31427054   5.326   3.352   4.337  0.7524  0.5670 -1.1094
   71MOL   H31527055   5.198   3.365   4.224  1.7928 -1.4190 -0.9331
   71MOL   H31627056   5.328   3.580   4.391 -1.1631  0.9782  1.0569
   71MOL   H31727057   5.232   3.595   4.253 -1.2224  0.2207  0.3865
   71MOL   H31827058   5.140   3.604   4.544  0.3930  1.1322  0.0384
   71MOL   H31927059   5.007   3.683   4.271 -1.9939 -2.4883  0.7758
   71MOL   H32027060   4.934   3.710   4.420  1.0487  1.2344  1.4111
   71MOL   H32127061   5.208   3.842   4.361  0.6705  1.8573  1.6872
   71MOL   H32227062   5.097   3.877   4.489 -0.4541  0.5978  0.2375
   71MOL   H32327063   4.950   3.455   4.364 -0.3403 -0.7582  0.0759
   71MOL   H32427064   4.981   3.422   4.537  0.4856  1.4283  1.0104
   71MOL   C32527065   5.028   3.944   4.308  0.3690 -0.7308  0.4091
   71MOL   C32627066   4.885   3.980   4.359  0.0316 -0.1506  0.0493
   71MOL   C32727067   4.873   4.127   4.344 -0.7575 -0.1956  0.4350
   71MOL   C32827068   4.993   4.168   4.247 -0.2210 -0.3945  0.1018
   71MOL   C32927069   4.940   4.157   4.100  0.2426  0.3212  0.8043
   71MOL   C33027070   4.861   4.271   4.030  0.6364  0.5069  0.3659
   71MOL   C33127071   5.105   4.076   4.289  0.8565 -0.3049 -0.2274
   71MOL   H33227072   5.012   3.899   4.210  1.1844 -2.8021  1.2123
   71MOL   H33327073   4.856   3.949   4.460  1.2641 -1.7035 -0.0536
   71MOL   H33427074   4.814   3.929   4.294 -0.4272 -2.1321  2.0279
   71MOL   H33527075   4.775   4.162   4.312 -0.5167 -0.7747 -0.9901
   71MOL   H33627076   4.895   4.180   4.437  2.6147 -1.9718  0.7363
   71MOL   H33727077   5.023   4.269   4.276 -1.0451 -0.1797  0.2057
   71MOL   H33827078   5.031   4.154   4.040 -0.8791  1.2893 -0.9890
   71MOL   H33927079   4.889   4.066   4.070  0.3365  1.3119 -2.5681
   71MOL   H34027080   4.926   4.358   4.020 -0.0222  0.9903  0.2928
   71MOL   H34127081   4.844   4.235   3.928 -1.3046  0.3688  0.7212
   71MOL   H34227082   5.167   4.101   4.375 -1.9619  0.7221  1.5718
   71MOL   H34327083   5.185   4.056   4.218  1.2530  0.1056  0.0966
   71MOL   C34427084   4.719   4.311   4.074  0.1359 -0.4306  0.3756
   71MOL   C34527085   4.616   4.196   4.078  0.1436  0.6424 -0.8245
   71MOL   C34627086   4.482   4.261   4.047  0.3304 -0.5638  0.1900
   71MOL   C34727087   4.521   4.362   3.946  0.0971 -0.8074  0.4155
   71MOL   C34827088   4.407   4.454   3.896  0.1353 -0.4922 -0.2284
   71MOL   C34927089   4.460   4.567   3.808 -0.3675  0.0324 -0.3334
   71MOL   C35027090   4.650   4.424   3.995 -0.1304  0.0247  0.0189
   71MOL   H35127091   4.733   4.353   4.174 -1.0691 -1.3077  0.9281
   71MOL   H35227092   4.612   4.140   4.171 -1.4705  0.2338 -1.1184
   71MOL   H35327093   4.619   4.121   3.999 -1.1946  0.7615 -1.0040
   71MOL   H35427094   4.409   4.191   4.007 -0.9958  1.9758 -1.9405
   71MOL   H35527095   4.440   4.318   4.129 -0.2231 -2.6269  1.3787
   71MOL   H35627096   4.540   4.300   3.858 -0.3972  0.1201 -0.3411
   71MOL   H35727097   4.334   4.395   3.841  0.2722 -0.2789 -0.6433
   71MOL   H35827098   4.352   4.494   3.981 -1.8618  0.4096 -1.8868
   71MOL   H35927099   4.545   4.527   3.752  1.1390  0.9866  1.2410
   71MOL   H36027100   4.515   4.637   3.871 -0.8550 -1.7026  2.0595
   71MOL   H36127101   4.710   4.458   3.910  0.3287 -1.0047 -0.0698
   71MOL   H36227102   4.637   4.503   4.069 -0.2095 -0.5145  0.5825
   71MOL   C36327103   4.369   4.653   3.711 -0.6409  0.1816  0.6977
   71MOL   C36427104   4.315   4.566   3.595 -0.6585 -0.4887 -0.7408
   71MOL   C36527105   4.287   4.663   3.477 -0.4832 -0.0793 -0.0094
   71MOL   C36627106   4.341   4.803   3.520  0.1769  0.3191 -0.7005
   71MOL   C36727107   4.396   4.893   3.406  0.4088  0.5198  0.1629
   71MOL   C36827108   4.292   4.913   3.289 -0.7831 -0.9277 -0.3607
   71MOL   C36927109   4.439   4.766   3.631  0.3082  0.1060 -0.1017
   71MOL   H37027110   4.284   4.693   3.767 -0.1802  1.7516  0.2876
   71MOL   H37127111   4.381   4.484   3.565  1.7615  1.0552  0.2405
   71MOL   H37227112   4.223   4.517   3.626  0.4424 -2.6260 -0.7512
   71MOL   H37327113   4.336   4.622   3.388 -1.8905 -0.6261 -0.5517
   71MOL   H37427114   4.182   4.675   3.448 -0.7708  0.6776  1.3068
   71MOL   H37527115   4.262   4.852   3.577  0.6220 -0.1324  0.3255
   71MOL   H37627116   4.424   4.991   3.444 -0.5589  1.4148 -1.3536
   71MOL   H37727117   4.485   4.845   3.367  0.7669  2.0309 -0.9115
   71MOL   H37827118   4.251   4.818   3.253  0.1468 -2.3263  2.1384
   71MOL   H37927119   4.325   4.968   3.201 -0.6509 -1.0780 -0.4032
   71MOL   H38027120   4.537   4.757   3.585  1.3345  2.3168  1.5829
   71MOL   H38127121   4.451   4.852   3.696 -3.0452  0.5276  0.0708
   71MOL   H38227122   4.219   4.978   3.338  0.4084  1.4540 -1.6785
   72MOL     C127123   5.341   2.717   7.000  0.2266  0.0578 -0.2490
   72MOL     C227124   5.220   2.770   6.910 -0.2795 -0.0416 -0.5615
   72MOL     C327125   5.275   2.893   6.834  0.0572 -0.1046  0.4866
   72MOL     C427126   5.432   2.896   6.856 -0.5390  0.3180 -0.3067
   72MOL     C527127   5.501   3.037   6.855 -0.4061 -0.5918  0.4855
   72MOL     C627128   5.484   3.119   6.726  0.2424 -0.3572 -0.2687
   72MOL     C727129   5.440   2.832   6.995 -0.3050  0.3576 -0.7517
   72MOL     H827130   5.305   2.701   7.101  0.1986  0.5899 -0.1744
   72MOL     H927131   5.136   2.797   6.974 -2.0847 -1.6090 -2.2076
   72MOL    H1027132   5.180   2.696   6.841 -1.7959 -1.3900  1.6930
   72MOL    H1127133   5.242   2.899   6.730  0.2319  0.7525  0.4783
   72MOL    H1227134   5.235   2.977   6.891 -0.9688 -0.9335  1.0187
   72MOL    H1327135   5.477   2.831   6.782  0.6108  2.0057 -1.1353
   72MOL    H1427136   5.459   3.098   6.934  0.9709  0.1088  0.6939
   72MOL    H1527137   5.605   3.017   6.883  0.1278 -1.5244 -2.0582
   72MOL    H1627138   5.518   3.059   6.642 -2.8443 -0.5705 -1.4314
   72MOL    H1727139   5.378   3.132   6.704  0.7065 -2.7755 -4.3816
   72MOL    H1827140   5.542   2.794   7.000  0.5008  2.5301 -0.0800
   72MOL    H1927141   5.408   2.901   7.073  0.5002  1.7221 -1.6141
   72MOL    H2027142   5.380   2.621   6.964 -0.9117  0.4909 -2.7739
   72MOL    C2127143   5.548   3.263   6.728 -0.4917  0.3013  0.1618
   72MOL    C2227144   5.590   3.315   6.594  1.0597 -0.6002 -0.6251
   72MOL    C2327145   5.619   3.464   6.621  0.1709 -0.0104  0.2111
   72MOL    C2427146   5.514   3.502   6.728  0.3091 -0.2722 -0.2768
   72MOL    C2527147   5.398   3.581   6.664 -0.3047  0.1750  0.1662
   72MOL    C2627148   5.278   3.627   6.748 -0.2832 -0.1716  0.6901
   72MOL    C2727149   5.463   3.368   6.793  0.5833 -0.0779 -0.7178
   72MOL    H2827150   5.641   3.258   6.784  0.1094 -0.9947 -0.9168
   72MOL    H2927151   5.678   3.261   6.558  0.6291 -1.7643  0.0361
   72MOL    H3027152   5.506   3.294   6.528  0.2323  1.4715 -0.2757
   72MOL    H3127153   5.719   3.478   6.662  0.4462 -1.7520  0.1666
   72MOL    H3227154   5.601   3.517   6.528 -1.2132  0.3391  0.6642
   72MOL    H3327155   5.550   3.559   6.813 -0.5475  0.6173 -0.5096
   72MOL    H3427156   5.356   3.528   6.579 -1.9924  0.7423  0.6175
   72MOL    H3527157   5.437   3.671   6.617 -1.7160  1.4248  1.3277
   72MOL    H3627158   5.317   3.703   6.816 -1.3972  1.6330 -0.6361
   72MOL    H3727159   5.243   3.549   6.817  0.8550 -0.3419  1.0824
   72MOL    H3827160   5.482   3.389   6.898  2.7324  1.3560 -1.3517
   72MOL    H3927161   5.355   3.356   6.791  0.6968 -1.1297 -1.3495
   72MOL    C4027162   5.160   3.678   6.665  0.0825  0.1491  0.6458
   72MOL    C4127163   5.038   3.700   6.761  0.8229  0.2651  0.2941
   72MOL    C4227164   4.959   3.811   6.697  0.7075 -0.5297 -0.2139
   72MOL    C4327165   5.066   3.897   6.623  0.5983  0.7781 -0.4598
   72MOL    C4427166   5.020   3.963   6.494 -0.9141 -0.1855 -0.1435
   72MOL    C4527167   5.111   4.080   6.437  0.1921  0.1512  0.8143
   72MOL    C4627168   5.185   3.807   6.587  0.3552  0.1548 -0.0587
   72MOL    H4727169   5.116   3.599   6.604  0.6634 -1.8900  2.7965
   72MOL    H4827170   5.064   3.729   6.862  1.1684  0.8977  0.0264
   72MOL    H4927171   4.977   3.610   6.771 -0.1075  0.8635  0.1410
   72MOL    H5027172   4.887   3.785   6.620 -1.2128 -0.2930  1.4493
   72MOL    H5127173   4.900   3.860   6.775  0.7097 -1.6705  0.5126
   72MOL    H5227174   5.103   3.973   6.691  2.4666  0.4779 -1.1082
   72MOL    H5327175   5.005   3.886   6.419 -1.7909 -2.6706  2.5177
   72MOL    H5427176   4.928   4.018   6.513  0.0187  1.9495 -1.5697
   72MOL    H5527177   5.201   4.032   6.399  0.4801  0.7830  0.6947
   72MOL    H5627178   5.132   4.148   6.519 -1.7154 -0.7329  2.0792
   72MOL    H5727179   5.200   3.784   6.481 -0.1092  0.0771 -0.1090
   72MOL    H5827180   5.275   3.859   6.620 -0.1600  0.2400  1.2300
   72MOL    C5927181   5.039   4.158   6.325  0.0730 -0.4442  0.4142
   72MOL    C6027182   5.123   4.264   6.256  0.5446  0.7076 -0.6037
   72MOL    C6127183   5.048   4.302   6.130  0.6517  0.5570  0.2775
   72MOL    C6227184   5.005   4.165   6.079  0.6416  0.5081 -0.5374
   72MOL    C6327185   4.864   4.168   6.021 -0.2709 -1.0405 -0.0815
   72MOL    C6427186   4.859   4.232   5.883  0.2175  0.8493  0.5091
   72MOL    C6527187   4.991   4.072   6.209 -0.5356  0.1862  0.2046
   72MOL    H6627188   4.956   4.209   6.374 -1.0995 -0.6783 -1.3169
   72MOL    H6727189   5.138   4.356   6.314  3.5781 -1.0109  1.5274
   72MOL    H6827190   5.221   4.229   6.223  0.5757 -0.0020  0.2201
   72MOL    H6927191   4.961   4.360   6.160 -0.5273  0.5652 -2.9215
   72MOL    H7027192   5.109   4.357   6.058  1.0045  1.8185  1.5212
   72MOL    H7127193   5.071   4.134   5.997 -1.9337 -0.9352 -2.1261
   72MOL    H7227194   4.800   4.230   6.083 -1.1283 -1.1171 -0.8764
   72MOL    H7327195   4.819   4.069   6.021 -1.1003 -0.6666 -0.4783
   72MOL    H7427196   4.914   4.326   5.881 -1.2305  1.7107 -2.0591
   72MOL    H7527197   4.906   4.161   5.815 -1.3032  2.0208 -1.8576
   72MOL    H7627198   4.887   4.047   6.228 -1.1825  1.4284 -1.5260
   72MOL    H7727199   5.041   3.976   6.208  2.8871  1.9007  0.3664
   72MOL    C7827200   4.718   4.268   5.841  0.7443  0.4750  0.0554
   72MOL    C7927201   4.706   4.293   5.686 -0.4123  0.0932  0.5507
   72MOL    C8027202   4.574   4.238   5.642 -0.3900 -1.1002  0.3659
   72MOL    C8127203   4.491   4.201   5.770  0.0162  0.2335  0.0076
   72MOL    C8227204   4.383   4.097   5.743 -0.5623  0.1681  0.4015
   72MOL    C8327205   4.264   4.139   5.659 -0.4293  0.1659  0.5838
   72MOL    C8427206   4.605   4.163   5.863 -0.6065 -1.5653  0.8208
   72MOL    H8527207   4.686   4.360   5.891  0.8389  1.9878 -2.5714
   72MOL    H8627208   4.712   4.402   5.679 -0.3122  0.1394  1.3180
   72MOL    H8727209   4.784   4.247   5.625 -2.2060 -0.2283 -1.5906
   72MOL    H8827210   4.520   4.319   5.593  0.3835 -0.6793  0.1965
   72MOL    H8927211   4.591   4.150   5.580 -2.1539 -1.7364  0.7535
   72MOL    H9027212   4.444   4.293   5.804 -0.5932  0.2534 -0.8781
   72MOL    H9127213   4.361   4.071   5.847  0.2358  1.3548  0.8748
   72MOL    H9227214   4.429   4.015   5.688 -1.2263  1.4923 -2.2060
   72MOL    H9327215   4.295   4.160   5.557  0.0071 -1.3001  0.3968
   72MOL    H9427216   4.226   4.238   5.684  0.9027  1.0592 -0.8179
   72MOL    H9527217   4.638   4.066   5.825  1.4927  0.1072 -1.7408
   72MOL    H9627218   4.560   4.149   5.962 -1.2066 -1.2749  0.5914
   72MOL    C9727219   4.149   4.035   5.674 -0.6081 -0.4240  0.6140
   72MOL    C9827220   4.157   3.898   5.601 -0.1665 -0.7197 -0.4431
   72MOL    C9927221   4.016   3.847   5.577 -0.7220  0.0263  0.7578
   72MOL   C10027222   3.918   3.966   5.580 -0.7723 -0.5787  0.1042
   72MOL   C10127223   3.847   3.998   5.452  0.3227  0.3803  0.1514
   72MOL   C10227224   3.720   3.919   5.423 -0.3821  0.2313 -0.4289
   72MOL   C10327225   4.010   4.083   5.622 -0.0650 -0.0401  0.1993
   72MOL   H10427226   4.140   4.011   5.780 -1.6339 -1.8346  0.2193
   72MOL   H10527227   4.192   3.921   5.500  0.5725  1.7093  0.3345
   72MOL   H10627228   4.213   3.822   5.656 -0.1072 -0.1134  0.3372
   72MOL   H10727229   4.026   3.798   5.480  0.4583  1.7225  0.0096
   72MOL   H10827230   3.992   3.778   5.659  0.7576  1.2579  2.2461
   72MOL   H10927231   3.835   3.944   5.646 -1.7185 -1.1361 -1.2421
   72MOL   H11027232   3.810   4.100   5.461  2.5894  1.5637 -2.9940
   72MOL   H11127233   3.910   3.997   5.362  0.9236  1.9665  0.5267
   72MOL   H11227234   3.732   3.811   5.420 -0.7395  0.1480  0.8889
   72MOL   H11327235   3.652   3.945   5.503 -1.1782 -0.6406 -0.8111
   72MOL   H11427236   4.035   4.144   5.535  0.9205 -0.5382  0.1291
   72MOL   H11527237   3.965   4.146   5.699  0.2807  0.5084 -0.0407
   72MOL   C11627238   3.643   3.954   5.289  0.3564 -0.6709 -0.4167
   72MOL   C11727239   3.677   3.865   5.167 -0.0821 -0.2651 -0.4628
   72MOL   C11827240   3.545   3.841   5.092  0.1097  0.2078  0.0368
   72MOL   C11927241   3.439   3.927   5.164 -0.4661 -0.0668  0.4430
   72MOL   C12027242   3.292   3.873   5.167 -0.0695  0.6223  0.4830
   72MOL   C12127243   3.203   3.890   5.039 -0.5236 -0.4749  0.2269
   72MOL   C12227244   3.490   3.940   5.308 -0.6761  0.0254  0.1129
   72MOL   H12327245   3.651   4.059   5.260 -2.0546 -0.8031 -1.7592
   72MOL   H12427246   3.721   3.770   5.195  1.9302  0.5243 -0.8514
   72MOL   H12527247   3.754   3.914   5.107  2.5057 -1.1568  2.0229
   72MOL   H12627248   3.519   3.737   5.112 -0.7118 -0.1283 -2.6176
   72MOL   H12727249   3.549   3.870   4.988 -1.8629 -2.8727 -0.9745
   72MOL   H12827250   3.448   4.016   5.101  1.9966 -0.2119  0.5104
   72MOL   H12927251   3.240   3.920   5.250 -1.2163  0.9275 -0.3905
   72MOL   H13027252   3.286   3.770   5.203  1.6433  0.8733  1.5290
   72MOL   H13127253   3.191   3.998   5.027  1.9594 -0.0034  1.4612
   72MOL   H13227254   3.101   3.858   5.061 -1.1142  2.0884  1.4232
   72MOL   H13327255   3.442   4.015   5.372  0.4201 -1.3668  2.6480
   72MOL   H13427256   3.464   3.844   5.352  0.1576  0.1944  1.0013
   72MOL   C13527257   3.246   3.831   4.902 -0.5628  0.8122  0.3946
   72MOL   C13627258   3.273   3.676   4.910  0.0269  0.0560 -0.9669
   72MOL   C13727259   3.190   3.612   4.808 -0.7616  0.8668  0.3794
   72MOL   C13827260   3.068   3.698   4.785  0.2934  0.3221  0.1089
   72MOL   C13927261   3.005   3.683   4.647 -0.1599  0.1280 -0.4163
   72MOL   C14027262   2.857   3.717   4.650  0.4383 -0.6364 -0.3931
   72MOL   C14127263   3.138   3.838   4.790  0.3541 -0.0718  0.0425
   72MOL   H14227264   3.335   3.878   4.860  1.3755 -0.8418  2.4947
   72MOL   H14327265   3.377   3.646   4.925 -0.0050  1.2667  2.1324
   72MOL   H14427266   3.242   3.639   5.008  0.5348  1.4306 -0.2744
   72MOL   H14527267   3.247   3.610   4.716  0.5609 -0.3493  1.1989
   72MOL   H14627268   3.170   3.514   4.852  0.0689  0.8061  0.6220
   72MOL   H14727269   3.002   3.680   4.870  1.3019  0.3457  0.9150
   72MOL   H14827270   3.030   3.586   4.605  1.4254 -1.6258  4.3212
   72MOL   H14927271   3.063   3.741   4.575 -0.0595 -0.9071 -1.1747
   72MOL   H15027272   2.806   3.681   4.739  1.2367 -0.5294  0.1146
   72MOL   H15127273   2.859   3.826   4.650 -1.3553 -0.5596 -2.7819
   72MOL   H15227274   3.066   3.919   4.787 -0.2432 -0.5509  1.4657
   72MOL   H15327275   3.185   3.853   4.692  1.4679  0.2997  0.6175
   72MOL   C15427276   2.779   3.679   4.525  0.1494 -0.8136 -0.1706
   72MOL   C15527277   2.645   3.752   4.504  0.1130 -0.0612  0.4057
   72MOL   C15627278   2.536   3.650   4.449 -0.6492 -0.3495 -0.2916
   72MOL   C15727279   2.629   3.528   4.412 -0.0548  0.0938  0.2994
   72MOL   C15827280   2.545   3.399   4.404 -1.0375  0.4939 -0.4598
   72MOL   C15927281   2.641   3.291   4.345 -0.4809  0.4590 -0.3449
   72MOL   C16027282   2.746   3.529   4.513 -0.9803 -0.0175  0.0423
   72MOL   H16127283   2.841   3.711   4.441  0.3635  0.3274  0.4066
   72MOL   H16227284   2.609   3.781   4.602  1.4069 -1.5420  1.3486
   72MOL   H16327285   2.653   3.843   4.444 -1.4005 -1.0836 -1.4074
   72MOL   H16427286   2.470   3.613   4.527  0.0681  1.1087  1.0376
   72MOL   H16527287   2.482   3.689   4.363 -1.4380 -2.8193 -0.9574
   72MOL   H16627288   2.679   3.540   4.316  0.3236 -0.8250  0.3844
   72MOL   H16727289   2.457   3.429   4.347 -0.9079  1.2434 -0.2767
   72MOL   H16827290   2.514   3.384   4.508 -1.0727  0.5631 -0.4594
   72MOL   H16927291   2.672   3.324   4.246  2.6762  1.7880  1.0033
   72MOL   H17027292   2.727   3.290   4.412  0.1005  0.5982 -1.0787
   72MOL   H17127293   2.823   3.463   4.473  1.0120  1.8876  0.6208
   72MOL   H17227294   2.697   3.491   4.602 -1.9000  0.5158 -0.2205
   72MOL   C17327295   2.569   3.154   4.337 -0.2401 -0.8634  0.6344
   72MOL   C17427296   2.660   3.052   4.260 -0.2204 -0.0664  0.4649
   72MOL   C17527297   2.649   2.915   4.332  0.2071  0.1002  0.1536
   72MOL   C17627298   2.553   2.938   4.450  0.0997  0.0299 -0.2027
   72MOL   C17727299   2.595   2.860   4.572  0.7124 -0.3050 -0.3794
   72MOL   C17827300   2.587   2.706   4.549 -0.0662 -0.5860 -0.2359
   72MOL   C17927301   2.540   3.089   4.474  0.0511  0.1175 -0.5492
   72MOL   H18027302   2.473   3.165   4.288 -0.5112 -0.4978  1.2473
   72MOL   H18127303   2.762   3.091   4.270  0.2524 -1.8980  3.3696
   72MOL   H18227304   2.632   3.044   4.155  1.7113 -0.1226 -0.0745
   72MOL   H18327305   2.591   2.846   4.270 -0.9635  0.0244  1.3154
   72MOL   H18427306   2.747   2.875   4.360 -0.5517 -3.1298 -1.4635
   72MOL   H18527307   2.457   2.898   4.416  0.0682 -1.3138  1.3786
   72MOL   H18627308   2.536   2.895   4.657 -1.7821 -3.8107 -0.5531
   72MOL   H18727309   2.700   2.882   4.594  1.1546  0.5602 -3.2487
   72MOL   H18827310   2.652   2.677   4.467 -1.2790 -1.8143 -0.7799
   72MOL   H18927311   2.485   2.683   4.519 -0.3920  0.9195 -0.3266
   72MOL   H19027312   2.620   3.114   4.543 -1.4589  1.2917  0.8373
   72MOL   H19127313   2.451   3.138   4.516  0.8555  2.7236 -1.7564
   72MOL   C19227314   2.618   2.623   4.666  0.3668 -0.5333  0.2152
   72MOL   C19327315   2.761   2.625   4.707 -0.6263 -0.1553  0.8088
   72MOL   C19427316   2.794   2.467   4.729 -0.2615  0.3268 -0.5287
   72MOL   C19527317   2.657   2.392   4.741 -0.6149 -0.1172 -0.0675
   72MOL   C19627318   2.594   2.400   4.888  0.5655  0.4194  0.3052
   72MOL   C19727319   2.647   2.302   4.994 -0.5861 -0.7320 -0.5012
   72MOL   C19827320   2.572   2.477   4.646  0.2232  1.0001 -0.0441
   72MOL   H19927321   2.560   2.670   4.745  0.6641 -0.1191  0.1855
   72MOL   H20027322   2.826   2.670   4.631 -0.7394 -0.9384  0.2411
   72MOL   H20127323   2.776   2.681   4.799  0.5085 -0.6123  0.9136
   72MOL   H20227324   2.866   2.447   4.809 -0.5772 -2.6216 -0.9236
   72MOL   H20327325   2.851   2.441   4.640 -2.0151  0.9942 -1.8589
   72MOL   H20427326   2.662   2.285   4.718 -1.0779  0.0305 -0.8662
   72MOL   H20527327   2.488   2.378   4.877  0.3976  0.7451  1.2838
   72MOL   H20627328   2.613   2.502   4.920 -0.6397  1.2985 -1.6721
   72MOL   H20727329   2.754   2.318   5.007 -0.7798 -0.6756  1.0825
   72MOL   H20827330   2.621   2.200   4.964 -1.3432  0.4045 -3.9741
   72MOL   H20927331   2.464   2.464   4.646  0.2694  0.5527 -1.1216
   72MOL   H21027332   2.591   2.459   4.540 -0.8934  1.2482 -0.2984
   72MOL   C21127333   2.590   2.347   5.138  0.2602 -0.3793  0.8812
   72MOL   C21227334   2.643   2.273   5.256  0.1706  0.0139  0.9471
   72MOL   C21327335   2.524   2.276   5.361  0.0401  0.1851 -0.1229
   72MOL   C21427336   2.405   2.336   5.290 -0.4798 -0.6143 -0.8721
   72MOL   C21527337   2.266   2.286   5.328  0.7147  0.2338 -0.7318
   72MOL   C21627338   2.240   2.136   5.324  0.2799 -0.2477 -0.6748
   72MOL   C21727339   2.439   2.323   5.143 -0.0543 -0.2921  1.3489
   72MOL   H21827340   2.606   2.451   5.167 -0.6900 -0.0079  0.1217
   72MOL   H21927341   2.664   2.174   5.217  0.4876  1.1270 -1.8557
   72MOL   H22027342   2.738   2.314   5.289  0.2469  0.5725  0.0649
   72MOL   H22127343   2.507   2.168   5.368 -0.8500  0.3255 -0.0480
   72MOL   H22227344   2.558   2.310   5.458 -1.5199 -0.2635  0.6023
   72MOL   H22327345   2.404   2.442   5.313  0.2631 -1.0915  1.4252
   72MOL   H22427346   2.184   2.350   5.298  0.4865  0.1475 -0.2884
   72MOL   H22527347   2.267   2.310   5.434  0.2434  0.6306 -0.8147
   72MOL   H22627348   2.278   2.102   5.227 -0.0158 -1.4098 -0.3935
   72MOL   H22727349   2.303   2.086   5.397 -0.7487 -0.1921  0.2542
   72MOL   H22827350   2.391   2.394   5.076  1.0241  0.3001  1.1801
   72MOL   H22927351   2.422   2.224   5.101  1.1705  0.6116 -1.3987
   72MOL   C23027352   2.094   2.102   5.331  0.1783 -0.1416  0.9387
   72MOL   C23127353   2.030   2.140   5.463  0.5334 -0.4989  0.3219
   72MOL   C23227354   1.904   2.056   5.483 -0.4044  0.2545  0.0048
   72MOL   C23327355   1.938   1.927   5.402  0.4270 -0.4547 -0.3538
   72MOL   C23427356   1.821   1.871   5.314 -0.2694 -0.4622  0.7040
   72MOL   C23527357   1.695   1.843   5.404  0.4008  0.8297 -0.2921
   72MOL   C23627358   2.063   1.956   5.310  0.3229  0.1628  0.1819
   72MOL   H23727359   2.033   2.156   5.258  2.8792  2.7506  0.7325
   72MOL   H23827360   2.111   2.107   5.529  0.2493  0.9995  1.4406
   72MOL   H23927361   2.021   2.248   5.470 -3.3858 -0.7777  0.7736
   72MOL   H24027362   1.817   2.103   5.436 -0.8763 -2.3648 -1.8124
   72MOL   H24127363   1.898   2.026   5.588 -0.4194  0.0583 -0.0524
   72MOL   H24227364   1.972   1.852   5.474  0.5158  1.4055  1.5952
   72MOL   H24327365   1.866   1.783   5.270  0.9499 -0.4746  1.9281
   72MOL   H24427366   1.803   1.933   5.226  1.9790 -1.0253 -0.1785
   72MOL   H24527367   1.650   1.936   5.438 -0.6436 -0.4643  2.0168
   72MOL   H24627368   1.615   1.809   5.339  0.3800 -1.5151  0.8704
   72MOL   H24727369   2.038   1.923   5.209  0.0946  1.0616 -0.0510
   72MOL   H24827370   2.147   1.892   5.338  0.4080 -0.8357 -2.1896
   72MOL   C24927371   1.723   1.741   5.519  0.0911  0.4326  0.3373
   72MOL   C25027372   1.610   1.739   5.621  0.0898 -0.4087  0.0752
   72MOL   C25127373   1.633   1.608   5.690  0.6154 -0.3925 -0.5303
   72MOL   C25227374   1.681   1.508   5.580 -0.1670 -0.0740 -0.3764
   72MOL   C25327375   1.771   1.389   5.637  0.0447  0.2111 -0.4263
   72MOL   C25427376   1.694   1.287   5.717 -0.4197  0.0817 -0.0407
   72MOL   C25527377   1.754   1.598   5.484 -0.5986 -0.6593 -0.2436
   72MOL   H25627378   1.799   1.786   5.584 -0.6720 -0.7063  2.0479
   72MOL   H25727379   1.616   1.833   5.677  1.1859  0.2329 -1.1029
   72MOL   H25827380   1.520   1.734   5.560 -1.6044  2.0255  2.2463
   72MOL   H25927381   1.545   1.564   5.738  0.9329  0.5236  0.9326
   72MOL   H26027382   1.706   1.613   5.770 -0.1299 -0.2227  0.1512
   72MOL   H26127383   1.594   1.474   5.524  0.0481 -1.1433 -0.0722
   72MOL   H26227384   1.849   1.428   5.702 -0.6360 -0.8704  1.0663
   72MOL   H26327385   1.824   1.336   5.557 -0.5629 -3.1202  1.2766
   72MOL   H26427386   1.591   1.269   5.687  0.2117  0.2504 -2.3965
   72MOL   H26527387   1.689   1.316   5.821 -2.7768  1.3172 -0.4818
   72MOL   H26627388   1.718   1.575   5.383 -0.0309 -1.0834 -0.3502
   72MOL   H26727389   1.863   1.585   5.487 -0.2956  1.6866 -0.0689
   72MOL   C26827390   1.766   1.160   5.715  0.5147 -0.1038 -0.5625
   72MOL   C26927391   1.714   1.047   5.809  0.2117 -0.3273  0.2403
   72MOL   C27027392   1.821   0.938   5.823  0.9067 -0.3987 -0.1299
   72MOL   C27127393   1.950   1.011   5.780 -0.0200  0.6289  0.1166
   72MOL   C27227394   2.069   0.986   5.876 -0.8781  0.7362 -0.8990
   72MOL   C27327395   2.215   1.016   5.826  0.0716  0.0250 -0.4864
   72MOL   C27427396   1.920   1.160   5.760  0.0085 -0.2420  0.1983
   72MOL   H27527397   1.765   1.115   5.616  1.4962 -1.6414  0.1160
   72MOL   H27627398   1.681   1.093   5.903 -1.2401 -0.2085 -0.3104
   72MOL   H27727399   1.621   1.005   5.771  0.8903 -0.0897 -1.7380
   72MOL   H27827400   1.826   0.900   5.925 -1.7876 -2.1229 -0.5792
   72MOL   H27927401   1.796   0.850   5.765 -1.3548  0.5795 -0.7269
   72MOL   H28027402   1.977   0.983   5.678  1.3358  1.4309  0.2324
   72MOL   H28127403   2.074   0.882   5.908  0.5980  0.8541 -0.7330
   72MOL   H28227404   2.054   1.024   5.977  3.8533 -2.1886  1.0577
   72MOL   H28327405   2.243   0.969   5.732 -1.8731  1.4785 -1.8410
   72MOL   H28427406   2.207   1.121   5.797  1.2620  0.4115  0.5510
   72MOL   H28527407   1.928   1.204   5.859  1.2216  0.7233 -0.3129
   72MOL   H28627408   1.995   1.204   5.694 -1.0602  0.5125 -0.5308
   72MOL   C28727409   2.320   0.995   5.938  0.3563 -0.3357  0.4583
   72MOL   C28827410   2.464   1.042   5.888  0.7524  0.0748  0.2221
   72MOL   C28927411   2.533   1.098   6.004 -0.2071 -0.3076 -0.0566
   72MOL   C29027412   2.439   1.108   6.120 -0.4654  0.0774  0.3658
   72MOL   C29127413   2.444   1.235   6.194  0.4621 -0.2061 -0.0424
   72MOL   C29227414   2.579   1.246   6.274 -0.2135 -0.5860 -0.4278
   72MOL   C29327415   2.298   1.084   6.062  0.1670 -1.2118 -0.3828
   72MOL   H29427416   2.333   0.890   5.964 -0.3959  0.1056  2.7894
   72MOL   H29527417   2.521   0.967   5.834  0.9232  0.5052 -0.1977
   72MOL   H29627418   2.450   1.123   5.816 -1.0246 -1.7626 -1.5630
   72MOL   H29727419   2.562   1.199   5.973 -2.1032  0.7999  1.6788
   72MOL   H29827420   2.618   1.038   6.036 -0.3128  0.5861  1.9532
   72MOL   H29927421   2.453   1.027   6.192 -2.0152 -1.8220 -1.3859
   72MOL   H30027422   2.366   1.229   6.270  0.3781 -0.7188 -0.1647
   72MOL   H30127423   2.427   1.317   6.125 -2.3994  0.2201  1.1056
   72MOL   H30227424   2.668   1.220   6.217 -0.2027  1.1839 -1.2263
   72MOL   H30327425   2.576   1.172   6.354  2.5222 -0.3478 -0.0791
   72MOL   H30427426   2.248   1.176   6.033  2.7533  0.6853  0.9980
   72MOL   H30527427   2.227   1.024   6.119 -0.0937 -1.6728 -1.1726
   72MOL   C30627428   2.598   1.383   6.340 -0.2707  0.3310  0.1707
   72MOL   C30727429   2.509   1.404   6.462 -0.2002  0.3353  0.3220
   72MOL   C30827430   2.587   1.508   6.544 -0.2421 -0.7643  0.6383
   72MOL   C30927431   2.723   1.528   6.475 -0.5774 -0.7023  0.5469
   72MOL   C31027432   2.839   1.552   6.570  0.0161  0.7167 -0.8592
   72MOL   C31127433   2.831   1.675   6.669  0.9397  0.1856  0.3171
   72MOL   C31227434   2.742   1.407   6.388  0.1445  0.0059 -0.2490
   72MOL   H31327435   2.574   1.457   6.264 -0.9938 -2.5935 -2.5237
   72MOL   H31427436   2.406   1.429   6.437  0.1356  1.4712  0.0270
   72MOL   H31527437   2.511   1.318   6.529 -0.0663  0.1439  0.0738
   72MOL   H31627438   2.540   1.606   6.557  3.1165  1.2078 -1.2770
   72MOL   H31727439   2.598   1.479   6.648 -2.3227  0.1887  1.1522
   72MOL   H31827440   2.715   1.618   6.414  2.9795  0.8437  2.2122
   72MOL   H31927441   2.853   1.470   6.640 -1.0199 -0.3176 -1.8303
   72MOL   H32027442   2.936   1.556   6.521 -0.2274  1.1859 -1.3174
   72MOL   H32127443   2.899   1.658   6.753  0.1941  0.2515  0.9399
   72MOL   H32227444   2.732   1.669   6.714 -0.1362 -0.0438 -2.0225
   72MOL   H32327445   2.765   1.331   6.463 -3.2100  0.6437  1.4915
   72MOL   H32427446   2.813   1.414   6.306 -1.7948  2.4193 -1.7895
   72MOL   C32527447   2.850   1.804   6.598  0.0796  0.2561 -0.0291
   72MOL   C32627448   2.830   1.938   6.666 -0.2646 -0.0575  0.2735
   72MOL   C32727449   2.896   2.036   6.576  0.7739  0.7310 -0.1973
   72MOL   C32827450   3.017   1.974   6.520  0.3256 -0.0464  0.5879
   72MOL   C32927451   3.049   2.034   6.378 -1.0127 -0.4070 -0.0193
   72MOL   C33027452   3.197   1.999   6.329  0.0508  0.4338 -0.1027
   72MOL   C33127453   2.983   1.822   6.527 -0.6032 -0.1930 -0.6581
   72MOL   H33227454   2.767   1.803   6.527  1.4260  1.6313 -1.6587
   72MOL   H33327455   2.890   1.934   6.756 -1.6684  3.1049  1.4122
   72MOL   H33427456   2.723   1.954   6.682 -0.2138  1.1999 -0.5739
   72MOL   H33527457   2.835   2.055   6.487  0.8896  0.1990 -0.3971
   72MOL   H33627458   2.918   2.133   6.619  1.3002  0.1563  0.8473
   72MOL   H33727459   3.098   1.987   6.591 -1.5719  0.3312  2.7314
   72MOL   H33827460   2.982   1.992   6.303 -0.2637 -1.0081 -0.3637
   72MOL   H33927461   3.031   2.141   6.375 -0.8558 -0.3959 -0.5431
   72MOL   H34027462   3.270   2.030   6.404  1.6049  1.9061 -2.1449
   72MOL   H34127463   3.206   1.891   6.329  2.3832  0.5955  0.3589
   72MOL   H34227464   3.069   1.762   6.556 -0.9278 -0.5031 -0.3376
   72MOL   H34327465   2.958   1.790   6.426 -1.2979  0.2618 -0.6329
   72MOL   C34427466   3.227   2.038   6.185 -0.2039  0.5173  0.0409
   72MOL   C34527467   3.339   1.968   6.124 -0.6894  0.1231  0.5198
   72MOL   C34627468   3.446   2.079   6.097 -0.1987  0.1094  0.2775
   72MOL   C34727469   3.411   2.198   6.191 -0.2041 -0.2071  0.5986
   72MOL   C34827470   3.434   2.342   6.133 -0.7243 -0.1146  0.0981
   72MOL   C34927471   3.582   2.381   6.107 -0.1407 -0.3831 -0.2369
   72MOL   C35027472   3.260   2.183   6.182  0.2101 -0.1561  0.2778
   72MOL   H35127473   3.137   2.024   6.125  0.9383 -0.1465 -1.5252
   72MOL   H35227474   3.318   1.916   6.031  1.0623  1.0919 -0.4393
   72MOL   H35327475   3.383   1.907   6.203 -0.8921 -1.8552 -0.8558
   72MOL   H35427476   3.537   2.037   6.140  1.9264  2.5977 -1.6303
   72MOL   H35527477   3.455   2.099   5.990 -0.8698 -1.4053 -0.0717
   72MOL   H35627478   3.447   2.189   6.293  0.8808  0.7088  0.3097
   72MOL   H35727479   3.396   2.340   6.031  2.1100 -3.5106 -0.9791
   72MOL   H35827480   3.397   2.415   6.205 -0.1639 -1.3071  1.6130
   72MOL   H35927481   3.606   2.325   6.017 -1.0065 -1.4092  0.1574
   72MOL   H36027482   3.650   2.349   6.186 -0.8138 -0.3859  0.3523
   72MOL   H36127483   3.217   2.245   6.261  3.2859  0.5739  1.4901
   72MOL   H36227484   3.222   2.225   6.089 -1.5363  2.2854  2.0404
   72MOL   C36327485   3.608   2.532   6.073  0.1158 -0.0816  0.0699
   72MOL   C36427486   3.744   2.551   6.002 -0.1673 -0.0867  0.5698
   72MOL   C36527487   3.783   2.695   6.040 -0.0789  0.3925  0.2731
   72MOL   C36627488   3.675   2.745   6.138  0.3104 -0.0175 -0.4356
   72MOL   C36727489   3.736   2.837   6.243  0.2791 -0.1786 -0.4348
   72MOL   C36827490   3.629   2.893   6.343  0.2080  0.6230  0.1710
   72MOL   C36927491   3.612   2.620   6.194  0.4125 -0.5374 -0.4172
   72MOL   H37027492   3.521   2.568   6.018  1.3063 -0.3646 -2.0638
   72MOL   H37127493   3.821   2.475   6.014 -0.2127 -0.0984  0.7905
   72MOL   H37227494   3.736   2.548   5.893  1.0835  0.2238  0.4717
   72MOL   H37327495   3.882   2.690   6.084 -0.4224  0.1279  1.0256
   72MOL   H37427496   3.789   2.762   5.954 -0.6255 -0.0132 -0.0810
   72MOL   H37527497   3.589   2.790   6.089 -0.3877  1.4763  2.0679
   72MOL   H37627498   3.815   2.784   6.295  0.0814 -1.2277 -1.1822
   72MOL   H37727499   3.778   2.920   6.185 -2.0596  0.3214 -1.4923
   72MOL   H37827500   3.684   2.963   6.406  0.3944  1.4960 -0.9505
   72MOL   H37927501   3.574   2.820   6.401 -0.7622  0.3651 -1.0452
   72MOL   H38027502   3.677   2.578   6.271 -1.5364 -2.7741  0.0460
   72MOL   H38127503   3.516   2.628   6.244  0.3376  1.7348 -0.8757
   72MOL   H38227504   3.553   2.939   6.280 -0.7208  0.7251  1.3623
   73MOL     C127505   3.993   5.423   1.369 -0.8637  0.4983  0.5469
   73MOL     C227506   3.868   5.445   1.456 -0.8533  0.9934 -0.4589
   73MOL     C327507   3.874   5.598   1.505 -0.7235 -0.6041  0.4667
   73MOL     C427508   4.012   5.647   1.456 -0.3447 -0.7353 -0.6974
   73MOL     C527509   4.087   5.740   1.557 -0.3598  0.0942 -0.0518
   73MOL     C627510   4.227   5.785   1.509  0.1188  0.8451  0.1671
   73MOL     C727511   4.099   5.521   1.425  0.6484 -0.3823 -0.3622
   73MOL     H827512   4.044   5.328   1.383  0.0396  0.4964 -2.3013
   73MOL     H927513   3.869   5.370   1.535 -0.0770  0.3721 -1.0467
   73MOL    H1027514   3.778   5.420   1.400 -1.4585  0.6703  0.6474
   73MOL    H1127515   3.780   5.641   1.470 -0.7797 -0.8155  0.3555
   73MOL    H1227516   3.877   5.604   1.613 -1.3551 -0.7987  0.4985
   73MOL    H1327517   3.999   5.707   1.365  1.0848  0.2096 -0.2993
   73MOL    H1427518   4.025   5.829   1.566 -1.4032 -0.6150 -0.1083
   73MOL    H1527519   4.089   5.699   1.658 -0.7597 -2.5280 -1.0725
   73MOL    H1627520   4.291   5.697   1.504 -1.0673  0.0828 -1.9990
   73MOL    H1727521   4.229   5.829   1.409  1.0375 -0.1078 -0.2386
   73MOL    H1827522   4.169   5.557   1.350 -1.3523  0.3450 -1.9097
   73MOL    H1927523   4.145   5.488   1.519  0.6354 -1.3617 -0.6901
   73MOL    H2027524   3.984   5.430   1.260  1.9533  0.1643  0.2658
   73MOL    C2127525   4.299   5.885   1.609  0.8364 -0.0689  0.1666
   73MOL    C2227526   4.321   5.817   1.748 -0.2259  0.4757 -0.5902
   73MOL    C2327527   4.444   5.886   1.817  0.2553 -0.2337 -0.0217
   73MOL    C2427528   4.504   5.968   1.707 -0.4170  0.1781  0.6485
   73MOL    C2527529   4.660   5.942   1.724 -0.2809  0.3390 -0.1732
   73MOL    C2627530   4.753   6.037   1.642  0.3142  0.6116 -0.1957
   73MOL    C2727531   4.435   5.937   1.569 -0.3295 -0.4569 -0.3116
   73MOL    H2827532   4.230   5.967   1.630 -3.1016 -2.8871 -1.1143
   73MOL    H2927533   4.232   5.831   1.810 -0.0777 -1.8854  0.2352
   73MOL    H3027534   4.338   5.710   1.734 -3.0431 -0.1149  0.2308
   73MOL    H3127535   4.417   5.960   1.893  0.6595 -0.2892  0.1788
   73MOL    H3227536   4.508   5.810   1.862  0.6535 -0.3347 -0.7615
   73MOL    H3327537   4.483   6.073   1.729 -0.9910 -0.1168  1.5103
   73MOL    H3427538   4.684   5.840   1.696  1.0082  0.8803 -1.0746
   73MOL    H3527539   4.684   5.966   1.828  0.8788  0.6477 -0.5013
   73MOL    H3627540   4.749   6.135   1.689  2.8033  0.9076 -0.5305
   73MOL    H3727541   4.720   6.071   1.544  0.6376  1.4846 -0.0057
   73MOL    H3827542   4.420   6.024   1.505 -2.7143  1.4761  2.7338
   73MOL    H3927543   4.492   5.863   1.511 -0.5357 -0.1480 -0.9168
   73MOL    C4027544   4.901   5.994   1.641 -0.3372 -0.1142  0.1158
   73MOL    C4127545   4.940   5.877   1.549  0.5388 -0.5698 -0.4350
   73MOL    C4227546   5.051   5.924   1.454  0.4096 -0.4803  0.4463
   73MOL    C4327547   5.054   6.080   1.452  0.6565 -0.0477  0.0078
   73MOL    C4427548   5.191   6.143   1.434  0.5293 -0.3994 -0.0682
   73MOL    C4527549   5.264   6.099   1.300 -0.0541 -0.0891  0.5223
   73MOL    C4627550   4.992   6.105   1.591  0.0767 -0.8530  0.1644
   73MOL    H4727551   4.924   5.959   1.741  2.5883  0.4743 -0.3160
   73MOL    H4827552   4.853   5.852   1.487 -0.8776  2.6721  0.1274
   73MOL    H4927553   4.980   5.786   1.593 -0.9674 -0.7980  0.5021
   73MOL    H5027554   5.146   5.891   1.497  1.3794  1.5917 -0.0240
   73MOL    H5127555   5.052   5.885   1.352 -0.6112  0.2665  0.1394
   73MOL    H5227556   4.983   6.108   1.374 -0.4706 -0.6025  0.8290
   73MOL    H5327557   5.171   6.250   1.428 -0.3510 -0.5458  0.2366
   73MOL    H5427558   5.254   6.128   1.521 -0.8513  1.3406  1.2741
   73MOL    H5527559   5.195   6.108   1.216  0.1124 -1.3493  0.2429
   73MOL    H5627560   5.278   5.991   1.309  0.4879  0.0534  1.3749
   73MOL    H5727561   5.076   6.118   1.659 -1.3588  0.8084  1.6731
   73MOL    H5827562   4.944   6.201   1.609  0.2347 -1.0831  1.9870
   73MOL    C5927563   5.402   6.162   1.269  0.1154 -0.8061 -0.1904
   73MOL    C6027564   5.492   6.159   1.393  0.1022  0.7888  0.8825
   73MOL    C6127565   5.621   6.086   1.348 -0.3149  0.2253  0.2358
   73MOL    C6227566   5.578   6.000   1.227  0.4359  0.8435  0.5184
   73MOL    C6327567   5.697   5.952   1.141 -0.3395 -0.0853 -0.1542
   73MOL    C6427568   5.654   5.875   1.008  0.0606 -0.5303 -0.2045
   73MOL    C6527569   5.477   6.088   1.158  0.2646 -0.0942 -0.2356
   73MOL    H6627570   5.391   6.264   1.231 -2.8271 -0.5278  1.3083
   73MOL    H6727571   5.510   6.262   1.424 -1.1594  1.8328 -1.7210
   73MOL    H6827572   5.448   6.094   1.468  1.6401 -1.7613 -0.3576
   73MOL    H6927573   5.696   6.158   1.315 -0.4290 -1.2160 -3.4208
   73MOL    H7027574   5.672   6.022   1.420 -1.3908  1.3848  2.0597
   73MOL    H7127575   5.519   5.915   1.261  0.6440 -0.4131 -2.1313
   73MOL    H7227576   5.756   5.888   1.207 -0.3658  0.1410  0.0858
   73MOL    H7327577   5.763   6.036   1.120 -2.0778  1.0470 -1.2669
   73MOL    H7427578   5.605   5.783   1.040  1.2823 -1.0171  0.3043
   73MOL    H7527579   5.585   5.928   0.942 -0.0761 -1.2057 -0.6015
   73MOL    H7627580   5.539   6.160   1.103  2.0493 -1.0328  0.5015
   73MOL    H7727581   5.404   6.037   1.095 -0.0722 -2.4682  2.0336
   73MOL    C7827582   5.778   5.845   0.930  0.1004 -0.7852  0.2413
   73MOL    C7927583   5.893   5.769   0.997  0.0329 -0.2962 -0.3689
   73MOL    C8027584   5.967   5.691   0.886 -0.0339  0.3524 -0.2904
   73MOL    C8127585   5.884   5.687   0.758  0.0221  0.2286  0.1562
   73MOL    C8227586   5.874   5.545   0.700 -0.4816  0.1611 -0.5599
   73MOL    C8327587   5.805   5.540   0.559 -1.3483  0.3197 -0.7631
   73MOL    C8427588   5.748   5.745   0.814 -1.1266  0.0221  0.1410
   73MOL    H8527589   5.817   5.939   0.892 -2.8034 -0.3970 -1.9530
   73MOL    H8627590   5.969   5.831   1.044 -1.4354  0.1190  1.5005
   73MOL    H8727591   5.859   5.699   1.074 -0.8624  0.7954  0.2430
   73MOL    H8827592   6.060   5.744   0.864 -0.4016  0.6168 -1.2416
   73MOL    H8927593   5.978   5.590   0.925 -0.5174  0.4703  0.1589
   73MOL    H9027594   5.933   5.756   0.691  2.1641  0.4684  1.9230
   73MOL    H9127595   5.796   5.490   0.753  0.3943  0.2855  0.8591
   73MOL    H9227596   5.966   5.488   0.691  0.5368  2.0043 -2.1058
   73MOL    H9327597   5.873   5.598   0.496  0.6029  0.6870  1.5662
   73MOL    H9427598   5.716   5.602   0.547 -0.8658  1.1730 -0.0379
   73MOL    H9527599   5.690   5.665   0.859 -2.5955  1.0591  0.1238
   73MOL    H9627600   5.687   5.797   0.740  1.1257 -0.8015 -2.3819
   73MOL    C9727601   5.771   5.400   0.515  0.5801  0.0469 -0.1596
   73MOL    C9827602   5.887   5.295   0.518  0.6718 -0.5517  0.2393
   73MOL    C9927603   5.862   5.197   0.398  0.0347  0.2719 -0.8906
   73MOL   C10027604   5.722   5.231   0.336 -0.0017  1.1396 -0.1694
   73MOL   C10127605   5.707   5.205   0.187  0.0074  0.0295 -0.2527
   73MOL   C10227606   5.567   5.245   0.142 -0.8514  1.3385 -1.0810
   73MOL   C10327607   5.704   5.376   0.387  0.3139  0.4784 -0.2498
   73MOL   H10427608   5.699   5.356   0.584 -0.0613 -0.2164 -0.9765
   73MOL   H10527609   5.983   5.345   0.510  1.0089 -1.4725 -1.8279
   73MOL   H10627610   5.894   5.235   0.609 -1.1504  0.5602  1.1407
   73MOL   H10727611   5.943   5.208   0.326 -0.6288 -1.3393 -1.9023
   73MOL   H10827612   5.874   5.094   0.432  2.0309  0.7515 -0.0680
   73MOL   H10927613   5.653   5.169   0.393 -0.4176  0.9365 -0.8863
   73MOL   H11027614   5.782   5.264   0.134 -0.3475 -0.1337 -0.9489
   73MOL   H11127615   5.731   5.101   0.163  2.0914  0.1885  1.0182
   73MOL   H11227616   5.492   5.186   0.195  0.0033  2.3614  1.3581
   73MOL   H11327617   5.549   5.346   0.178 -2.4638  1.3028 -1.7598
   73MOL   H11427618   5.733   5.446   0.309 -0.1915 -0.1343 -1.0015
   73MOL   H11527619   5.596   5.389   0.399 -0.1077 -2.2614 -0.7711
   73MOL   C11627620   5.559   5.233   7.640  0.0029  0.2884  0.7502
   73MOL   C11727621   5.569   5.096   7.583 -0.3152  0.4365 -0.1657
   73MOL   C11827622   5.454   5.085   7.482  0.2454 -0.5005  0.3909
   73MOL   C11927623   5.405   5.228   7.460 -0.2790  0.2870 -0.3090
   73MOL   C12027624   5.252   5.223   7.431  0.6546  0.3556 -0.1184
   73MOL   C12127625   5.188   5.355   7.378 -0.2155  0.0589 -0.2242
   73MOL   C12227626   5.440   5.307   7.586  0.0167 -0.0329  0.1272
   73MOL   H12327627   5.648   5.287   7.607 -0.8653  1.1933 -0.1442
   73MOL   H12427628   5.552   5.029   0.020 -2.3439 -0.9123 -1.6216
   73MOL   H12527629   5.666   5.065   7.545 -1.5506 -2.0232 -1.4161
   73MOL   H12627630   5.365   5.036   7.520 -0.5261  0.9243  0.4489
   73MOL   H12727631   5.492   5.028   7.398  1.2710 -1.0967  1.2460
   73MOL   H12827632   5.461   5.268   7.375 -0.0870  1.3206  0.3023
   73MOL   H12927633   5.194   5.204   7.521 -0.4148 -1.8766 -1.2434
   73MOL   H13027634   5.231   5.135   7.371 -2.6341  2.5311 -2.3468
   73MOL   H13127635   5.241   5.384   7.287  0.2157 -3.1021 -1.0167
   73MOL   H13227636   5.217   5.436   7.445 -2.1036  1.1799 -0.7185
   73MOL   H13327637   5.454   5.414   7.575  1.3562 -0.2545 -0.3692
   73MOL   H13427638   5.360   5.311   0.013 -2.0590 -1.1861 -1.9454
   73MOL   C13527639   5.045   5.349   7.351  0.7418 -0.2997 -0.3198
   73MOL   C13627640   4.963   5.331   7.480 -0.2103  0.5852 -0.3451
   73MOL   C13727641   4.833   5.389   7.452 -0.0414  0.3588 -1.1157
   73MOL   C13827642   4.862   5.513   7.368  0.0158 -0.9045  0.7553
   73MOL   C13927643   4.757   5.546   7.263 -0.3935 -0.2925  1.0496
   73MOL   C14027644   4.614   5.553   7.312 -0.3572 -0.8546 -0.0042
   73MOL   C14127645   4.990   5.483   7.297  0.0618 -0.4329  0.0874
   73MOL   H14227646   5.009   5.287   7.269 -1.9451 -1.1764  1.4587
   73MOL   H14327647   4.956   5.223   7.492 -0.1395  0.5326 -0.7582
   73MOL   H14427648   5.010   5.376   7.567 -4.0217 -1.1372  2.7474
   73MOL   H14527649   4.766   5.318   7.403 -2.4188  1.6994  0.1054
   73MOL   H14627650   4.785   5.408   7.548  1.2051  0.6478 -0.5310
   73MOL   H14727651   4.871   5.606   7.423 -2.1381  1.0730 -2.0850
   73MOL   H14827652   4.777   5.462   7.197 -2.8438 -1.0319  1.2250
   73MOL   H14927653   4.795   5.632   7.207 -1.1361 -0.2312  0.6381
   73MOL   H15027654   4.590   5.454   7.349 -0.1237 -1.5304 -1.6450
   73MOL   H15127655   4.607   5.619   7.399  3.4445 -1.7339  1.0637
   73MOL   H15227656   5.060   5.565   7.311 -1.0042  0.5369 -0.2330
   73MOL   H15327657   4.981   5.469   7.189  2.0387 -2.0969  0.1037
   73MOL   C15427658   4.503   5.608   7.216 -0.4776 -0.6649 -0.0504
   73MOL   C15527659   4.522   5.759   7.183  0.3897  0.2387  0.2228
   73MOL   C15627660   4.384   5.819   7.143  0.2548 -0.0990  0.1559
   73MOL   C15727661   4.282   5.713   7.176  0.6783 -0.1547 -0.0351
   73MOL   C15827662   4.160   5.755   7.250 -0.1341  0.3217 -0.3375
   73MOL   C15927663   4.076   5.853   7.174 -0.1945 -0.1842 -0.1397
   73MOL   C16027664   4.359   5.610   7.265  0.4602  0.0603  0.7102
   73MOL   H16127665   4.494   5.553   7.122  0.1776 -1.3879  0.3023
   73MOL   H16227666   4.569   5.818   7.262 -1.1174  3.9063 -1.4722
   73MOL   H16327667   4.595   5.767   7.103  0.8025  0.3761  0.6097
   73MOL   H16427668   4.362   5.910   7.198 -0.6604 -0.2169 -0.0032
   73MOL   H16527669   4.377   5.849   7.038 -0.4618  1.0888  0.5371
   73MOL   H16627670   4.257   5.656   7.087  0.9739 -2.0924  1.0741
   73MOL   H16727671   4.188   5.798   7.346 -2.0089  2.0709 -0.5284
   73MOL   H16827672   4.090   5.676   7.275 -3.1820  2.3950 -1.9887
   73MOL   H16927673   4.127   5.930   7.117  0.6769 -0.5291  0.1670
   73MOL   H17027674   4.015   5.794   7.105 -0.3708 -1.4137  1.0401
   73MOL   H17127675   4.314   5.510   7.261 -0.0586  0.3766 -2.5385
   73MOL   H17227676   4.358   5.641   7.370  1.6098 -1.5535  1.2241
   73MOL   C17327677   3.972   5.932   7.260 -0.8689  0.4811 -0.5936
   73MOL   C17427678   4.034   6.040   7.347  0.4034 -0.0346  0.3447
   73MOL   C17527679   3.915   6.130   7.389  0.6507  0.4818  0.5701
   73MOL   C17627680   3.807   6.117   7.272 -0.0237  1.1354 -1.0250
   73MOL   C17727681   3.774   6.254   7.202  0.2452 -0.2095  0.0799
   73MOL   C17827682   3.671   6.228   7.090 -0.1194  0.0106  0.0079
   73MOL   C17927683   3.880   6.020   7.177  0.1642  0.2983 -0.0576
   73MOL   H18027684   3.925   5.853   7.319 -1.6982  1.2756 -0.1802
   73MOL   H18127685   4.098   6.109   7.292  1.4847 -1.2263  0.0725
   73MOL   H18227686   4.084   5.994   7.432  1.6202 -0.3955 -0.5486
   73MOL   H18327687   3.877   6.091   7.483  2.1019 -0.4863  0.7724
   73MOL   H18427688   3.943   6.233   7.412  2.2331  0.8266 -2.6103
   73MOL   H18527689   3.725   6.062   7.318 -0.1511  2.4475  0.3212
   73MOL   H18627690   3.861   6.302   7.157  0.0908 -1.8961 -2.1045
   73MOL   H18727691   3.742   6.320   7.282  1.4911 -0.4906  0.8281
   73MOL   H18827692   3.586   6.180   7.139  1.5449 -1.4412  1.5505
   73MOL   H18927693   3.707   6.159   7.014 -0.6135 -0.8330  0.5287
   73MOL   H19027694   3.940   6.074   7.104  2.1200 -0.6712  0.7773
   73MOL   H19127695   3.809   5.960   7.120  0.6928 -1.0374  0.6456
   73MOL   C19227696   3.638   6.340   7.003 -0.6259  1.0463 -0.2515
   73MOL   C19327697   3.566   6.446   7.083 -0.2537  0.0558  0.9927
   73MOL   C19427698   3.455   6.494   6.996  0.0674  0.4607  0.0832
   73MOL   C19527699   3.420   6.376   6.912  0.1081  0.1819 -0.1892
   73MOL   C19627700   3.327   6.401   6.793  0.0580  0.2993 -0.1224
   73MOL   C19727701   3.279   6.284   6.703  0.2369 -0.3786 -0.0697
   73MOL   C19827702   3.548   6.300   6.884  0.4136  0.6618  0.8169
   73MOL   H19927703   3.729   6.387   6.967 -0.2082 -0.8749 -1.7672
   73MOL   H20027704   3.521   6.407   7.174  0.2579 -1.0217  0.7991
   73MOL   H20127705   3.637   6.525   7.109 -3.3616  1.9731  3.9925
   73MOL   H20227706   3.498   6.569   6.930  1.2972  1.4341  1.9168
   73MOL   H20327707   3.370   6.538   7.050 -0.4613 -1.0042  0.4578
   73MOL   H20427708   3.369   6.303   6.976  1.3637 -1.5447 -1.1297
   73MOL   H20527709   3.390   6.453   6.720  0.2906 -2.0901 -1.6538
   73MOL   H20627710   3.241   6.464   6.815 -0.6130  0.0177 -1.9173
   73MOL   H20727711   3.368   6.257   6.646 -0.0373 -0.4286 -0.4805
   73MOL   H20827712   3.210   6.317   6.625  2.3234  1.2778 -1.3032
   73MOL   H20927713   3.583   6.344   6.790 -0.6726 -0.3584 -0.0710
   73MOL   H21027714   3.527   6.195   6.863 -1.2230  1.2777 -0.6860
   73MOL   C21127715   3.220   6.154   6.765  0.2853  0.6933 -0.3482
   73MOL   C21227716   3.138   6.075   6.661 -0.3798  1.0625 -0.6639
   73MOL   C21327717   3.041   5.991   6.735  1.0125 -0.6301  0.1917
   73MOL   C21427718   3.047   6.036   6.886 -0.1774 -0.4401 -0.3630
   73MOL   C21527719   2.906   6.031   6.946 -0.4788 -0.1834 -0.1471
   73MOL   C21627720   2.898   6.050   7.096  0.1641  0.4415 -0.2753
   73MOL   C21727721   3.120   6.171   6.880  0.0043 -0.0471  0.6033
   73MOL   H21827722   3.301   6.090   6.798  0.4098  0.6065 -0.8226
   73MOL   H21927723   3.072   6.129   6.594 -0.8647 -0.1230 -1.1458
   73MOL   H22027724   3.206   6.014   6.601  1.5309  1.0972  1.3666
   73MOL   H22127725   2.938   6.005   6.701  1.0682  1.3750  0.7767
   73MOL   H22227726   3.062   5.885   6.724  0.5590 -0.8497  1.3636
   73MOL   H22327727   3.116   5.969   6.938  0.0784 -0.4943 -0.7771
   73MOL   H22427728   2.866   5.931   6.932 -0.2886 -0.3673  0.5577
   73MOL   H22527729   2.837   6.101   6.900 -0.4982  1.2334  1.9614
   73MOL   H22627730   2.948   5.964   7.140  0.5277  0.6281 -0.3190
   73MOL   H22727731   2.953   6.143   7.111  1.5254 -0.5079  0.6879
   73MOL   H22827732   3.174   6.191   6.972  0.5543  1.9478 -0.1200
   73MOL   H22927733   3.056   6.258   6.860  3.2111  1.8557 -1.9743
   73MOL   C23027734   2.749   6.049   7.148  0.0716  0.2015 -1.2054
   73MOL   C23127735   2.678   6.179   7.103  0.1027  0.5292 -0.5440
   73MOL   C23227736   2.610   6.246   7.226  0.1088  0.2668  0.2718
   73MOL   C23327737   2.706   6.199   7.338 -0.2796 -1.3847  0.0983
   73MOL   C23427738   2.661   6.221   7.492  0.8599  0.1678  0.8675
   73MOL   C23527739   2.757   6.168   7.596 -0.5491  0.6150 -0.2140
   73MOL   C23627740   2.732   6.052   7.301  0.2971  0.1010  0.3596
   73MOL   H23727741   2.704   5.957   7.111 -2.5409  1.2832 -0.8607
   73MOL   H23827742   2.748   6.246   7.054  0.8850  0.6071  0.6530
   73MOL   H23927743   2.614   6.143   7.023  0.5711  3.7281 -2.3965
   73MOL   H24027744   2.516   6.196   7.249 -0.4864  0.1044 -2.3027
   73MOL   H24127745   2.589   6.353   7.225  3.2762  0.9175  0.0042
   73MOL   H24227746   2.792   6.260   7.313  0.2279 -1.8936  0.5925
   73MOL   H24327747   2.562   6.183   7.516  1.0338 -0.6928  0.2228
   73MOL   H24427748   2.643   6.329   7.500  2.2871  0.5464 -0.9018
   73MOL   H24527749   2.827   6.100   7.548 -0.4807  0.4367  0.1408
   73MOL   H24627750   2.813   6.251   7.639 -0.0880 -0.2481  0.8832
   73MOL   H24727751   2.645   5.987   7.315 -0.1099  0.7767  1.0116
   73MOL   H24827752   2.828   6.016   7.340 -0.0292 -0.8601  0.2954
   73MOL   C24927753   2.699   6.095   0.067 -0.5163  0.3417  0.7003
   73MOL   C25027754   2.629   5.967   0.044 -0.1932 -0.5598 -0.9224
   73MOL   C25127755   2.627   5.917   0.190  0.3339 -0.0096  0.5503
   73MOL   C25227756   2.764   5.948   0.246  0.3492  0.9458 -0.7670
   73MOL   C25327757   2.789   5.930   0.403 -0.3220  0.0286  0.7999
   73MOL   C25427758   2.724   6.040   0.481 -0.0363  0.0024  0.7438
   73MOL   C25527759   2.806   6.073   0.178 -0.1005 -0.0253 -0.1346
   73MOL   H25627760   2.633   6.163   0.119 -1.4210 -0.2732  0.3714
   73MOL   H25727761   2.527   5.965   0.004  0.2768 -0.5306 -2.1260
   73MOL   H25827762   2.694   5.905   7.630 -0.7554 -0.5613 -1.5236
   73MOL   H25927763   2.596   5.812   0.193 -1.0783  0.2761 -2.0488
   73MOL   H26027764   2.560   5.983   0.245  1.0706  1.2299 -0.0060
   73MOL   H26127765   2.825   5.869   0.203  0.3291 -0.5512  1.8253
   73MOL   H26227766   2.895   5.919   0.423 -0.0270  1.5892  0.1768
   73MOL   H26327767   2.739   5.838   0.435 -2.9121  0.6789 -1.1983
   73MOL   H26427768   2.618   6.029   0.459 -0.1870  1.1529  0.8711
   73MOL   H26527769   2.770   6.134   0.449  2.9073 -0.9150  2.0807
   73MOL   H26627770   2.902   6.050   0.132  0.4189  0.2652  0.7982
   73MOL   H26727771   2.807   6.169   0.229 -0.0806  0.2391 -0.6284
   73MOL   C26827772   2.742   6.020   0.631 -0.5850 -0.3568 -0.3034
   73MOL   C26927773   2.670   5.910   0.694 -0.2611  0.4721  0.6771
   73MOL   C27027774   2.675   5.944   0.845  0.7478  0.7140  0.0621
   73MOL   C27127775   2.682   6.096   0.866  0.7492  0.6746 -0.1146
   73MOL   C27227776   2.556   6.156   0.925  0.4160 -1.0109 -0.2486
   73MOL   C27327777   2.434   6.137   0.839 -0.0766 -0.4653  0.0962
   73MOL   C27427778   2.718   6.138   0.718 -0.9150 -0.6945  0.1161
   73MOL   H27527779   2.846   5.991   0.646 -0.1661  1.0348 -0.4765
   73MOL   H27627780   2.563   5.911   0.676 -0.1449  1.0783  0.0197
   73MOL   H27727781   2.695   5.810   0.658 -0.2973  0.9156 -0.5732
   73MOL   H27827782   2.582   5.912   0.893 -0.7384  3.0756 -1.1906
   73MOL   H27927783   2.766   5.906   0.893  0.6194  1.8563  1.2330
   73MOL   H28027784   2.768   6.110   0.932  0.3402 -0.5062  0.6752
   73MOL   H28127785   2.569   6.264   0.939 -1.4210 -0.8926  0.7308
   73MOL   H28227786   2.536   6.119   1.026  0.3644 -0.2286  0.0322
   73MOL   H28327787   2.460   6.146   0.733  0.6057 -1.1161  0.2054
   73MOL   H28427788   2.406   6.032   0.846 -2.2887  0.1253  0.5931
   73MOL   H28527789   2.640   6.194   0.667  1.0188 -0.0740 -2.2904
   73MOL   H28627790   2.799   6.212   0.721  0.2994 -1.8203 -3.0913
   73MOL   C28727791   2.319   6.228   0.880 -0.0316  0.6838  0.2455
   73MOL   C28827792   2.330   6.381   0.861  0.2882  0.2253  0.6413
   73MOL   C28927793   2.210   6.435   0.800  0.2075  0.1164  0.3545
   73MOL   C29027794   2.109   6.328   0.794 -0.2639 -0.6187 -0.8294
   73MOL   C29127795   2.020   6.342   0.678  0.3477 -0.5784 -0.2206
   73MOL   C29227796   1.915   6.451   0.692  0.3705  0.6430  0.4178
   73MOL   C29327797   2.199   6.196   0.792  0.2429  0.3805  0.1603
   73MOL   H29427798   2.299   6.220   0.987 -0.0072 -0.6639  0.1558
   73MOL   H29527799   2.368   6.428   0.952  1.9805  0.2328 -0.0427
   73MOL   H29627800   2.402   6.397   0.781  1.7492  1.6959  2.2009
   73MOL   H29727801   2.230   6.479   0.702  0.4710  0.1066  0.4037
   73MOL   H29827802   2.165   6.513   0.861  1.0654  1.1071 -0.2759
   73MOL   H29927803   2.052   6.330   0.887  1.9356  0.6957  0.5259
   73MOL   H30027804   1.964   6.250   0.664 -1.1519  0.5099 -1.5786
   73MOL   H30127805   2.083   6.369   0.594  0.0982 -0.6829 -0.4414
   73MOL   H30227806   1.943   6.517   0.774 -0.5702  1.5680  0.0086
   73MOL   H30327807   1.819   6.428   0.739  0.1112 -0.5341 -0.6582
   73MOL   H30427808   2.232   6.190   0.689 -2.9244 -1.5351 -0.8280
   73MOL   H30527809   2.150   6.100   0.809  1.8336 -1.2014 -3.6275
   73MOL   C30627810   1.868   6.532   0.568 -0.5640  0.3131 -0.8281
   73MOL   C30727811   1.737   6.602   0.607  0.0703  0.2133  1.0100
   73MOL   C30827812   1.747   6.737   0.538 -1.1183  0.2971  0.6917
   73MOL   C30927813   1.896   6.774   0.548 -0.2096  0.0397  0.0857
   73MOL   C31027814   1.925   6.865   0.671  0.1985  0.4294 -0.4349
   73MOL   C31127815   2.071   6.921   0.669  1.0282 -0.4964 -0.4301
   73MOL   C31227816   1.974   6.647   0.538 -0.0904 -0.0299 -0.3530
   73MOL   H31327817   1.859   6.466   0.482 -1.4199 -0.2428 -0.3152
   73MOL   H31427818   1.657   6.546   0.558  0.5271  1.7730 -1.5982
   73MOL   H31527819   1.729   6.611   0.716 -2.1459 -0.6084  0.9369
   73MOL   H31627820   1.741   6.733   0.429  0.5352  0.1670  0.5921
   73MOL   H31727821   1.680   6.815   0.573  0.1288  1.9593 -0.5762
   73MOL   H31827822   1.912   6.833   0.457 -1.2691  0.2618  0.0290
   73MOL   H31927823   1.855   6.948   0.670  0.3982  0.6384  1.3177
   73MOL   H32027824   1.903   6.809   0.762  0.7418  1.1648  0.1601
   73MOL   H32127825   2.075   7.008   0.604  2.9502  0.3063  0.7258
   73MOL   H32227826   2.136   6.849   0.620  0.1246 -1.4829 -0.2015
   73MOL   H32327827   2.061   6.649   0.603  0.7268 -0.0456 -1.4521
   73MOL   H32427828   2.009   6.636   0.436  0.6957  2.1176 -0.3434
   73MOL   C32527829   2.117   6.964   0.809 -0.5242  0.2715  0.4590
   73MOL   C32627830   2.149   6.838   0.895  0.6676  0.1252 -0.7542
   73MOL   C32727831   2.300   6.807   0.886  0.5387 -0.0876 -0.6727
   73MOL   C32827832   2.365   6.927   0.827  0.7016  1.1354 -0.2162
   73MOL   C32927833   2.495   6.975   0.900 -0.0464 -0.1555  0.4112
   73MOL   C33027834   2.592   7.078   0.824 -0.1392  0.5162 -0.4775
   73MOL   C33127835   2.256   7.034   0.811  0.1882 -0.2604  0.0111
   73MOL   H33227836   2.029   7.015   0.847 -0.4993  2.7431 -2.6271
   73MOL   H33327837   2.083   6.752   0.887  0.7411  0.0861 -0.9397
   73MOL   H33427838   2.135   6.874   0.997 -1.3929 -1.3137 -0.4858
   73MOL   H33527839   2.337   6.795   0.988 -2.7361  0.6365  0.6860
   73MOL   H33627840   2.317   6.715   0.831  1.6062 -0.9512  1.0452
   73MOL   H33727841   2.397   6.896   0.727 -0.6721  2.3778 -1.0500
   73MOL   H33827842   2.463   7.009   0.999  1.7900  1.4512  0.4892
   73MOL   H33927843   2.544   6.881   0.923 -2.1785 -1.2698  0.5389
   73MOL   H34027844   2.668   7.024   0.767 -0.2316  0.2317 -0.3292
   73MOL   H34127845   2.532   7.134   0.751  1.3945  1.3794 -1.0899
   73MOL   H34227846   2.274   7.112   0.737 -2.3347  0.1548 -0.2084
   73MOL   H34327847   2.250   7.086   0.907 -0.5937  0.1148 -0.2325
   73MOL   C34427848   2.668   7.152   0.935 -0.7824 -0.2425 -0.5263
   73MOL   C34527849   2.752   7.267   0.880  0.5173  0.1128  0.0059
   73MOL   C34627850   2.882   7.279   0.963  0.2761  0.0988 -0.5051
   73MOL   C34727851   2.911   7.138   0.995 -0.0088 -0.0497 -0.6251
   73MOL   C34827852   3.013   7.126   1.116 -0.2257 -0.1962  0.3632
   73MOL   C34927853   3.015   6.977   1.169 -0.2192 -0.2076 -0.3929
   73MOL   C35027854   2.771   7.067   1.014  0.4104 -0.2378  0.0234
   73MOL   H35127855   2.596   7.196   1.003  0.1827 -0.0075  0.3424
   73MOL   H35227856   2.698   7.361   0.868 -1.1920 -0.9025 -0.4511
   73MOL   H35327857   2.778   7.250   0.776 -3.5783 -0.4238 -1.0083
   73MOL   H35427858   2.962   7.321   0.902 -0.0489 -0.0390 -1.0244
   73MOL   H35527859   2.880   7.337   1.055 -0.3462  2.1448 -1.7938
   73MOL   H35627860   2.949   7.099   0.901 -0.6167 -1.1706 -0.4177
   73MOL   H35727861   3.112   7.161   1.087  0.2492 -1.8417 -0.0661
   73MOL   H35827862   2.976   7.194   1.193 -0.1401  0.5965 -0.2865
   73MOL   H35927863   3.012   6.909   1.084  1.5402 -3.2615  1.8913
   73MOL   H36027864   2.922   6.954   1.222  0.3609 -0.5518  0.4865
   73MOL   H36127865   2.774   6.965   0.975 -0.4928  0.2123 -1.2571
   73MOL   H36227866   2.753   7.057   1.121  1.8012  1.4201  0.4278
   73MOL   C36327867   3.135   6.944   1.264 -0.2387 -0.1691 -0.1150
   73MOL   C36427868   3.270   6.938   1.198  0.1672 -0.2459  0.2983
   73MOL   C36527869   3.339   6.810   1.234 -0.1036 -0.1315  0.0097
   73MOL   C36627870   3.256   6.741   1.341 -0.4553 -0.1052  0.3568
   73MOL   C36727871   3.244   6.586   1.326 -0.2347 -0.1875 -0.2773
   73MOL   C36827872   3.382   6.517   1.307 -0.2026  0.0827  0.0764
   73MOL   C36927873   3.114   6.803   1.328 -0.0173  0.3339 -0.5519
   73MOL   H37027874   3.124   7.022   1.340  2.0667 -0.7045  0.7892
   73MOL   H37127875   3.259   6.938   1.089 -1.2180  0.9072  0.4221
   73MOL   H37227876   3.325   7.030   1.218  1.6668 -1.4880  2.0344
   73MOL   H37327877   3.337   6.741   1.149  0.6182  1.8364 -1.6530
   73MOL   H37427878   3.444   6.819   1.263  0.1230 -1.0020 -0.5143
   73MOL   H37527879   3.300   6.763   1.438 -0.6655 -0.7014  0.5919
   73MOL   H37627880   3.200   6.542   1.415 -1.3934 -0.0293 -0.7630
   73MOL   H37727881   3.180   6.555   1.243  0.3520  0.5430 -1.0101
   73MOL   H37827882   3.418   6.546   1.209 -1.3904 -1.9051 -0.9695
   73MOL   H37927883   3.394   6.409   1.309 -3.2633 -0.2793  2.0073
   73MOL   H38027884   3.065   6.735   1.259 -2.3581  2.5363 -1.1343
   73MOL   H38127885   3.051   6.813   1.416 -0.9912  0.7735 -1.2890
   73MOL   H38227886   3.453   6.559   1.378  0.9468  1.9206 -2.0935
   74MOL     C127887   0.916   0.895   5.360  0.4662 -0.1151  0.0697
   74MOL     C227888   0.864   0.798   5.249  0.4813  0.4992  0.1233
   74MOL     C327889   0.904   0.660   5.302  0.8700 -0.1935  0.2034
   74MOL     C427890   0.955   0.682   5.452  0.5379  0.4370 -0.5284
   74MOL     C527891   1.056   0.574   5.493  0.6119  0.2358  0.0567
   74MOL     C627892   1.131   0.598   5.625  0.7085 -0.7429 -0.6786
   74MOL     C727893   1.019   0.819   5.438 -0.0034  0.4702  0.2452
   74MOL     H827894   0.960   0.988   5.325 -0.3820  0.1230 -0.4042
   74MOL     H927895   0.914   0.807   5.152 -1.8103  1.4408 -1.0132
   74MOL    H1027896   0.756   0.808   5.233  0.1355 -1.2618  1.2643
   74MOL    H1127897   0.831   0.579   5.293  0.1644  0.1920  2.2095
   74MOL    H1227898   0.980   0.625   5.232  0.8959  0.0046  0.1345
   74MOL    H1327899   0.866   0.682   5.515  1.8229  0.9895  1.3258
   74MOL    H1427900   1.006   0.477   5.489 -0.6723  0.8890  0.1241
   74MOL    H1527901   1.129   0.576   5.413 -0.2372 -1.0910 -0.7639
   74MOL    H1627902   1.152   0.705   5.633 -0.8551 -0.5568  1.2247
   74MOL    H1727903   1.064   0.580   5.709  0.3881  1.4227 -0.4253
   74MOL    H1827904   1.040   0.859   5.537  1.1655  1.0286 -0.2258
   74MOL    H1927905   1.107   0.799   5.378 -1.1588 -3.0883 -0.3760
   74MOL    H2027906   0.837   0.939   5.421  0.7016  0.4831 -0.0567
   74MOL    C2127907   1.265   0.524   5.651  0.2929 -0.0852 -0.1858
   74MOL    C2227908   1.370   0.571   5.558 -0.3484  0.4752 -0.3063
   74MOL    C2327909   1.464   0.655   5.639  0.0350  0.1983 -0.0678
   74MOL    C2427910   1.465   0.582   5.773  0.3451 -0.1637 -0.3898
   74MOL    C2527911   1.526   0.664   5.890  0.2700  0.6120 -0.3275
   74MOL    C2627912   1.577   0.585   6.013  0.5209  0.0702 -1.0368
   74MOL    C2727913   1.310   0.551   5.789 -0.4428 -0.0020 -0.1229
   74MOL    H2827914   1.239   0.418   5.649 -2.7651  0.6140 -0.1113
   74MOL    H2927915   1.429   0.485   5.527 -0.8476  0.7427 -2.0745
   74MOL    H3027916   1.324   0.623   5.474 -1.4597 -1.1366 -0.7218
   74MOL    H3127917   1.564   0.670   5.599  0.9163 -2.5368  1.0090
   74MOL    H3227918   1.411   0.748   5.662 -0.4376 -0.7714  3.0551
   74MOL    H3327919   1.522   0.491   5.753 -0.6475 -0.5747 -1.3991
   74MOL    H3427920   1.468   0.747   5.930  2.8019  2.1770  0.1990
   74MOL    H3527921   1.618   0.700   5.844 -0.7699  0.8337 -2.3147
   74MOL    H3627922   1.653   0.519   5.970 -0.3153 -0.3968 -1.8180
   74MOL    H3727923   1.489   0.533   6.050  1.2567 -0.7073 -0.3531
   74MOL    H3827924   1.293   0.472   5.861  0.0754 -0.0366 -0.0371
   74MOL    H3927925   1.261   0.636   5.835  2.6264  3.5394 -2.9927
   74MOL    C4027926   1.624   0.676   6.117 -0.1274 -0.8633  0.0272
   74MOL    C4127927   1.514   0.770   6.176  0.2626  0.1273 -0.6990
   74MOL    C4227928   1.577   0.822   6.302  0.9102 -0.4009 -0.2556
   74MOL    C4327929   1.636   0.690   6.364 -0.1043  0.2428 -0.0132
   74MOL    C4427930   1.747   0.724   6.467  0.8774 -0.1694 -0.2802
   74MOL    C4527931   1.701   0.792   6.600 -0.0064 -0.2511 -0.1178
   74MOL    C4627932   1.668   0.598   6.243 -0.3096 -0.5451 -0.3878
   74MOL    H4727933   1.703   0.742   6.083 -1.2983 -0.3129 -1.7007
   74MOL    H4827934   1.421   0.719   6.200  0.3374  0.2699 -0.0976
   74MOL    H4927935   1.485   0.858   6.120 -1.0782 -0.6322 -1.2196
   74MOL    H5027936   1.658   0.893   6.283  0.0109  0.5907 -0.3804
   74MOL    H5127937   1.496   0.860   6.363 -0.0560 -1.2633 -0.9819
   74MOL    H5227938   1.565   0.627   6.416  1.6392 -0.7726  1.1698
   74MOL    H5327939   1.806   0.632   6.472 -0.4460 -0.9715  0.8729
   74MOL    H5427940   1.818   0.795   6.424  0.5608 -0.5272 -1.4029
   74MOL    H5527941   1.598   0.766   6.626 -0.1929  0.5720  0.0050
   74MOL    H5627942   1.687   0.900   6.589  0.8815  0.0258  1.4001
   74MOL    H5727943   1.777   0.600   6.238 -0.1744 -2.9365  1.0124
   74MOL    H5827944   1.631   0.496   6.245  1.1469 -1.0775  0.6468
   74MOL    C5927945   1.779   0.764   6.737  0.3160 -0.1750 -0.4051
   74MOL    C6027946   1.784   0.616   6.785 -0.1782 -0.3946  0.2629
   74MOL    C6127947   1.922   0.606   6.843  0.2565 -0.2236 -0.5933
   74MOL    C6227948   2.015   0.690   6.760  0.1901 -0.5748  0.3412
   74MOL    C6327949   2.148   0.729   6.827  0.8690  0.0124 -0.8613
   74MOL    C6427950   2.262   0.626   6.809 -0.2077 -0.1323  0.0762
   74MOL    C6527951   1.926   0.807   6.730 -0.2656  0.3668 -0.0268
   74MOL    H6627952   1.717   0.808   6.815 -1.1451 -2.6170 -0.1568
   74MOL    H6727953   1.697   0.585   6.844 -1.1809  0.9918 -0.4697
   74MOL    H6827954   1.782   0.550   6.698  0.9149 -0.4775  0.2950
   74MOL    H6927955   1.910   0.632   6.948  1.2175  0.8717 -0.7349
   74MOL    H7027956   1.956   0.502   6.844  0.8044 -0.0493  0.6391
   74MOL    H7127957   2.042   0.632   6.671  0.5527  0.0642  0.0304
   74MOL    H7227958   2.125   0.747   6.932 -0.9738  0.4824 -1.3337
   74MOL    H7327959   2.184   0.822   6.784  0.4321  1.1270  1.1237
   74MOL    H7427960   2.212   0.534   6.841 -1.0628  0.4454  0.4258
   74MOL    H7527961   2.270   0.619   6.700 -0.5883  1.6785 -0.0883
   74MOL    H7627962   1.938   0.892   6.797 -0.3600  1.0964 -0.9302
   74MOL    H7727963   1.940   0.832   6.625  2.0798  0.7959  0.3672
   74MOL    C7827964   2.390   0.647   6.882  0.0651  0.8435 -0.0836
   74MOL    C7927965   2.363   0.640   7.040 -0.2950  0.1860 -0.1196
   74MOL    C8027966   2.479   0.551   7.086 -0.2580  0.0390 -0.4524
   74MOL    C8127967   2.565   0.497   6.972  0.4480  0.3373  0.1769
   74MOL    C8227968   2.597   0.339   6.995  1.1011 -0.4089 -0.2219
   74MOL    C8327969   2.693   0.278   6.895  0.2452  0.4284  0.4909
   74MOL    C8427970   2.484   0.527   6.843 -0.8809 -0.0823 -0.5597
   74MOL    H8527971   2.441   0.742   6.866  1.5620  0.5819  2.7857
   74MOL    H8627972   2.379   0.734   7.092 -3.2401 -0.1014  1.4349
   74MOL    H8727973   2.277   0.583   7.076 -0.2618 -0.8060 -1.5500
   74MOL    H8827974   2.545   0.618   7.141  1.0206 -1.1818 -0.4673
   74MOL    H8927975   2.443   0.478   7.158 -1.1245  1.3912  0.5048
   74MOL    H9027976   2.652   0.562   6.967  1.2605 -0.6264  1.3023
   74MOL    H9127977   2.506   0.279   6.998  0.2207  0.9119 -0.0191
   74MOL    H9227978   2.639   0.333   7.095  1.0150  0.4840 -0.1269
   74MOL    H9327979   2.647   0.290   6.797  1.5699  1.4960 -0.0054
   74MOL    H9427980   2.698   0.172   6.918  0.1571  0.4472  0.5981
   74MOL    H9527981   2.421   0.442   6.815 -1.5997  1.5929 -4.4173
   74MOL    H9627982   2.550   0.552   6.760 -0.8622 -1.5241 -0.9936
   74MOL    C9727983   2.840   0.343   6.898  0.7556 -0.0390 -0.3690
   74MOL    C9827984   2.931   0.305   6.789  0.6490 -0.0144  0.6185
   74MOL    C9927985   3.071   0.319   6.833 -0.2556  0.5620  0.3153
   74MOL   C10027986   3.072   0.284   6.985 -0.0778 -0.0292 -0.4812
   74MOL   C10127987   3.117   0.147   7.035  0.2717  0.1196  0.0058
   74MOL   C10227988   3.137   0.127   7.189  0.0520 -0.7968 -0.5044
   74MOL   C10327989   2.921   0.307   7.028  0.2584  0.2595  0.3481
   74MOL   H10427990   2.831   0.451   6.890  1.3803  0.0793  0.4811
   74MOL   H10527991   2.908   0.210   6.741  0.7339  0.0376  0.4764
   74MOL   H10627992   2.917   0.375   6.706 -1.1883  0.9752  1.7029
   74MOL   H10727993   3.140   0.261   6.771 -0.1226  0.7265  0.3100
   74MOL   H10827994   3.110   0.420   6.828 -1.5628  1.1433  1.4415
   74MOL   H10927995   3.134   0.363   7.027  0.2431  0.8588 -2.5678
   74MOL   H11027996   3.052   0.065   7.005  0.0770  0.3043 -0.0749
   74MOL   H11127997   3.212   0.142   6.982  0.6866  4.4261  0.1756
   74MOL   H11227998   3.228   0.180   7.216 -0.8049  0.6940 -0.4889
   74MOL   H11327999   3.056   0.182   7.237  0.2932  0.7606 -1.8172
   74MOL   H11428000   2.884   0.212   7.066 -1.4270  0.6434 -0.2678
   74MOL   H11528001   2.909   0.378   7.110 -2.6647 -2.5789  2.4876
   74MOL   C11628002   3.149   7.630   7.238  0.2355  0.8895  0.4956
   74MOL   C11728003   3.009   7.559   7.245 -0.1596 -0.5646 -0.1455
   74MOL   C11828004   3.019   7.418   7.184 -0.2330  0.5845  0.7403
   74MOL   C11928005   3.164   7.394   7.170 -0.2818  0.0440 -0.3016
   74MOL   C12028006   3.204   7.291   7.061 -0.7275 -0.0852 -0.0679
   74MOL   C12128007   3.235   7.153   7.124 -0.0559  1.3070 -0.8036
   74MOL   C12228008   3.227   7.536   7.138  0.5623  0.8271 -0.1468
   74MOL   H12328009   3.187   7.623   7.340 -2.1223  1.3899  1.4415
   74MOL   H12428010   2.935   7.612   7.186 -1.0170 -2.3252 -0.6797
   74MOL   H12528011   2.975   7.544   7.348 -0.2139  0.6649  0.0242
   74MOL   H12628012   2.978   7.424   7.083 -0.8972  1.1385  1.0340
   74MOL   H12728013   2.969   7.335   7.234  2.8752 -0.9403  1.4509
   74MOL   H12828014   3.195   7.363   7.270  0.5649  1.5746 -0.0855
   74MOL   H12928015   3.298   7.328   7.019 -0.4373 -0.0075  0.6377
   74MOL   H13028016   3.130   7.287   6.981  0.3388  1.1574 -1.1571
   74MOL   H13128017   3.145   7.108   7.166  0.6859  0.1699 -0.4035
   74MOL   H13228018   3.304   7.164   7.207  0.6132 -1.8401 -0.8524
   74MOL   H13328019   3.334   7.545   7.155  0.9286  1.5534 -2.7203
   74MOL   H13428020   3.201   7.546   7.033  1.7786  0.1311 -0.5258
   74MOL   C13528021   3.313   7.050   7.032  0.6759 -0.1009  0.4532
   74MOL   C13628022   3.334   6.914   7.090 -0.6859 -0.6146  0.0246
   74MOL   C13728023   3.375   6.834   6.969  0.3087 -0.3777  0.6889
   74MOL   C13828024   3.319   6.912   6.843  0.7250  0.0469 -0.5052
   74MOL   C13928025   3.430   6.964   6.745 -0.0367  0.7572  0.1677
   74MOL   C14028026   3.444   6.867   6.621  0.2199  0.6414 -0.1032
   74MOL   C14128027   3.239   7.029   6.903 -0.4936 -0.0786  0.2000
   74MOL   H14228028   3.410   7.094   7.011 -0.4618  2.9843  1.3843
   74MOL   H14328029   3.415   6.898   7.162  0.4639 -0.3565 -1.2051
   74MOL   H14428030   3.255   6.858   7.140 -0.4670 -2.1096 -1.2545
   74MOL   H14528031   3.483   6.827   6.971  0.6987  2.0529 -4.3500
   74MOL   H14628032   3.323   6.738   6.970 -0.5735  0.0920  2.1783
   74MOL   H14728033   3.249   6.855   6.783  0.7674  0.4904 -0.9814
   74MOL   H14828034   3.525   6.992   6.791  0.8629  1.2691 -1.9233
   74MOL   H14928035   3.405   7.065   6.711 -0.7768  0.6112  0.2687
   74MOL   H15028036   3.351   6.841   6.571 -0.2242  0.9090  0.5751
   74MOL   H15128037   3.507   6.921   6.550  0.2652 -1.0322 -1.3788
   74MOL   H15228038   3.139   6.990   6.921 -0.6160 -0.0085 -0.2955
   74MOL   H15328039   3.213   7.117   6.843 -1.5650  1.0167  2.2462
   74MOL   C15428040   3.515   6.732   6.644  0.2619  0.5258 -0.4644
   74MOL   C15528041   3.656   6.736   6.695 -0.0859  0.1614 -0.0632
   74MOL   C15628042   3.726   6.609   6.646 -0.0126  0.1380  0.2735
   74MOL   C15728043   3.631   6.549   6.542 -0.4712  0.6522 -0.0510
   74MOL   C15828044   3.703   6.501   6.409  0.6435  0.0627 -0.0240
   74MOL   C15928045   3.803   6.384   6.441  0.4512  0.8181 -0.2998
   74MOL   C16028046   3.524   6.649   6.515 -0.2629  0.4102 -0.1442
   74MOL   H16128047   3.455   6.683   6.721 -1.0496  0.8734 -1.2337
   74MOL   H16228048   3.714   6.811   6.640 -1.0596  0.7798 -0.2703
   74MOL   H16328049   3.682   6.755   6.799 -0.7461  1.4317 -0.1155
   74MOL   H16428050   3.823   6.639   6.608  1.5375 -1.3061  2.9576
   74MOL   H16528051   3.747   6.532   6.720 -0.0637 -1.4329 -1.3199
   74MOL   H16628052   3.584   6.462   6.588 -2.3163  0.7744 -1.6189
   74MOL   H16728053   3.750   6.589   6.365 -1.2165  1.2479  0.3025
   74MOL   H16828054   3.630   6.472   6.334  1.2592  1.7807 -1.3312
   74MOL   H16928055   3.874   6.416   6.518  0.7157 -1.9507  0.6769
   74MOL   H17028056   3.745   6.301   6.481 -0.9453  1.9520  0.0316
   74MOL   H17128057   3.433   6.592   6.496 -0.4026  0.2517  0.9745
   74MOL   H17228058   3.553   6.696   6.420 -1.3356 -0.4274 -0.8990
   74MOL   C17328059   3.879   6.331   6.313  1.0307 -0.5027 -0.0606
   74MOL   C17428060   3.998   6.417   6.285 -0.7088 -0.6580  0.9941
   74MOL   C17528061   4.097   6.329   6.205 -0.4327 -0.3098 -0.0847
   74MOL   C17628062   4.072   6.188   6.250  0.0527  0.2447 -0.8828
   74MOL   C17728063   4.198   6.124   6.300 -0.2384 -0.1448  0.1861
   74MOL   C17828064   4.214   5.976   6.261  0.0159  0.0120 -0.6208
   74MOL   C17928065   3.950   6.200   6.339  0.0401  0.4341 -0.7121
   74MOL   H18028066   3.812   6.322   6.228  1.9682  0.0115 -0.8599
   74MOL   H18128067   4.049   6.452   6.374 -0.5411 -1.1049  1.0740
   74MOL   H18228068   3.972   6.510   6.234 -1.2644 -0.2314  2.0301
   74MOL   H18328069   4.066   6.333   6.101 -1.0499  1.2863  0.1539
   74MOL   H18428070   4.195   6.376   6.211 -0.0731 -1.2221  1.4781
   74MOL   H18528071   4.037   6.146   6.156  0.4025  0.6568 -1.2052
   74MOL   H18628072   4.196   6.128   6.409  0.6161 -0.4670  0.2139
   74MOL   H18728073   4.283   6.189   6.280 -0.2024  0.1308  1.2035
   74MOL   H18828074   4.207   5.979   6.152 -0.6014  1.2897 -0.5575
   74MOL   H18928075   4.127   5.915   6.284 -0.3586  0.8493  0.1985
   74MOL   H19028076   3.988   6.200   6.441 -0.8312 -1.6203 -0.3696
   74MOL   H19128077   3.875   6.122   6.331 -1.0409  0.9563  3.2057
   74MOL   C19228078   4.348   5.910   6.318  0.0612 -0.7266 -0.3357
   74MOL   C19328079   4.371   5.765   6.283  0.9791  0.4023 -0.2067
   74MOL   C19428080   4.443   5.700   6.402  0.0092 -0.0097  0.0045
   74MOL   C19528081   4.421   5.799   6.521  0.0688 -0.2990  1.1244
   74MOL   C19628082   4.551   5.865   6.584  0.0232 -0.1009 -0.3567
   74MOL   C19728083   4.604   5.788   6.711  0.4958  0.0946 -0.2312
   74MOL   C19828084   4.335   5.910   6.472 -0.4314  0.1191 -0.7729
   74MOL   H19928085   4.432   5.976   6.299 -0.1024  0.3476  2.3523
   74MOL   H20028086   4.270   5.724   6.278  1.0916  0.1687 -0.6472
   74MOL   H20128087   4.432   5.751   6.194 -0.8042  1.7673 -1.6934
   74MOL   H20228088   4.548   5.681   6.379 -0.5918 -2.1226 -1.0853
   74MOL   H20328089   4.395   5.605   6.423 -1.6427  0.8513  0.1947
   74MOL   H20428090   4.376   5.738   6.599 -0.5942  0.8384  1.6379
   74MOL   H20528091   4.524   5.962   6.624  1.9359  0.0337  0.6095
   74MOL   H20628092   4.628   5.900   6.515 -0.8407 -1.6963 -2.2012
   74MOL   H20728093   4.647   5.693   6.681 -0.2808 -0.6901  1.0793
   74MOL   H20828094   4.523   5.755   6.777  1.0352 -0.1611  0.3063
   74MOL   H20928095   4.371   6.002   6.517  1.1952 -0.9795  0.2563
   74MOL   H21028096   4.235   5.882   6.506 -0.2457  0.8133  0.3520
   74MOL   C21128097   4.717   5.853   6.798  0.6701 -0.4445  0.1762
   74MOL   C21228098   4.663   5.973   6.888  0.2290  0.9448  0.0820
   74MOL   C21328099   4.760   6.091   6.868 -0.1591  0.3559  0.1178
   74MOL   C21428100   4.885   6.033   6.809 -0.5305  0.6298 -0.5150
   74MOL   C21528101   4.985   6.132   6.745  0.5231  0.2090  0.1732
   74MOL   C21628102   5.131   6.080   6.730 -0.2352 -0.4037  0.4260
   74MOL   C21728103   4.830   5.919   6.722 -0.1358 -0.2160  0.2850
   74MOL   H21828104   4.764   5.786   6.870  2.7962  0.7698 -0.0446
   74MOL   H21928105   4.561   6.004   6.864 -0.0391 -1.2417 -1.7189
   74MOL   H22028106   4.658   5.953   6.995 -1.4998  2.1726  0.2640
   74MOL   H22128107   4.713   6.159   6.797 -0.7461  0.5650  0.7111
   74MOL   H22228108   4.784   6.142   6.961 -1.9893  1.1606  0.1601
   74MOL   H22328109   4.944   5.990   6.890  0.2477  0.0488 -1.3842
   74MOL   H22428110   4.976   6.225   6.801 -1.0592 -0.0628  0.3953
   74MOL   H22528111   4.941   6.159   6.649 -0.1548 -2.1395 -0.2160
   74MOL   H22628112   5.180   6.071   6.827 -0.3700 -2.1178  0.3542
   74MOL   H22728113   5.135   5.982   6.682  0.9753 -0.9735  1.6406
   74MOL   H22828114   4.912   5.853   6.697 -0.4909 -1.2949  1.8979
   74MOL   H22928115   4.803   5.967   6.627  0.9684  0.3719  0.2601
   74MOL   C23028116   5.220   6.179   6.650  0.3966  0.2644  0.0336
   74MOL   C23128117   5.193   6.166   6.501 -0.3523 -0.0282 -0.7083
   74MOL   C23228118   5.321   6.210   6.429 -0.1409  0.2268  0.3126
   74MOL   C23328119   5.434   6.204   6.535 -0.1432  0.0033 -0.6396
   74MOL   C23428120   5.497   6.348   6.539 -0.9994 -0.1592  0.5619
   74MOL   C23528121   5.580   6.394   6.420  0.0261  0.5511  0.1296
   74MOL   C23628122   5.369   6.161   6.668  0.3431  0.2182 -0.8934
   74MOL   H23728123   5.205   6.282   6.684  3.9545  0.2413  1.9577
   74MOL   H23828124   5.185   6.062   6.469  2.2172 -0.7971  0.9431
   74MOL   H23928125   5.104   6.221   6.472 -0.8547  1.0127  2.6416
   74MOL   H24028126   5.296   6.308   6.390  0.7279  1.4487  2.7056
   74MOL   H24128127   5.340   6.145   6.344  0.8329  0.0930  0.6292
   74MOL   H24228128   5.506   6.123   6.527  1.4797  1.4121 -0.7649
   74MOL   H24328129   5.565   6.341   6.624  1.5157  2.3501 -1.1674
   74MOL   H24428130   5.425   6.426   6.567  1.9279  2.6741  0.5604
   74MOL   H24528131   5.671   6.334   6.412 -0.7828 -0.7669  0.5624
   74MOL   H24628132   5.522   6.392   6.328 -0.3254 -2.1043  0.3559
   74MOL   H24728133   5.396   6.227   6.751  0.7591  0.7166 -1.4225
   74MOL   H24828134   5.405   6.063   6.700  1.3699  0.3964 -1.4767
   74MOL   C24928135   5.626   6.536   6.440  0.3891 -0.3479 -0.0795
   74MOL   C25028136   5.728   6.571   6.549 -0.5339 -0.1874 -0.1047
   74MOL   C25128137   5.775   6.708   6.509  0.1909 -0.0860 -0.4910
   74MOL   C25228138   5.773   6.713   6.358 -0.7584 -0.6759  0.3378
   74MOL   C25328139   5.710   6.852   6.299 -0.8090  0.5707  0.2675
   74MOL   C25428140   5.754   6.869   6.158 -0.4107  0.2646  0.0091
   74MOL   C25528141   5.686   6.594   6.314 -0.6045 -0.1360 -0.1780
   74MOL   H25628142   5.539   6.596   6.465  0.1806 -0.2590 -0.9990
   74MOL   H25728143   5.694   6.571   6.652  0.9196 -1.6839  0.3922
   74MOL   H25828144   5.804   6.494   6.535 -0.6492 -0.0210 -1.8386
   74MOL   H25928145   5.869   6.728   6.559 -1.0181  0.9510  1.4457
   74MOL   H26028146   5.706   6.786   6.542 -0.0612 -0.0075 -1.1866
   74MOL   H26128147   5.876   6.694   6.328  0.1385 -0.2620  2.9938
   74MOL   H26228148   5.743   6.937   6.359  0.6835 -1.8699  3.0482
   74MOL   H26328149   5.601   6.851   6.308 -0.8103  0.4570  0.2374
   74MOL   H26428150   5.761   6.767   6.121 -0.1726 -0.3732  1.7643
   74MOL   H26528151   5.854   6.913   6.150  0.4180 -1.5037  0.3649
   74MOL   H26628152   5.759   6.524   6.274  0.1631 -0.9906  2.5729
   74MOL   H26728153   5.610   6.615   6.240  1.9256 -0.5145 -3.0034
   74MOL   C26828154   5.655   6.943   6.064  0.3524 -0.3849 -0.5874
   74MOL   C26928155   5.516   6.874   6.053 -0.6753  0.0341  0.5655
   74MOL   C27028156   5.480   6.856   5.906 -0.6540 -0.4965 -0.3079
   74MOL   C27128157   5.581   6.947   5.830 -0.5208  0.3221 -0.7921
   74MOL   C27228158   5.585   6.933   5.680  0.5282  0.4692  0.3158
   74MOL   C27328159   5.684   7.011   5.602 -0.4301  0.5810  0.3104
   74MOL   C27428160   5.708   6.938   5.916 -1.0491 -0.0201  0.1413
   74MOL   H27528161   5.643   7.046   6.098  3.8216  0.4984 -1.8098
   74MOL   H27628162   5.529   6.776   6.100  0.4381 -1.2574 -2.3049
   74MOL   H27728163   5.453   6.932   6.120  0.1979 -0.1828  1.6007
   74MOL   H27828164   5.513   6.757   5.874  3.1978  0.3116  0.9272
   74MOL   H27928165   5.379   6.873   5.868 -0.2627  1.3248 -0.5504
   74MOL   H28028166   5.537   7.043   5.856  2.0036  1.0532  1.0247
   74MOL   H28128167   5.483   6.963   5.655  0.0193 -0.4847  1.1887
   74MOL   H28228168   5.599   6.828   5.652  0.4349  1.0578 -2.0593
   74MOL   H28328169   5.662   7.116   5.617 -0.6342  0.2846  2.2888
   74MOL   H28428170   5.780   6.990   5.649  0.7170  0.7785 -1.8890
   74MOL   H28528171   5.767   6.852   5.884 -1.4048 -0.5281  0.8270
   74MOL   H28628172   5.768   7.026   5.893 -0.0549 -0.6296  0.3618
   74MOL   C28728173   5.688   6.970   5.446 -0.1501 -0.0830 -0.4562
   74MOL   C28828174   5.563   7.023   5.361  0.1180 -0.1964  0.4906
   74MOL   C28928175   5.629   7.051   5.222  0.4695  0.1466  0.2864
   74MOL   C29028176   5.771   6.993   5.234  0.0719 -0.2214  0.4416
   74MOL   C29128177   5.887   7.059   5.149 -0.1225 -0.0355  0.5889
   74MOL   C29228178   5.853   7.040   4.996 -0.2762 -0.2293 -0.1065
   74MOL   C29328179   5.808   7.009   5.376 -0.5454 -0.0222 -0.1178
   74MOL   H29428180   5.680   6.861   5.455  1.6846 -0.0672  2.0417
   74MOL   H29528181   5.490   6.943   5.358 -1.0868  0.7584  2.8654
   74MOL   H29628182   5.525   7.119   5.395 -0.1295 -0.0446 -0.2026
   74MOL   H29728183   5.634   7.159   5.205  0.7635  0.0246 -0.4039
   74MOL   H29828184   5.563   7.006   5.148  0.6347  0.1769  0.1193
   74MOL   H29928185   5.768   6.886   5.214  2.6821 -0.3068  0.4023
   74MOL   H30028186   5.984   7.022   5.182 -0.5783 -1.9175 -0.1057
   74MOL   H30128187   5.878   7.167   5.162 -0.1391 -0.3172  3.1859
   74MOL   H30228188   5.755   7.087   4.984 -0.0783 -0.1804 -1.5505
   74MOL   H30328189   5.843   6.934   4.972  1.6634 -0.3563 -0.4145
   74MOL   H30428190   5.833   7.112   5.399 -0.8367 -0.3368  1.6445
   74MOL   H30528191   5.895   6.950   5.406 -2.6296 -1.1510  4.1238
   74MOL   C30628192   5.967   7.092   4.907  0.2471  0.6795  0.3039
   74MOL   C30728193   6.090   7.004   4.916 -0.8239 -1.0739 -0.2470
   74MOL   C30828194   6.181   7.074   4.814 -0.0502  0.1960  0.3064
   74MOL   C30928195   6.084   7.137   4.715 -0.0312 -0.0711 -0.4575
   74MOL   C31028196   6.105   7.105   4.563 -0.0409 -0.1407  0.0827
   74MOL   C31128197   6.016   7.180   4.473 -1.1353 -0.3512  0.1816
   74MOL   C31228198   5.952   7.096   4.756  0.0211 -0.3269 -0.7149
   74MOL   H31328199   5.997   7.192   4.937  2.0253  1.0506 -2.5325
   74MOL   H31428200   6.138   7.016   5.013 -0.4043 -0.1432 -0.5657
   74MOL   H31528201   6.071   6.900   4.888  3.7956 -2.0000 -0.4099
   74MOL   H31628202   6.241   7.154   4.854  2.3146 -0.8747 -0.9805
   74MOL   H31728203   6.255   7.012   4.763  0.3375  2.8233 -2.4711
   74MOL   H31828204   6.100   7.244   4.729  1.0233 -0.5490  2.3945
   74MOL   H31928205   6.205   7.138   4.533  0.5791  1.1470  3.2937
   74MOL   H32028206   6.098   6.998   4.541  0.5382  0.3296 -2.6375
   74MOL   H32128207   6.042   7.286   4.476  2.8887 -1.1689 -1.9172
   74MOL   H32228208   5.912   7.169   4.505 -1.1270 -0.8452  0.0300
   74MOL   H32328209   5.917   7.004   4.709  0.9909 -1.3991  0.6152
   74MOL   H32428210   5.888   7.179   4.727 -3.8820 -1.7230  3.2951
   74MOL   C32528211   6.028   7.132   4.331 -0.6335 -0.1138 -0.1438
   74MOL   C32628212   5.988   6.982   4.307  1.2648  0.7015 -0.5064
   74MOL   C32728213   5.956   6.973   4.157 -0.0507  0.4355  0.3645
   74MOL   C32828214   5.920   7.117   4.110 -0.6149 -0.1007  0.4587
   74MOL   C32928215   6.008   7.158   3.986  0.6032 -0.3236 -0.4011
   74MOL   C33028216   6.155   7.166   4.013  0.5047 -0.2915  0.0922
   74MOL   C33128217   5.945   7.205   4.233  0.1809 -0.3664 -0.1404
   74MOL   H33228218   6.133   7.149   4.306 -0.5869 -1.7723 -1.1628
   74MOL   H33328219   5.900   6.955   4.365  0.8158  1.9682 -0.5727
   74MOL   H33428220   6.060   6.912   4.349 -1.7397 -1.3506  1.4109
   74MOL   H33528221   6.035   6.928   4.097  0.2168 -0.6375  1.5058
   74MOL   H33628222   5.869   6.909   4.142  0.3655  0.2191 -1.2246
   74MOL   H33728223   5.819   7.130   4.071 -0.5139  1.5355  0.7125
   74MOL   H33828224   5.997   7.084   3.907  1.9289  0.8398 -1.6971
   74MOL   H33928225   5.976   7.247   3.932  0.5131  0.8971  1.6008
   74MOL   H34028226   6.178   7.237   4.092 -0.6581  1.2785 -0.9446
   74MOL   H34128227   6.203   7.075   4.051  1.7829  1.1686  2.0468
   74MOL   H34228228   5.855   7.240   4.284 -0.1885  0.5684 -1.4078
   74MOL   H34328229   5.988   7.304   4.216 -2.2383  0.8352  0.5747
   74MOL   C34428230   6.228   7.211   3.884 -0.2860  0.1411  0.5156
   74MOL   C34528231   6.378   7.203   3.896 -0.5942 -0.4292  0.3445
   74MOL   C34628232   6.431   7.297   3.786 -0.1133 -0.2591  0.1738
   74MOL   C34728233   6.333   7.417   3.785  0.3668  0.4127 -0.3026
   74MOL   C34828234   6.312   7.477   3.647 -0.1014 -0.1252 -0.2032
   74MOL   C34928235   6.218   7.592   3.644  0.5915  0.1138 -0.3954
   74MOL   C35028236   6.197   7.366   3.852  0.0474  0.2205 -0.0539
   74MOL   H35128237   6.197   7.154   3.797 -1.5037  1.0385  0.3527
   74MOL   H35228238   6.418   7.101   3.893 -2.2176 -1.0610 -0.8354
   74MOL   H35328239   6.404   7.242   3.994  0.7935 -0.3610 -0.0509
   74MOL   H35428240   6.532   7.325   3.814  0.5040  0.8310 -2.9194
   74MOL   H35528241   6.430   7.249   3.689  1.8140 -0.9465  0.4863
   74MOL   H35628242   6.363   7.493   3.856  0.6968  0.0714 -0.0720
   74MOL   H35728243   6.399   7.510   3.591 -1.3118  2.5712 -0.5824
   74MOL   H35828244   6.268   7.393   3.593 -0.7736  0.0133  0.1249
   74MOL   H35928245   6.263   0.018   3.710  0.0049  0.0884  0.0376
   74MOL   H36028246   6.123   7.551   3.678  1.4786 -0.9686  0.8619
   74MOL   H36128247   6.182   7.420   3.946 -0.1517  0.9376 -0.4908
   74MOL   H36228248   6.116   7.366   3.780  0.7687 -2.1445 -0.9100
   74MOL   C36328249   6.196   0.035   3.518 -0.4321  0.1463 -0.0684
   74MOL   C36428250   6.105   0.162   3.545  0.0152  0.2074 -0.8481
   74MOL   C36528251   6.021   0.185   3.420 -0.8381  0.1243 -0.5489
   74MOL   C36628252   6.058   0.078   3.319 -0.3971  0.6958  0.4272
   74MOL   C36728253   5.933   0.041   3.228  0.4643  0.8156 -0.1356
   74MOL   C36828254   5.962   7.591   3.118 -0.0943  0.2278  0.2623
   74MOL   C36928255   6.116   7.614   3.405  0.8087 -0.3610 -0.4351
   74MOL   H37028256   6.291   0.066   3.475  0.3405  0.3774  1.7447
   74MOL   H37128257   6.053   0.158   3.641  3.4022  2.3222  1.1354
   74MOL   H37228258   6.172   0.246   3.561  0.3935  0.2569 -2.6743
   74MOL   H37328259   5.915   0.185   3.446 -1.0688 -0.5667 -1.4695
   74MOL   H37428260   6.030   0.281   3.370 -1.2093 -0.6420 -2.1049
   74MOL   H37528261   6.133   0.114   3.249  1.1095 -0.5548  1.3443
   74MOL   H37628262   5.849   0.002   3.285  1.2396 -1.0434 -0.2317
   74MOL   H37728263   5.906   0.135   3.180  1.0779  1.5313  0.8882
   74MOL   H37828264   5.868   7.567   3.068 -1.2071  1.1153  1.8940
   74MOL   H37928265   5.995   7.494   3.156  0.2618  0.1317 -0.2864
   74MOL   H38028266   6.035   7.550   3.440  2.1703 -2.2812 -0.7523
   74MOL   H38128267   6.182   7.548   3.349  1.9050  1.7833 -1.7110
   74MOL   H38228268   6.040   7.632   3.053 -0.3819 -1.4211 -1.1792
   75MOL     C128269   2.732   2.202   3.267  0.3010  0.5899 -0.1559
   75MOL     C228270   2.844   2.197   3.359 -0.0909  0.2240  0.1052
   75MOL     C328271   2.965   2.286   3.314  0.0560 -1.0376  0.1261
   75MOL     C428272   2.887   2.394   3.243  0.6380  0.1585 -0.4677
   75MOL     C528273   2.985   2.481   3.163  1.2522 -0.0768  0.0749
   75MOL     C628274   2.922   2.601   3.081 -0.0291 -0.7741 -1.3434
   75MOL     C728275   2.774   2.322   3.170 -0.3637  0.4642 -0.3365
   75MOL     H828276   2.725   2.109   3.212 -0.0969 -0.7477  2.1135
   75MOL     H928277   2.875   2.093   3.376  1.5695  1.0435  2.3922
   75MOL    H1028278   2.806   2.226   3.456 -2.4279  0.7168 -0.9398
   75MOL    H1128279   3.031   2.318   3.395  1.6976 -0.1767 -1.5111
   75MOL    H1228280   3.023   2.234   3.237  1.0018  1.1531 -0.6912
   75MOL    H1328281   2.848   2.468   3.313  0.4373  0.0439 -0.4575
   75MOL    H1428282   3.068   2.519   3.223 -0.0657  1.0760  1.1802
   75MOL    H1528283   3.038   2.418   3.091 -0.3969  0.4640 -1.6493
   75MOL    H1628284   2.836   2.562   3.027 -0.7882 -1.9582  0.6606
   75MOL    H1728285   2.883   2.664   3.161  2.2841 -1.1906  0.1696
   75MOL    H1828286   2.693   2.394   3.160 -0.3679  0.6830  1.0685
   75MOL    H1928287   2.812   2.286   3.074  0.7588 -0.1254  0.3134
   75MOL    H2028288   2.641   2.225   3.322  0.7050 -0.6438  1.0339
   75MOL    C2128289   3.014   2.673   2.971 -0.0882  0.0020  0.0078
   75MOL    C2228290   3.042   2.586   2.857 -0.3850 -0.0024 -0.1727
   75MOL    C2328291   3.075   2.681   2.745  0.4801  0.5538 -0.2860
   75MOL    C2428292   3.018   2.822   2.781  0.7615 -0.0758 -0.2386
   75MOL    C2528293   2.942   2.893   2.667  0.2154  0.2731  0.3662
   75MOL    C2628294   2.913   3.040   2.686  0.2690  0.4733  0.1052
   75MOL    C2728295   2.939   2.795   2.913 -0.3103  0.2660  0.2446
   75MOL    H2828296   3.105   2.708   3.020  0.4577 -1.7518  0.2876
   75MOL    H2928297   3.122   2.525   2.896  0.0130 -0.1827 -1.2470
   75MOL    H3028298   2.954   2.524   2.835  0.4076 -1.4921  0.8318
   75MOL    H3128299   3.184   2.690   2.746  0.5510 -0.0617 -1.5674
   75MOL    H3228300   3.042   2.638   2.651  0.2538  1.2968 -0.5491
   75MOL    H3328301   3.107   2.882   2.801 -1.0436  2.9361 -1.0449
   75MOL    H3428302   2.852   2.838   2.640 -0.1384  0.7840  0.4967
   75MOL    H3528303   3.005   2.885   2.579  0.6034  3.3094  0.3296
   75MOL    H3628304   3.002   3.101   2.674  1.1906 -1.1898 -1.7853
   75MOL    H3728305   2.870   3.043   2.786 -0.1976 -0.2679 -0.0696
   75MOL    H3828306   2.941   2.886   2.973  1.2584  0.8367 -0.6672
   75MOL    H3928307   2.842   2.761   2.876  1.3036 -3.2314 -0.9853
   75MOL    C4028308   2.797   3.082   2.601  0.3575 -0.6583 -0.0976
   75MOL    C4128309   2.777   3.235   2.623  0.6353  0.1277  1.0874
   75MOL    C4228310   2.758   3.310   2.494  0.1253 -0.0893 -0.1863
   75MOL    C4328311   2.818   3.219   2.386  0.5076 -0.1809  0.3462
   75MOL    C4428312   2.761   3.245   2.245  0.6260 -0.1043 -0.3084
   75MOL    C4528313   2.790   3.380   2.177  0.0103  0.2555 -0.7328
   75MOL    C4628314   2.802   3.069   2.442  0.4980 -0.2867  0.2973
   75MOL    H4728315   2.700   3.038   2.623  0.0903 -0.4391 -0.8294
   75MOL    H4828316   2.868   3.272   2.670  0.3805  1.6107  0.4530
   75MOL    H4928317   2.697   3.268   2.689 -0.3194  1.3431 -0.6152
   75MOL    H5028318   2.653   3.325   2.468  0.3514 -3.1308 -3.2469
   75MOL    H5128319   2.799   3.410   2.508 -1.0064  0.1271  1.7632
   75MOL    H5228320   2.925   3.243   2.388  0.4618  0.0893 -0.3682
   75MOL    H5328321   2.803   3.170   2.178 -0.8708 -3.4029  2.2477
   75MOL    H5428322   2.652   3.245   2.241  0.6007 -1.4618 -0.1308
   75MOL    H5528323   2.890   3.410   2.209 -0.1309 -0.1216  0.0883
   75MOL    H5628324   2.715   3.447   2.221  1.5787  1.4868  0.1322
   75MOL    H5728325   2.704   3.029   2.414 -0.6259  2.4364  0.2414
   75MOL    H5828326   2.875   3.009   2.386 -0.4498 -0.5410 -0.6826
   75MOL    C5928327   2.770   3.400   2.023  0.3114  0.1773 -1.3933
   75MOL    C6028328   2.627   3.411   1.983  0.0135  0.3767  0.4281
   75MOL    C6128329   2.619   3.472   1.842 -0.1622  0.2077  0.0051
   75MOL    C6228330   2.757   3.531   1.826 -0.0513  0.1530  0.0207
   75MOL    C6328331   2.833   3.467   1.705  0.7818  0.3074  0.4437
   75MOL    C6428332   2.785   3.519   1.568  0.0309  0.2695 -0.7285
   75MOL    C6528333   2.822   3.525   1.960  0.2815  0.0163 -0.3179
   75MOL    H6628334   2.806   3.310   1.974 -0.3166 -0.6595 -0.3390
   75MOL    H6728335   2.589   3.309   1.996  0.8159  0.0016 -0.1476
   75MOL    H6828336   2.565   3.471   2.050  0.9451 -0.1236  1.7609
   75MOL    H6928337   2.599   3.382   1.783  0.8348 -0.5323  0.7800
   75MOL    H7028338   2.555   3.558   1.824  0.4291  0.5541 -0.4297
   75MOL    H7128339   2.738   3.633   1.792  0.4419 -0.6171 -2.6405
   75MOL    H7228340   2.827   3.359   1.705 -1.1456  0.3886  1.4661
   75MOL    H7328341   2.939   3.492   1.704  0.5826  1.1217 -0.8198
   75MOL    H7428342   2.677   3.528   1.563  0.1789  3.5141  0.4455
   75MOL    H7528343   2.804   3.626   1.568 -3.3183  0.9444 -2.6919
   75MOL    H7628344   2.931   3.520   1.967  0.4112  1.8592 -0.8615
   75MOL    H7728345   2.797   3.615   2.016 -1.2967 -0.1648 -0.7035
   75MOL    C7828346   2.833   3.432   1.455  0.7780  0.2922  0.5136
   75MOL    C7928347   2.773   3.295   1.438 -0.3385 -0.3067 -0.9656
   75MOL    C8028348   2.766   3.272   1.289  0.2707  0.0787  0.9679
   75MOL    C8128349   2.847   3.384   1.224 -0.3690 -0.0928 -0.1945
   75MOL    C8228350   2.809   3.408   1.075  0.0603  0.7158  0.2360
   75MOL    C8328351   2.921   3.479   0.995  0.2614 -0.0552  0.2133
   75MOL    C8428352   2.822   3.502   1.316 -0.1441 -0.6175 -0.0222
   75MOL    H8528353   2.932   3.402   1.487  0.3425 -2.4103 -0.5548
   75MOL    H8628354   2.829   3.213   1.480  0.4367 -0.3688 -2.0980
   75MOL    H8728355   2.669   3.297   1.471 -0.1592  0.1009 -0.4177
   75MOL    H8828356   2.785   3.167   1.269 -1.1777  0.1280 -0.8275
   75MOL    H8928357   2.670   3.290   1.239  1.1957  2.6726  0.0470
   75MOL    H9028358   2.950   3.349   1.226 -0.3198  0.0056 -0.8804
   75MOL    H9128359   2.722   3.473   1.070 -1.0269 -0.7155  0.0954
   75MOL    H9228360   2.781   3.316   1.023  0.5611 -0.1376  1.4373
   75MOL    H9328361   3.013   3.420   0.997 -0.1283 -0.8087 -2.0583
   75MOL    H9428362   2.927   3.572   1.050 -1.3002  0.2236 -0.0608
   75MOL    H9528363   2.724   3.550   1.317 -0.0231 -0.3875  1.3578
   75MOL    H9628364   2.900   3.577   1.309  0.1696 -0.9449 -0.0640
   75MOL    C9728365   2.882   3.502   0.848  0.3108  0.0939 -0.2206
   75MOL    C9828366   2.868   3.384   0.745 -0.4283  0.0626  0.2835
   75MOL    C9928367   2.907   3.448   0.613  0.1717 -0.1943  0.4478
   75MOL   C10028368   2.931   3.598   0.639  0.1099  0.0030  0.9712
   75MOL   C10128369   3.024   3.660   0.536  0.0364 -0.0580  0.3593
   75MOL   C10228370   2.974   3.636   0.390  0.2186 -0.3887 -0.1255
   75MOL   C10328371   2.985   3.595   0.781  0.1098  0.4799 -0.4399
   75MOL   H10428372   2.785   3.551   0.854  0.0704 -0.2052 -1.4504
   75MOL   H10528373   2.923   3.294   0.769 -0.8190 -0.7343 -1.6958
   75MOL   H10628374   2.765   3.353   0.728 -0.7904  1.2463  0.2146
   75MOL   H10728375   2.993   3.384   0.590  1.1461  0.8783  1.0757
   75MOL   H10828376   2.827   3.427   0.541  1.4327 -0.0549 -1.0341
   75MOL   H10928377   2.832   3.643   0.632  0.0345 -0.1514  1.0335
   75MOL   H11028378   3.045   3.761   0.570 -1.4720  0.3173  0.2283
   75MOL   H11128379   3.123   3.615   0.539  0.6976  1.3641  0.2455
   75MOL   H11228380   2.990   3.530   0.371  1.1159 -0.3369  0.3088
   75MOL   H11328381   2.868   3.656   0.375 -0.0278 -1.7169 -0.2603
   75MOL   H11428382   3.083   3.550   0.793 -0.7775 -1.4147 -0.2501
   75MOL   H11528383   2.988   3.696   0.822  1.8621  0.7754 -1.2551
   75MOL   C11628384   3.057   3.712   0.294  0.5967  0.0592  0.5807
   75MOL   C11728385   3.027   3.691   0.143  0.1747 -0.5669  0.5386
   75MOL   C11828386   2.959   3.818   0.099 -0.6273  0.1520  0.4014
   75MOL   C11928387   3.037   3.928   0.172 -0.2256  0.8107 -0.5960
   75MOL   C12028388   2.969   4.066   0.187 -0.2803 -0.3368  0.1749
   75MOL   C12128389   3.006   4.152   0.067  0.2535 -0.5407  0.2514
   75MOL   C12228390   3.057   3.863   0.316 -0.2201 -0.8714  0.9169
   75MOL   H12328391   3.157   3.667   0.291  1.0383  1.1375 -2.4322
   75MOL   H12428392   2.949   3.618   0.125  0.2447 -1.3863  3.2641
   75MOL   H12528393   3.115   3.665   0.085 -0.0390 -0.7798  0.3076
   75MOL   H12628394   2.854   3.806   0.127 -0.1963 -0.8522  1.6385
   75MOL   H12728395   2.973   3.827   7.639 -1.2035 -0.2131  0.2975
   75MOL   H12828396   3.135   3.936   0.124  0.3764  2.5898  0.8957
   75MOL   H12928397   2.987   4.115   0.283  4.9960 -0.6986 -0.4433
   75MOL   H13028398   2.863   4.043   0.184 -0.5728  1.0675 -0.5661
   75MOL   H13128399   2.995   4.093   7.623  2.3882  1.1175 -1.1318
   75MOL   H13228400   3.110   4.171   0.093 -0.1169  1.0896  0.6001
   75MOL   H13328401   3.150   3.896   0.364 -1.1588  0.5034  1.8481
   75MOL   H13428402   2.982   3.887   0.391  0.0194 -0.8965  1.1680
   75MOL   C13528403   2.936   4.294   0.050  0.2721  0.2634  0.1345
   75MOL   C13628404   2.780   4.306   0.041  0.0856 -0.0293 -0.3525
   75MOL   C13728405   2.747   4.445   0.101  0.3811 -0.8033 -0.2522
   75MOL   C13828406   2.845   4.458   0.213  0.4729 -0.1185 -0.0387
   75MOL   C13928407   2.851   4.609   0.253  0.0068  0.4255 -0.3325
   75MOL   C14028408   2.953   4.640   0.361 -0.3069  0.0796 -0.5694
   75MOL   C14128409   2.974   4.393   0.162 -0.4395 -0.9236 -0.2611
   75MOL   H14228410   2.971   4.349   7.611 -0.0064 -1.1131 -0.8739
   75MOL   H14328411   2.736   4.299   7.588  0.9379  0.6533 -0.7808
   75MOL   H14428412   2.743   4.227   0.106  0.2256 -0.0183 -0.2588
   75MOL   H14528413   2.766   4.521   0.025 -0.1601 -1.6014 -1.1999
   75MOL   H14628414   2.641   4.443   0.124  0.1171 -2.7654 -1.4956
   75MOL   H14728415   2.818   4.393   0.297 -1.4572 -0.6201 -1.0194
   75MOL   H14828416   2.749   4.640   0.278 -0.9889 -1.1718 -2.2002
   75MOL   H14928417   2.891   4.662   0.168 -2.5523  0.8458 -1.3262
   75MOL   H15028418   2.941   4.577   0.449 -1.2109 -0.4376 -1.0573
   75MOL   H15128419   3.058   4.625   0.333 -0.4516 -1.1942 -0.4636
   75MOL   H15228420   3.018   4.336   0.244 -2.0180 -0.3050  1.0333
   75MOL   H15328421   3.055   4.460   0.135  1.0524 -2.7072 -0.2943
   75MOL   C15428422   2.937   4.782   0.421  0.2621 -0.3850  0.4758
   75MOL   C15528423   2.956   4.908   0.327  0.0505 -0.5902  0.3760
   75MOL   C15628424   2.993   5.020   0.414 -0.7295 -0.5421  0.1733
   75MOL   C15728425   3.037   4.964   0.553  0.3766 -0.2926  0.1101
   75MOL   C15828426   3.189   4.996   0.586 -0.0306 -0.5386 -0.6274
   75MOL   C15928427   3.222   5.151   0.609  0.2529  0.4886  0.5766
   75MOL   C16028428   3.039   4.812   0.535  0.6629  0.4338  0.0606
   75MOL   H16128429   2.838   4.798   0.465  0.8313  1.7302  1.0975
   75MOL   H16228430   3.038   4.873   0.265 -1.1329 -2.6296 -0.0779
   75MOL   H16328431   2.867   4.932   0.269  0.0339 -0.2968  0.5231
   75MOL   H16428432   3.066   5.083   0.364 -1.7959  0.7543  0.2227
   75MOL   H16528433   2.910   5.088   0.433  0.0717  0.0582  1.7253
   75MOL   H16628434   2.964   4.999   0.625 -0.8723 -0.4755 -1.0448
   75MOL   H16728435   3.252   4.967   0.502 -0.4144 -0.6994 -0.8627
   75MOL   H16828436   3.226   4.956   0.680  1.6113  1.4439 -0.4088
   75MOL   H16928437   3.178   5.202   0.524 -1.0443 -0.6285  0.5627
   75MOL   H17028438   3.164   5.176   0.698  0.3947 -1.7917  1.3546
   75MOL   H17128439   3.006   4.769   0.630 -0.7948  0.4511 -0.4272
   75MOL   H17228440   3.136   4.767   0.515 -1.6541 -4.4653 -0.8497
   75MOL   C17328441   3.370   5.191   0.624  0.1453 -0.6055  0.2806
   75MOL   C17428442   3.437   5.257   0.506  0.9681  0.3895 -0.0548
   75MOL   C17528443   3.553   5.339   0.570 -0.0773 -0.2573 -0.6881
   75MOL   C17628444   3.534   5.332   0.721  0.3087  0.2317 -0.5085
   75MOL   C17728445   3.552   5.461   0.796 -0.1808  0.0334  0.1032
   75MOL   C17828446   3.518   5.441   0.948  0.4353  0.2547  0.0473
   75MOL   C17928447   3.397   5.271   0.748 -0.5900 -0.4373 -0.0216
   75MOL   H18028448   3.426   5.103   0.653  0.1959 -0.5800  0.2599
   75MOL   H18128449   3.362   5.323   0.462 -0.3218  0.7729  2.6383
   75MOL   H18228450   3.455   5.182   0.429 -1.3940  0.5281 -0.7889
   75MOL   H18328451   3.658   5.313   0.552 -0.2706 -0.6365 -1.2984
   75MOL   H18428452   3.534   5.443   0.544 -1.9691 -0.2089  0.7876
   75MOL   H18528453   3.607   5.257   0.752  0.2797  1.2294  2.1504
   75MOL   H18628454   3.483   5.534   0.754  1.6311  1.3125 -0.7405
   75MOL   H18728455   3.654   5.497   0.781 -0.6118  1.2555 -0.0360
   75MOL   H18828456   3.550   5.345   0.987 -1.0979 -0.2781  0.0112
   75MOL   H18928457   3.409   5.448   0.957  0.3768 -0.5112 -0.0370
   75MOL   H19028458   3.318   5.344   0.764 -1.9617 -1.8587 -0.1149
   75MOL   H19128459   3.412   5.202   0.831 -1.5831  0.7497  1.1633
   75MOL   C19228460   3.577   5.551   1.032  0.5737  0.4609 -0.0293
   75MOL   C19328461   3.560   5.522   1.182 -0.0068  0.4980  0.0603
   75MOL   C19428462   3.463   5.634   1.239 -0.1638 -0.6640 -0.4144
   75MOL   C19528463   3.395   5.685   1.118 -0.3609  1.5914 -0.0705
   75MOL   C19628464   3.328   5.817   1.144  0.3604 -0.3121 -0.2833
   75MOL   C19728465   3.236   5.858   1.033 -0.5725  0.3101  0.3294
   75MOL   C19828466   3.502   5.682   1.010 -0.6813  0.4365  0.4351
   75MOL   H19928467   3.684   5.549   1.013  0.8160  1.0217  1.1761
   75MOL   H20028468   3.517   5.422   1.190 -0.4400  0.6070 -0.8090
   75MOL   H20128469   3.648   5.524   1.246  1.0126 -0.4025 -1.2781
   75MOL   H20228470   3.528   5.710   1.282 -2.7834  2.3658 -1.6054
   75MOL   H20328471   3.392   5.597   1.312 -0.8588 -0.6869 -1.1008
   75MOL   H20428472   3.313   5.617   1.096  0.9003  0.4070 -1.1543
   75MOL   H20528473   3.397   5.900   1.161  0.7083 -0.3347 -1.5348
   75MOL   H20628474   3.267   5.811   1.234 -1.3760  0.3242 -1.4011
   75MOL   H20728475   3.172   5.770   1.031  1.1440 -0.9581 -0.3286
   75MOL   H20828476   3.284   5.866   0.935  0.5202  0.4445  0.8743
   75MOL   H20928477   3.573   5.760   1.038  1.4890 -1.4302  0.2387
   75MOL   H21028478   3.473   5.700   0.906  0.7588 -0.9633 -0.2274
   75MOL   C21128479   3.173   5.996   1.057 -0.2296 -0.1099  0.0489
   75MOL   C21228480   3.054   6.025   0.963 -0.2547 -0.0660  0.7491
   75MOL   C21328481   3.064   6.167   0.923  0.6881  0.0171 -0.2610
   75MOL   C21428482   3.168   6.236   1.008 -0.6109  0.2300  0.2578
   75MOL   C21528483   3.236   6.356   0.946  0.7713  0.1461  0.2205
   75MOL   C21628484   3.154   6.484   0.933 -0.0502 -0.5695 -0.9829
   75MOL   C21728485   3.260   6.114   1.046 -0.2880 -0.6954 -0.2987
   75MOL   H21828486   3.136   6.000   1.159  2.0321 -0.3762  0.9007
   75MOL   H21928487   3.060   5.967   0.871 -2.3208  0.4611  0.2724
   75MOL   H22028488   2.957   5.997   1.004  0.7088  0.8206  3.7444
   75MOL   H22128489   3.084   6.172   0.815 -0.7692 -0.4367 -0.5613
   75MOL   H22228490   2.966   6.215   0.924  0.1367 -1.1229  0.3629
   75MOL   H22328491   3.119   6.274   1.097  1.2999 -0.1627  1.4945
   75MOL   H22428492   3.263   6.327   0.845 -1.6246 -0.2860 -0.3374
   75MOL   H22528493   3.328   6.368   1.002  0.6767  0.4796  0.3070
   75MOL   H22628494   3.072   6.466   0.864  0.1399 -0.8233 -1.1445
   75MOL   H22728495   3.101   6.500   1.026  0.8219 -1.8026 -0.2657
   75MOL   H22828496   3.308   6.136   1.142 -0.7665  0.5379 -0.3389
   75MOL   H22928497   3.343   6.094   0.978 -0.2030  0.6557 -0.6025
   75MOL   C23028498   3.241   6.604   0.891  0.3802  0.1610  0.1284
   75MOL   C23128499   3.167   6.731   0.902 -0.2264 -0.1610 -0.0034
   75MOL   C23228500   3.239   6.834   0.819 -0.3460  0.0879  0.9786
   75MOL   C23328501   3.290   6.749   0.701 -0.6059  0.2226 -0.1245
   75MOL   C23428502   3.422   6.791   0.641 -0.0728 -0.2608 -1.0235
   75MOL   C23528503   3.455   6.718   0.505  0.6291  0.0756 -0.3262
   75MOL   C23628504   3.290   6.605   0.755  0.7372 -0.1130  0.0249
   75MOL   H23728505   3.326   6.617   0.959  1.3187 -3.3872 -0.2376
   75MOL   H23828506   3.069   6.708   0.860  0.4475 -2.8026 -0.1872
   75MOL   H23928507   3.146   6.746   1.008  0.6931  0.9209  0.0324
   75MOL   H24028508   3.333   6.871   0.859  0.4211 -0.5892 -0.1606
   75MOL   H24128509   3.172   6.917   0.795  0.1057  0.6251  1.5485
   75MOL   H24228510   3.207   6.757   0.631 -0.6530 -3.9764 -0.6840
   75MOL   H24328511   3.490   6.752   0.717 -2.7465 -1.0254  1.0269
   75MOL   H24428512   3.435   6.899   0.632 -1.9509  0.0715  0.0775
   75MOL   H24528513   3.453   6.609   0.510 -1.7158  0.1083 -0.2022
   75MOL   H24628514   3.375   6.738   0.433 -1.0217  1.1489  1.7675
   75MOL   H24728515   3.389   6.560   0.758 -0.1097 -2.0565 -0.5075
   75MOL   H24828516   3.231   6.547   0.684 -0.2315  1.8245 -0.7803
   75MOL   C24928517   3.587   6.772   0.441 -0.0660 -0.8481 -0.1325
   75MOL   C25028518   3.618   6.698   0.305 -0.3634  0.3204 -0.1576
   75MOL   C25128519   3.719   6.791   0.242  0.3997  0.1260  0.0995
   75MOL   C25228520   3.655   6.933   0.262  0.0505  0.1566  0.5213
   75MOL   C25328521   3.750   7.043   0.236  0.4451  0.6368 -0.4477
   75MOL   C25428522   3.770   7.063   0.086  0.1774 -0.1558 -0.0283
   75MOL   C25528523   3.595   6.925   0.405 -0.0581  0.2623 -0.4020
   75MOL   H25628524   3.666   6.746   0.511  0.2707  0.5156  0.0080
   75MOL   H25728525   3.639   6.592   0.319  1.6905  0.9658  1.9429
   75MOL   H25828526   3.530   6.690   0.242  0.0608  1.4859 -0.9026
   75MOL   H25928527   3.735   6.767   0.137  1.5033 -0.1866  0.3344
   75MOL   H26028528   3.810   6.781   0.302  0.5716 -2.0139 -0.5037
   75MOL   H26128529   3.565   6.945   0.201  0.5286  0.2506 -0.1657
   75MOL   H26228530   3.844   7.028   0.288 -0.2011 -0.1832  0.5015
   75MOL   H26328531   3.722   7.138   0.283  0.9395  0.0340  1.1094
   75MOL   H26428532   3.693   7.128   0.044 -0.2365 -0.6492 -0.0322
   75MOL   H26528533   3.759   6.970   0.031 -0.5090 -0.0655 -0.0531
   75MOL   H26628534   3.493   6.962   0.420  0.0376  0.3195  0.1431
   75MOL   H26728535   3.659   6.990   0.465 -0.6706  1.9236 -1.4922
   75MOL   C26828536   3.907   7.124   0.051  0.2925 -0.2353 -0.4425
   75MOL   C26928537   3.924   7.157   7.553  0.4389 -0.4530  0.0465
   75MOL   C27028538   4.068   7.153   7.514 -0.1435  0.6011  0.5067
   75MOL   C27128539   4.135   7.076   7.620  0.7238  0.6588 -0.4998
   75MOL   C27228540   4.211   6.948   7.571 -0.0980  0.0142  0.1637
   75MOL   C27328541   4.298   6.913   0.046  0.1920  0.1954 -0.9088
   75MOL   C27428542   4.022   7.035   0.076 -0.2319 -0.0391  0.1165
   75MOL   H27528543   3.917   7.213   0.113 -0.1027 -2.0255  2.2752
   75MOL   H27628544   3.866   7.091   7.489  1.9742 -0.3097 -1.5417
   75MOL   H27728545   3.871   7.251   7.533  0.1955 -1.1252 -2.7491
   75MOL   H27828546   4.085   7.118   7.412 -0.6883 -0.4526  0.7803
   75MOL   H27928547   4.105   7.256   7.516 -0.1189  0.5783  1.4303
   75MOL   H28028548   4.210   7.138   0.022  0.4616  0.1063  0.5973
   75MOL   H28128549   4.265   6.970   7.479 -0.3921  2.1178  0.4790
   75MOL   H28228550   4.138   6.870   7.548 -0.1673 -0.5544  2.1813
   75MOL   H28328551   4.346   7.000   0.090 -0.7830 -0.3544  1.3300
   75MOL   H28428552   4.239   6.880   0.132  0.3895 -3.2618 -1.9864
   75MOL   H28528553   3.993   6.930   0.075 -3.1722  0.7200 -2.0740
   75MOL   H28628554   4.057   7.055   0.177 -1.2886  0.2946  0.4268
   75MOL   C28728555   4.404   6.808   0.014 -0.7752  0.5878 -0.3326
   75MOL   C28828556   4.493   6.845   7.538  0.3880  0.5698  0.0785
   75MOL   C28928557   4.636   6.792   7.572  0.1463  0.5657 -0.2669
   75MOL   C29028558   4.624   6.716   0.057  0.8222 -0.3167 -0.5379
   75MOL   C29128559   4.750   6.712   0.145  0.1974  0.3565 -0.0275
   75MOL   C29228560   4.879   6.661   0.078  0.3790  0.0979 -0.3702
   75MOL   C29328561   4.507   6.781   0.123  0.2624 -0.0623 -0.2253
   75MOL   H29428562   4.359   6.710   7.647  0.4500  0.1864 -1.5729
   75MOL   H29528563   4.455   6.792   7.451  1.8317 -2.0944  1.0288
   75MOL   H29628564   4.492   6.952   7.517 -0.5193  0.7322  0.9133
   75MOL   H29728565   4.698   6.880   7.582 -0.9031  1.5062 -1.8589
   75MOL   H29828566   4.686   6.732   7.496  2.5552  2.3338 -0.1234
   75MOL   H29928567   4.599   6.611   0.038  0.2038 -0.2987  0.1920
   75MOL   H30028568   4.741   6.665   0.242 -1.4405 -1.0201 -0.8095
   75MOL   H30128569   4.776   6.816   0.165 -0.2204  0.4072  0.2641
   75MOL   H30228570   4.968   6.691   0.132  0.7397 -3.0188  0.8576
   75MOL   H30328571   4.882   6.708   7.626  0.2544  0.5137 -0.1784
   75MOL   H30428572   4.529   6.879   0.163 -0.8541 -0.4519  1.3944
   75MOL   H30528573   4.470   6.731   0.213 -0.8128  0.6233 -0.2730
   75MOL   C30628574   4.880   6.508   0.046  0.4491 -0.2278 -0.0639
   75MOL   C30728575   5.000   6.472   7.618 -0.0324 -0.7677  0.1721
   75MOL   C30828576   5.019   6.323   7.644  0.3143  0.1040  0.3467
   75MOL   C30928577   4.913   6.274   0.104 -0.1912 -0.4195  0.5375
   75MOL   C31028578   4.962   6.174   0.208  0.4356  0.1436  0.0029
   75MOL   C31128579   4.854   6.133   0.310 -0.4079 -0.0586  0.8053
   75MOL   C31228580   4.885   6.417   0.161 -0.9885  0.1566  0.4105
   75MOL   H31328581   4.792   6.480   7.635 -0.1969  2.8639 -0.6382
   75MOL   H31428582   4.990   6.483   7.510  1.0958 -1.6586 -0.0381
   75MOL   H31528583   5.089   6.526   0.001 -0.1507  0.3427 -1.4519
   75MOL   H31628584   5.012   6.267   7.550 -1.1436  0.4652  0.2261
   75MOL   H31728585   5.122   6.307   0.027  1.1219 -2.0606 -3.2246
   75MOL   H31828586   4.820   6.232   0.065 -0.8203 -0.7472  2.3698
   75MOL   H31928587   5.003   6.082   0.166  0.9294 -1.1030  3.0506
   75MOL   H32028588   5.046   6.213   0.266 -0.3998  1.7742  0.1418
   75MOL   H32128589   4.765   6.088   0.265  0.0875  1.9902 -2.4264
   75MOL   H32228590   4.830   6.221   0.369 -2.2790 -0.3772  0.5809
   75MOL   H32328591   4.963   6.444   0.232  2.0908 -1.1944 -2.3140
   75MOL   H32428592   4.793   6.427   0.217 -0.0058  1.3770  1.8477
   75MOL   C32528593   4.904   6.015   0.398 -0.4249  0.0723  0.3133
   75MOL   C32628594   5.032   6.037   0.482  0.5951 -0.0824 -0.6788
   75MOL   C32728595   4.982   6.111   0.610 -0.1545  0.6093 -0.2302
   75MOL   C32828596   4.831   6.108   0.622  0.0730 -0.0917  0.2018
   75MOL   C32928597   4.767   6.074   0.756  0.1310  0.1308  0.0874
   75MOL   C33028598   4.782   6.175   0.872  0.6781 -0.3416 -0.2017
   75MOL   C33128599   4.798   5.997   0.513 -0.6765 -0.0542  0.1220
   75MOL   H33228600   4.909   5.929   0.332  1.0665  0.0655  0.4211
   75MOL   H33328601   5.101   6.094   0.420 -2.4833  1.0417 -3.2243
   75MOL   H33428602   5.082   5.942   0.500  1.5119  0.3807 -0.7246
   75MOL   H33528603   5.043   6.080   0.695 -0.4871 -1.4610 -0.7063
   75MOL   H33628604   4.998   6.217   0.594  1.3872  0.4905  0.4864
   75MOL   H33728605   4.788   6.203   0.590 -0.4327 -0.3613  0.0732
   75MOL   H33828606   4.660   6.063   0.742 -0.0703  1.7425  0.2933
   75MOL   H33928607   4.816   5.981   0.786 -0.0051 -0.1447 -0.5320
   75MOL   H34028608   4.885   6.191   0.904 -0.0049  0.7875  1.4894
   75MOL   H34128609   4.747   6.270   0.831 -0.8692  0.2986  2.4938
   75MOL   H34228610   4.698   6.000   0.468  0.5296 -1.2604 -2.7306
   75MOL   H34328611   4.817   5.899   0.555  1.9731  0.8550  1.1199
   75MOL   C34428612   4.685   6.141   0.982  0.2805  0.6036  0.2810
   75MOL   C34528613   4.693   6.244   1.099  0.0340  0.1656 -0.1760
   75MOL   C34628614   4.639   6.157   1.209 -0.6425  0.6949 -0.0703
   75MOL   C34728615   4.708   6.017   1.191 -0.1998  0.5812  0.1768
   75MOL   C34828616   4.632   5.908   1.264  0.0348 -0.4713  0.4787
   75MOL   C34928617   4.711   5.780   1.263  0.4317  0.1041 -0.1083
   75MOL   C35028618   4.712   6.001   1.036  0.5983 -0.0664  0.4939
   75MOL   H35128619   4.583   6.154   0.946  1.5182 -0.9296 -4.1341
   75MOL   H35228620   4.636   6.335   1.082 -0.0138  0.1372 -0.1656
   75MOL   H35328621   4.792   6.278   1.129  0.7930 -1.0365 -1.2190
   75MOL   H35428622   4.654   6.204   1.306 -1.7848  0.1606  0.3732
   75MOL   H35528623   4.533   6.133   1.202 -0.0153 -3.1472  2.2499
   75MOL   H35628624   4.812   6.026   1.226 -0.9504  0.6016  2.5316
   75MOL   H35728625   4.635   5.933   1.370  0.1201  0.3958  0.2777
   75MOL   H35828626   4.535   5.877   1.224 -0.6813  0.4985  1.4400
   75MOL   H35928627   4.810   5.819   1.284  0.0876  0.0868  1.6025
   75MOL   H36028628   4.721   5.743   1.161  0.7616  3.0616 -1.1944
   75MOL   H36128629   4.800   5.947   0.998  0.9528  1.8228 -1.4685
   75MOL   H36228630   4.635   5.931   1.004  2.2040 -0.3522 -3.0416
   75MOL   C36328631   4.663   5.663   1.351 -0.1423  0.1214  0.6159
   75MOL   C36428632   4.779   5.581   1.398 -0.0665  0.0842 -0.3229
   75MOL   C36528633   4.721   5.444   1.425 -0.7602  0.1879 -0.0884
   75MOL   C36628634   4.573   5.449   1.380  0.0279  0.6298  0.0708
   75MOL   C36728635   4.529   5.319   1.314 -0.1950 -0.1303 -0.0449
   75MOL   C36828636   4.381   5.322   1.279  0.1997 -1.1791  0.2690
   75MOL   C36928637   4.562   5.573   1.290 -0.3851 -0.2589 -0.3826
   75MOL   H37028638   4.611   5.699   1.439 -1.3554 -1.1670  0.4340
   75MOL   H37128639   4.843   5.575   1.309 -0.2094 -2.5084 -0.2740
   75MOL   H37228640   4.847   5.618   1.475 -1.1542 -1.5976  1.4788
   75MOL   H37328641   4.782   5.365   1.382 -1.2582 -0.1210 -0.2258
   75MOL   H37428642   4.714   5.434   1.534 -1.3014  1.4824  0.0057
   75MOL   H37528643   4.505   5.468   1.463 -0.5965 -1.7068  0.1553
   75MOL   H37628644   4.590   5.298   1.226  2.0468 -2.7781  2.0267
   75MOL   H37728645   4.553   5.233   1.377  1.2508  1.3678  1.5145
   75MOL   H37828646   4.323   5.370   1.357 -0.4554 -1.0332 -0.2980
   75MOL   H37928647   4.345   5.221   1.257  1.2747 -1.2126 -1.4888
   75MOL   H38028648   4.587   5.549   1.187 -0.3239  0.1880 -0.4715
   75MOL   H38128649   4.468   5.628   1.291  0.4733  1.2471 -0.0172
   75MOL   H38228650   4.359   5.395   1.201 -0.6571 -0.1389  1.4827
   76MOL     C128651   7.288   5.174   7.348  0.1845  0.3292 -0.7282
   76MOL     C228652   7.207   5.060   7.415 -0.0747  0.4287 -0.2883
   76MOL     C328653   7.300   4.938   7.396  0.9355 -0.6909  0.0415
   76MOL     C428654   7.392   4.958   7.269 -0.2956 -0.1319 -0.8791
   76MOL     C528655   7.371   4.857   7.149  0.5321  0.0797 -0.0142
   76MOL     C628656   7.483   4.875   7.041 -0.0329  0.3053  0.2078
   76MOL     C728657   7.358   5.109   7.231 -0.3720  0.1834  0.0854
   76MOL     H828658   7.221   5.257   7.326 -1.9374 -0.4189  2.5782
   76MOL     H928659   7.110   5.040   7.369  0.3417 -0.6816 -0.6978
   76MOL    H1028660   7.192   5.085   7.520 -1.0104 -0.6907 -0.1348
   76MOL    H1128661   7.362   4.922   7.485 -1.1402 -1.4685  1.4039
   76MOL    H1228662   7.243   4.844   7.401  1.6855 -1.0689  2.1824
   76MOL    H1328663   7.495   4.969   7.302 -1.3042  1.7162  1.8903
   76MOL    H1428664   7.368   4.753   7.183 -3.4575  0.1455  0.0120
   76MOL    H1528665   7.272   4.874   7.107  0.3596  3.0929  1.4906
   76MOL    H1628666   7.479   4.975   6.999 -3.8444 -0.3714 -1.2548
   76MOL    H1728667   7.576   4.878   7.098  1.4460  0.8844 -2.1559
   76MOL    H1828668   7.444   5.170   7.205 -0.6530  0.9783  0.9773
   76MOL    H1928669   7.291   5.105   7.145 -0.3031  1.6358 -0.0513
   76MOL    H2028670   7.374   5.201   7.409 -0.5560  0.1540  0.4185
   76MOL    C2128671   7.481   4.778   6.927  0.5422 -0.6076  0.6030
   76MOL    C2228672   7.407   4.822   6.803  0.2894  0.1990 -0.6360
   76MOL    C2328673   7.509   4.839   6.689 -0.8245 -0.2059  0.0841
   76MOL    C2428674   7.621   4.742   6.722 -0.8667 -0.1524 -0.6122
   76MOL    C2528675   0.108   4.763   6.644  1.2555 -0.0788 -0.4788
   76MOL    C2628676   0.219   4.654   6.673  0.2258 -0.3975  0.6081
   76MOL    C2728677   7.626   4.750   6.873 -0.1461  0.4216  0.1353
   76MOL    H2828678   7.432   4.686   6.958 -0.4790 -0.5364 -0.7448
   76MOL    H2928679   7.347   4.738   6.766  0.3121 -0.2656  0.3498
   76MOL    H3028680   7.333   4.902   6.811 -3.1655 -2.7848 -0.9668
   76MOL    H3128681   7.454   4.817   6.597  0.7753 -1.3581 -0.6129
   76MOL    H3228682   7.557   4.937   6.685  0.9298 -1.1191 -1.8796
   76MOL    H3328683   7.591   4.639   6.706  2.1785 -1.3494  0.8868
   76MOL    H3428684   0.142   4.865   6.663 -0.0108  0.3994 -0.7399
   76MOL    H3528685   0.090   4.766   6.536  0.6410  1.9882 -0.3426
   76MOL    H3628686   0.187   4.561   6.626 -1.3856 -0.1060  1.1122
   76MOL    H3728687   0.206   4.619   6.775  0.0188  1.1272  1.1055
   76MOL    H3828688   0.014   4.659   6.921 -2.1702  0.2173  1.3096
   76MOL    H3928689   0.043   4.833   6.903  2.0517 -0.9200 -0.7490
   76MOL    C4028690   0.369   4.700   6.636  0.6275  0.1725 -0.2417
   76MOL    C4128691   0.472   4.612   6.704 -0.4171  0.1404  0.3491
   76MOL    C4228692   0.608   4.639   6.635 -0.2203 -0.3145  0.3911
   76MOL    C4328693   0.576   4.667   6.490 -0.4525  0.2233  0.6159
   76MOL    C4428694   0.662   4.771   6.416 -0.2002 -0.3685 -0.1701
   76MOL    C4528695   0.812   4.747   6.423  0.6337 -0.0925 -0.5678
   76MOL    C4628696   0.419   4.709   6.490  0.0204  0.7567 -0.5598
   76MOL    H4728697   0.382   4.794   6.690  1.3578 -1.0340  1.6839
   76MOL    H4828698   0.454   4.507   6.679  1.1395 -0.4294  1.4968
   76MOL    H4928699   0.467   4.622   6.812 -0.5158  0.6864  0.2961
   76MOL    H5028700   0.655   4.724   6.683  0.6656  0.5988 -2.0296
   76MOL    H5128701   0.673   4.552   6.645 -2.2288 -1.6827  2.0293
   76MOL    H5228702   0.579   4.570   6.441  0.1466 -0.2116  1.5028
   76MOL    H5328703   0.621   4.780   6.315 -1.9139  3.1844  0.7386
   76MOL    H5428704   0.639   4.875   6.443  1.1397 -0.6157  1.9668
   76MOL    H5528705   0.838   4.659   6.364  1.5365  0.3973 -0.9083
   76MOL    H5628706   0.843   4.719   6.523 -2.0001  1.2246  0.6639
   76MOL    H5728707   0.398   4.802   6.437 -3.3821 -0.2965 -1.2273
   76MOL    H5828708   0.366   4.632   6.433  0.8012  1.0739 -1.7212
   76MOL    C5928709   0.892   4.873   6.383  0.0359  0.6183 -0.0661
   76MOL    C6028710   1.049   4.845   6.400  1.0555  0.0346 -0.6574
   76MOL    C6128711   1.121   4.932   6.292  0.1538  0.0695 -0.7923
   76MOL    C6228712   1.015   4.935   6.180  0.3802  0.1266  0.5004
   76MOL    C6328713   1.025   5.055   6.091  0.4562 -0.1070  0.1421
   76MOL    C6428714   0.929   5.051   5.966  0.7544  0.3964  0.0853
   76MOL    C6528715   0.873   4.917   6.237 -0.2977 -0.2160 -0.2121
   76MOL    H6628716   0.869   4.956   6.449  2.2111  1.1283  0.1010
   76MOL    H6728717   1.087   4.862   6.501 -1.4668 -1.1328  0.5516
   76MOL    H6828718   1.059   4.740   6.374 -0.2211  0.0894 -1.3960
   76MOL    H6928719   1.138   5.030   6.334 -2.1710  0.2857 -0.2934
   76MOL    H7028720   1.220   4.893   6.269 -0.6307 -1.9781 -0.8041
   76MOL    H7128721   1.028   4.844   6.122 -1.0520  0.5993 -0.6027
   76MOL    H7228722   1.130   5.054   6.063  0.6731  2.1087  0.7447
   76MOL    H7328723   1.017   5.147   6.149  1.9482 -0.3224  0.6910
   76MOL    H7428724   0.949   4.959   5.912  0.8696  2.1835 -3.0410
   76MOL    H7528725   0.824   5.035   5.991  1.1029 -1.5689  0.3822
   76MOL    H7628726   0.803   4.999   6.229 -1.2339 -0.8245  1.4511
   76MOL    H7728727   0.836   4.829   6.184  1.1869 -0.6915 -0.4911
   76MOL    C7828728   0.944   5.172   5.873 -0.1128  0.2491  0.6400
   76MOL    C7928729   0.856   5.150   5.750 -0.1906  0.5469  0.7557
   76MOL    C8028730   0.778   5.280   5.735  0.7028  0.2054 -0.8335
   76MOL    C8128731   0.851   5.382   5.827  0.4223  0.3808 -0.0429
   76MOL    C8228732   0.777   5.504   5.868 -0.3286 -0.0496 -0.3536
   76MOL    C8328733   0.867   5.611   5.942 -0.2431  0.0157 -0.2948
   76MOL    C8428734   0.897   5.295   5.939 -0.1122 -0.0421 -0.1740
   76MOL    H8528735   1.045   5.186   5.833 -0.4054  0.1676 -0.1486
   76MOL    H8628736   0.913   5.126   5.661 -2.0833  0.0135 -0.3479
   76MOL    H8728737   0.782   5.072   5.769  0.7080 -0.7044 -0.7738
   76MOL    H8828738   0.777   5.301   5.628 -1.7361 -0.7778 -1.0335
   76MOL    H8928739   0.674   5.253   5.753 -0.2078  3.3096 -1.1295
   76MOL    H9028740   0.946   5.409   5.782 -0.6907 -0.3324 -2.9038
   76MOL    H9128741   0.688   5.478   5.925  0.1167  1.0767  0.8934
   76MOL    H9228742   0.737   5.540   5.774 -2.1322 -1.0223  0.0109
   76MOL    H9328743   0.950   5.629   5.874 -0.5676  0.4099 -0.5859
   76MOL    H9428744   0.909   5.568   6.033  1.0510 -2.1712 -1.8670
   76MOL    H9528745   0.813   5.278   6.006 -0.9957 -1.8354 -1.6994
   76MOL    H9628746   0.968   5.345   6.006 -0.3795  1.2093 -0.8110
   76MOL    C9728747   0.785   5.735   5.968  0.0937  0.0341 -0.0164
   76MOL    C9828748   0.863   5.861   6.020  0.9306  0.3684  0.2601
   76MOL    C9928749   0.805   5.891   6.156  0.2763 -0.2070 -0.1157
   76MOL   C10028750   0.661   5.849   6.144 -0.2294  0.1952 -0.2662
   76MOL   C10128751   0.595   5.832   6.277 -0.9704 -0.3313  0.4673
   76MOL   C10228752   0.547   5.968   6.342  0.2633  0.2570 -0.1157
   76MOL   C10328753   0.661   5.718   6.057  0.0106 -0.1171 -0.1398
   76MOL   H10428754   0.758   5.771   5.869  2.6550 -2.2301 -1.6064
   76MOL   H10528755   0.971   5.848   6.022  0.7659 -1.5350 -1.4442
   76MOL   H10628756   0.839   5.950   5.961 -1.4811  0.4124  1.2637
   76MOL   H10728757   0.852   5.842   6.241 -1.8016 -1.4279  0.3710
   76MOL   H10828758   0.812   5.999   6.165 -0.0233 -0.1975  0.0441
   76MOL   H10928759   0.612   5.926   6.083 -1.7302 -0.6447 -0.1387
   76MOL   H11028760   0.512   5.764   6.258  0.3319 -2.2239  1.5053
   76MOL   H11128761   0.663   5.782   6.346 -0.3818  1.4842  1.2296
   76MOL   H11228762   0.630   6.029   6.377 -1.0678  2.0338 -0.0294
   76MOL   H11328763   0.492   6.013   6.260  1.7418  1.4966 -0.4427
   76MOL   H11428764   0.665   5.624   6.113 -1.0490 -1.5870 -2.4466
   76MOL   H11528765   0.579   5.704   5.986  0.5270  1.0391 -0.9846
   76MOL   C11628766   0.466   5.940   6.470 -0.2132  0.3043  0.6396
   76MOL   C11728767   0.426   6.061   6.547  0.0631 -0.6843 -0.3885
   76MOL   C11828768   0.272   6.069   6.555  0.8915 -0.2918  0.4317
   76MOL   C11928769   0.222   5.925   6.540  0.6646 -0.6100  0.2004
   76MOL   C12028770   0.081   5.908   6.478 -0.4820  0.6182 -0.0429
   76MOL   C12128771   7.618   5.948   6.573 -0.3756  0.0389 -0.6661
   76MOL   C12228772   0.328   5.876   6.439  0.7476 -0.1567 -0.3192
   76MOL   H12328773   0.511   5.872   6.543  2.8034  2.0413  0.4517
   76MOL   H12428774   0.452   6.159   6.507 -0.1382  0.8823  3.1113
   76MOL   H12528775   0.461   6.057   6.651  0.3051 -1.1838 -0.4869
   76MOL   H12628776   0.226   6.134   6.480  1.9324 -0.0005  0.0286
   76MOL   H12728777   0.244   6.096   6.657 -0.9376  2.2590 -0.6764
   76MOL   H12828778   0.232   5.867   6.632 -0.5799 -3.7365 -1.5585
   76MOL   H12928779   0.069   5.804   6.450 -1.2502  0.7375 -0.1690
   76MOL   H13028780   0.082   5.971   6.389  0.3310  0.7122  0.0241
   76MOL   H13128781   7.618   6.054   6.597  1.1079 -0.2436  0.5961
   76MOL   H13228782   7.643   5.898   6.666 -0.4330 -0.2616 -0.8133
   76MOL   H13328783   0.320   5.768   6.428 -3.0202 -0.2728  2.6811
   76MOL   H13428784   0.297   5.905   6.338  0.3846 -0.6974 -0.3599
   76MOL   C13528785   7.476   5.927   6.519 -0.4839 -0.4367  0.6106
   76MOL   C13628786   7.450   5.774   6.486 -0.0398  0.1036  0.7273
   76MOL   C13728787   7.301   5.758   6.491  0.1484  0.6231  0.1723
   76MOL   C13828788   7.245   5.849   6.604 -0.2395  0.0170  0.5720
   76MOL   C13928789   7.105   5.903   6.572  0.3722  0.8388 -0.2082
   76MOL   C14028790   6.984   5.824   6.639 -0.3546  0.1969  0.1349
   76MOL   C14128791   7.360   5.953   6.626 -0.4181  0.1943  0.5208
   76MOL   H14228792   7.462   5.980   6.425  3.0480  0.0692  0.3173
   76MOL   H14328793   7.495   5.745   6.391  0.6914  1.7061  0.5567
   76MOL   H14428794   7.492   5.700   6.554 -1.7051 -1.6470 -0.1058
   76MOL   H14528795   7.253   5.774   6.394  2.0505  0.3489 -0.8415
   76MOL   H14628796   7.268   5.656   6.511  1.4761  0.5443  2.0656
   76MOL   H14728797   7.246   5.788   6.694 -4.2246 -0.3712  0.4666
   76MOL   H14828798   7.101   5.905   6.463 -0.1407 -1.4825 -0.2388
   76MOL   H14928799   7.090   6.005   6.607 -1.5899  0.6404 -0.4697
   76MOL   H15028800   7.025   5.796   6.737 -1.4572  2.8242  1.4088
   76MOL   H15128801   6.894   5.885   6.645 -0.2566  0.3405  0.1707
   76MOL   H15228802   7.407   5.939   6.723  0.8762  0.2064 -0.0892
   76MOL   H15328803   7.330   6.057   6.610 -0.1937 -0.1690 -2.6008
   76MOL   C15428804   6.952   5.692   6.564 -0.4084  0.0348 -0.7711
   76MOL   C15528805   6.874   5.718   6.436  0.1595 -0.1693 -0.0162
   76MOL   C15628806   6.803   5.586   6.402 -0.0737  0.1292 -0.0152
   76MOL   C15728807   6.801   5.503   6.533  0.6449 -0.6781 -0.3366
   76MOL   C15828808   6.654   5.451   6.564  0.0467 -0.3445  0.5662
   76MOL   C15928809   6.648   5.360   6.686 -0.6429  0.0319 -0.4843
   76MOL   C16028810   6.851   5.602   6.638  0.3530 -0.0835  0.3015
   76MOL   H16128811   7.039   5.628   6.548 -1.1890 -1.0957 -0.5551
   76MOL   H16228812   6.792   5.784   6.461  0.0700  0.4293 -1.8130
   76MOL   H16328813   6.937   5.750   6.353 -1.8808  0.6175 -1.2888
   76MOL   H16428814   6.706   5.599   6.353  0.0372 -4.6521 -1.8225
   76MOL   H16528815   6.862   5.534   6.326 -0.9313  0.7737 -1.1485
   76MOL   H16628816   6.863   5.413   6.527 -0.4600 -1.5169  0.4959
   76MOL   H16728817   6.623   5.399   6.474  3.6910 -1.0874 -0.3376
   76MOL   H16828818   6.580   5.528   6.588 -0.3341 -0.6159  0.2705
   76MOL   H16928819   6.733   5.293   6.676 -0.0916  0.3845  1.8164
   76MOL   H17028820   6.656   5.423   6.774 -0.2103 -3.6894  2.2539
   76MOL   H17128821   6.898   5.560   6.727 -1.4984  2.3428  2.5200
   76MOL   H17228822   6.774   5.670   6.677  0.9061  0.8015 -0.1237
   76MOL   C17328823   6.512   5.295   6.700 -0.4246 -0.2678 -0.0359
   76MOL   C17428824   6.477   5.202   6.588 -0.8631 -0.1783 -0.3398
   76MOL   C17528825   6.353   5.128   6.653 -0.3894  0.8922  0.8596
   76MOL   C17628826   6.345   5.171   6.798  0.4231  0.0366  0.0551
   76MOL   C17728827   6.308   5.052   6.892 -0.5225 -0.8805  0.4293
   76MOL   C17828828   6.166   4.998   6.863 -0.5628  0.1904  0.2126
   76MOL   C17928829   6.480   5.218   6.830  0.5904  0.3079 -0.2547
   76MOL   H18028830   6.438   5.375   6.708 -1.7146 -1.4618  0.1614
   76MOL   H18128831   6.552   5.123   6.585 -0.6351  0.0520 -0.7084
   76MOL   H18228832   6.447   5.245   6.493 -0.0451 -0.4720 -0.7326
   76MOL   H18328833   6.263   5.151   6.595  0.5441 -0.9594 -1.4001
   76MOL   H18428834   6.369   5.021   6.640 -1.6868  0.8649 -0.7339
   76MOL   H18528835   6.277   5.255   6.812 -2.4581 -2.7865  3.9774
   76MOL   H18628836   6.307   5.096   6.992  0.4219  2.0287 -0.8059
   76MOL   H18728837   6.390   4.980   6.893 -1.0073 -1.4428  0.4747
   76MOL   H18828838   6.152   4.953   6.765  0.5732 -0.8206  0.4927
   76MOL   H18928839   6.105   5.088   6.859  0.0825  0.5549 -1.8000
   76MOL   H19028840   6.541   5.128   6.838 -1.1598 -0.7543  1.6291
   76MOL   H19128841   6.484   5.267   6.927 -0.5253  0.1925 -0.1487
   76MOL   C19228842   6.123   4.901   6.983 -0.8622  0.2437  0.0784
   76MOL   C19328843   5.976   4.859   6.963  0.4851 -0.0770  0.4568
   76MOL   C19428844   5.920   4.831   7.103  0.0325 -0.2233 -0.2959
   76MOL   C19528845   5.987   4.933   7.198 -0.5044  0.6639  0.3386
   76MOL   C19628846   6.007   4.879   7.338 -0.3724  0.5411 -0.0600
   76MOL   C19728847   5.876   4.854   7.425  0.0017 -0.2676 -0.7851
   76MOL   C19828848   6.115   4.972   7.124 -0.1349 -0.4448 -0.2940
   76MOL   H19928849   6.184   4.812   7.000 -0.9093  0.6813  2.7001
   76MOL   H20028850   5.920   4.937   6.912  0.4407 -0.7890 -0.5885
   76MOL   H20128851   5.993   4.768   6.906  2.6489 -0.8888  2.2874
   76MOL   H20228852   5.932   4.726   7.127 -2.5143 -0.4033  0.3303
   76MOL   H20328853   5.811   4.831   7.096  0.1201  0.3659 -1.9844
   76MOL   H20428854   5.921   5.019   7.206  0.7932  1.5384  2.0696
   76MOL   H20528855   6.072   4.937   7.403  2.6652 -3.9088  1.0849
   76MOL   H20628856   6.056   4.784   7.319 -0.9391 -0.1778  1.9075
   76MOL   H20728857   5.817   4.785   7.364 -1.6143  0.2495  0.1875
   76MOL   H20828858   5.815   4.943   7.436 -0.6863 -0.5775 -1.9728
   76MOL   H20928859   6.202   4.942   7.183  0.0664 -0.1429 -0.4314
   76MOL   H21028860   6.109   5.081   7.114  2.3556 -0.0692  1.6617
   76MOL   C21128861   5.908   4.783   7.560  0.1715  0.1706  0.2435
   76MOL   C21228862   5.778   4.732   7.633  0.3258  0.0201  0.7553
   76MOL   C21328863   5.824   4.719   0.137  0.0071  0.6425 -0.1206
   76MOL   C21428864   5.966   4.771   0.144  0.7113  0.2615 -0.0482
   76MOL   C21528865   5.995   4.839   0.284  0.0882  0.2420 -0.0285
   76MOL   C21628866   6.140   4.872   0.301 -0.5463 -0.3291 -0.1482
   76MOL   C21728867   5.977   4.865   0.018 -0.6459  0.0038 -0.4094
   76MOL   H21828868   5.969   4.694   7.546  1.1671  1.2513 -2.6320
   76MOL   H21928869   5.697   4.803   7.618  1.2658  0.9136 -0.1519
   76MOL   H22028870   5.748   4.629   7.611  2.5761 -0.3855 -0.6183
   76MOL   H22128871   5.766   4.791   0.194 -1.4826 -0.1819 -0.5599
   76MOL   H22228872   5.801   4.622   0.181 -0.9804  1.1733  0.5516
   76MOL   H22328873   6.034   4.685   0.134  1.4963  0.6885  1.5033
   76MOL   H22428874   5.952   4.784   0.368  0.3207 -0.3312 -0.2865
   76MOL   H22528875   5.933   4.929   0.279  1.3513  1.2174  1.2129
   76MOL   H22628876   6.196   4.784   0.332 -2.7549 -0.9120  2.3160
   76MOL   H22728877   6.181   4.918   0.210 -0.7502  4.4698  2.0467
   76MOL   H22828878   6.084   4.878   0.001 -0.6721  0.9563  0.1244
   76MOL   H22928879   5.920   4.956   0.035  0.6890  0.8496 -0.4170
   76MOL   C23028880   6.168   4.974   0.408 -0.6858  0.1244  0.1102
   76MOL   C23128881   6.323   4.990   0.417  0.1169 -0.6513  0.3227
   76MOL   C23228882   6.335   5.069   0.547  0.0500 -0.3298  0.9225
   76MOL   C23328883   6.225   5.010   0.638 -0.2757  0.6315  0.0059
   76MOL   C23428884   6.171   5.114   0.732  0.5439 -0.3440  0.3016
   76MOL   C23528885   6.274   5.159   0.839  0.3049 -0.4964  0.4962
   76MOL   C23628886   6.126   4.931   0.552  0.3142  0.0723 -0.2792
   76MOL   H23728887   6.115   5.067   0.387 -2.5041 -0.0897  3.5041
   76MOL   H23828888   6.386   4.902   0.428  0.0223 -1.0644 -2.2177
   76MOL   H23928889   6.351   5.043   0.326  0.0335 -2.4141 -0.7368
   76MOL   H24028890   6.306   5.174   0.541 -0.6252 -0.6514 -1.8608
   76MOL   H24128891   6.429   5.065   0.602 -0.1416 -2.9037  1.1320
   76MOL   H24228892   6.273   4.933   0.700  0.5727 -0.2914 -1.7441
   76MOL   H24328893   6.085   5.064   0.776 -0.3861  0.5355 -0.4812
   76MOL   H24428894   6.133   5.205   0.686  0.7607  0.3256  1.4489
   76MOL   H24528895   6.304   5.063   0.881  1.7041 -0.2870 -0.0145
   76MOL   H24628896   6.351   5.210   0.781 -0.0516  1.4096  1.6732
   76MOL   H24728897   6.023   4.959   0.575 -0.1432 -0.3026 -1.8341
   76MOL   H24828898   6.141   4.823   0.562 -1.8693 -0.4571 -2.2562
   76MOL   C24928899   6.223   5.257   0.942  0.6322  0.3956  0.2005
   76MOL   C25028900   6.110   5.204   1.026 -0.2282  0.0215 -0.1455
   76MOL   C25128901   6.101   5.315   1.136  0.1346 -0.0053  0.2010
   76MOL   C25228902   6.240   5.361   1.163  0.5348  1.0245 -0.0266
   76MOL   C25328903   6.260   5.510   1.151 -0.2911 -0.2369 -0.5768
   76MOL   C25428904   6.398   5.553   1.199  0.3979  0.3668  0.6834
   76MOL   C25528905   6.320   5.298   1.050 -0.4575  0.0467 -0.0317
   76MOL   H25628906   6.178   5.344   0.896  0.1165 -0.9716 -1.9175
   76MOL   H25728907   6.016   5.194   0.972  0.3664 -1.9893 -0.8746
   76MOL   H25828908   6.131   5.108   1.074 -1.1280  0.3446  0.9150
   76MOL   H25928909   6.053   5.272   1.224 -0.2160  0.2894  0.1564
   76MOL   H26028910   6.048   5.406   1.108 -0.5489 -0.2570  0.6345
   76MOL   H26128911   6.274   5.332   1.262 -1.3244 -1.9432 -0.1969
   76MOL   H26228912   6.190   5.568   1.210 -1.1582 -0.6981 -1.1482
   76MOL   H26328913   6.244   5.548   1.050 -1.2648  0.6614 -0.0796
   76MOL   H26428914   6.473   5.483   1.161 -0.1419  0.0886  0.1178
   76MOL   H26528915   6.396   5.540   1.307 -0.9697 -0.9836  0.5158
   76MOL   H26628916   6.355   5.201   1.084  0.1668 -0.7128 -2.7284
   76MOL   H26728917   6.411   5.341   1.009 -0.4849 -0.3753 -0.5457
   76MOL   C26828918   6.442   5.701   1.174  0.2188  0.5752 -0.1726
   76MOL   C26928919   6.439   5.734   1.027 -0.5146  0.6199  0.2655
   76MOL   C27028920   6.548   5.838   1.001 -0.0563  1.2518 -0.1551
   76MOL   C27128921   6.650   5.830   1.118 -0.0600 -0.8296 -0.2726
   76MOL   C27228922   6.792   5.794   1.067 -0.6332  0.4657 -0.6701
   76MOL   C27328923   6.864   5.907   0.986  0.0210 -0.7955  0.7285
   76MOL   C27428924   6.593   5.726   1.216 -0.6244  0.1480  0.2145
   76MOL   H27528925   6.374   5.767   1.227  0.1730 -0.0744  0.5780
   76MOL   H27628926   6.467   5.648   0.968 -3.7074 -0.4890  0.2555
   76MOL   H27728927   6.333   5.752   1.009 -0.8855  0.0472  1.7557
   76MOL   H27828928   6.609   5.820   0.913  1.1004  2.5431  0.3727
   76MOL   H27928929   6.498   5.935   0.991 -0.6928  1.1139  1.4609
   76MOL   H28028930   6.649   5.924   1.173  0.7607 -0.2012 -1.3080
   76MOL   H28128931   6.795   5.696   1.019 -3.3936  0.0649 -0.1081
   76MOL   H28228932   6.857   5.776   1.153  0.3081 -0.4891 -1.5605
   76MOL   H28328933   6.803   5.951   0.907 -0.0341 -2.2311 -0.0501
   76MOL   H28428934   6.897   5.986   1.053 -2.5322  0.6282  0.3852
   76MOL   H28528935   6.646   5.632   1.203 -0.4449  0.4270 -1.0411
   76MOL   H28628936   6.610   5.760   1.318  1.2803 -2.5005  0.8260
   76MOL   C28728937   6.984   5.861   0.916  0.1828 -0.6887 -0.1243
   76MOL   C28828938   7.038   5.954   0.805  0.0219 -0.2942 -0.2252
   76MOL   C28928939   7.189   5.968   0.826  0.5923 -0.5655  0.1190
   76MOL   C29028940   7.230   5.860   0.918  0.1945  0.2457  0.6983
   76MOL   C29128941   7.364   5.864   0.989  0.4528 -0.3577  0.2287
   76MOL   C29228942   7.384   5.728   1.063 -0.0069 -0.5726 -0.3645
   76MOL   C29328943   7.107   5.837   1.011 -0.2358 -0.0288  0.1153
   76MOL   H29428944   6.953   5.769   0.865 -1.3888  0.0243 -0.5100
   76MOL   H29528945   7.025   5.908   0.707 -1.6894  1.6087 -0.9220
   76MOL   H29628946   6.980   6.046   0.801  1.2968  0.5225 -0.0226
   76MOL   H29728947   7.213   6.072   0.848  0.7914 -0.8148  1.0755
   76MOL   H29828948   7.243   5.963   0.731  0.3741 -0.7549  0.0042
   76MOL   H29928949   7.227   5.775   0.851 -1.1325  2.0801 -1.6382
   76MOL   H30028950   7.367   5.952   1.053 -3.9573  1.2519 -1.6071
   76MOL   H30128951   7.437   5.875   0.908 -0.5046  0.1311 -0.5775
   76MOL   H30228952   7.324   5.648   1.018  0.9345 -1.4748 -0.0160
   76MOL   H30328953   7.350   5.751   1.163 -1.9532 -1.7741 -0.7106
   76MOL   H30428954   7.112   5.918   1.084 -2.4646  0.0840  0.1711
   76MOL   H30528955   7.110   5.744   1.067  1.0044  0.4596  0.8862
   76MOL   C30628956   7.529   5.686   1.046 -0.4594  0.0897 -0.5252
   76MOL   C30728957   7.569   5.564   1.123  0.0852  0.0650 -0.6492
   76MOL   C30828958   0.048   5.511   1.048  0.2710  1.0331  0.3762
   76MOL   C30928959   0.037   5.546   0.903 -0.3793  0.2929  0.1546
   76MOL   C31028960   0.006   5.433   0.799 -1.3810 -0.1963  0.1573
   76MOL   C31128961   0.014   5.473   0.653 -0.1981 -0.5065  0.6743
   76MOL   C31228962   7.564   5.643   0.901  0.3235 -0.1266 -0.7052
   76MOL   H31328963   7.593   5.769   1.076  0.0390 -0.4189 -0.1677
   76MOL   H31428964   7.589   5.587   1.228  0.4847  1.5651 -1.0447
   76MOL   H31528965   7.486   5.494   1.121 -0.1164  0.2737  0.1292
   76MOL   H31628966   0.124   5.571   1.099  0.1417  0.7770  0.8726
   76MOL   H31728967   0.067   5.405   1.064 -4.0445  0.0695 -0.3183
   76MOL   H31828968   0.127   5.603   0.877  0.2017 -0.1082  1.2465
   76MOL   H31928969   0.073   5.348   0.814 -2.4150 -0.5001  3.4148
   76MOL   H32028970   7.557   5.387   0.818 -1.1923 -0.3210  0.8069
   76MOL   H32128971   0.114   5.517   0.643 -0.3500 -0.5646 -1.3429
   76MOL   H32228972   7.592   5.556   0.635 -0.2035 -0.9734 -1.5953
   76MOL   H32328973   7.472   5.606   0.855 -0.8064  2.7989 -0.9403
   76MOL   H32428974   7.572   5.724   0.828 -0.8516 -1.2450 -2.1136
   76MOL   C32528975   7.647   5.362   0.550  0.9541  0.9592  0.2800
   76MOL   C32628976   7.507   5.296   0.548  0.1582 -0.5786 -0.4023
   76MOL   C32728977   7.491   5.250   0.405 -0.1108 -0.5290  0.0237
   76MOL   C32828978   7.559   5.365   0.322 -0.1650 -0.4859 -0.3219
   76MOL   C32928979   7.588   5.316   0.178  0.0088 -0.4294 -0.0490
   76MOL   C33028980   0.018   5.410   0.088  0.7241  0.2495  0.3450
   76MOL   C33128981   0.026   5.413   0.410 -0.8358 -0.2830 -0.1750
   76MOL   H33228982   0.074   5.285   0.572  0.9664  1.1769  1.0111
   76MOL   H33328983   7.422   5.362   0.565  0.9107  0.4769 -0.6930
   76MOL   H33428984   7.494   5.212   0.615  0.9486 -1.2109 -1.0281
   76MOL   H33528985   7.546   5.157   0.393 -0.4654 -0.4367 -2.4078
   76MOL   H33628986   7.388   5.224   0.378 -0.9868  1.4396  1.3168
   76MOL   H33728987   7.490   5.449   0.325  0.6033  0.1252  0.5788
   76MOL   H33828988   7.638   5.219   0.180 -3.2144 -2.2502 -3.0214
   76MOL   H33928989   7.497   5.284   0.128  0.8476 -0.9293 -1.2735
   76MOL   H34028990   7.600   5.496   0.067  0.2377  0.0664  1.0831
   76MOL   H34128991   0.103   5.448   0.144  1.4411  0.7820 -1.0622
   76MOL   H34228992   0.037   5.521   0.398  1.5813 -0.3910  0.8065
   76MOL   H34328993   0.123   5.380   0.373 -0.8361  1.1670 -1.5387
   76MOL   C34428994   0.074   5.355   7.601  0.2098 -0.0545 -0.4448
   76MOL   C34528995   0.141   5.465   7.516 -0.3654 -0.2351 -0.1978
   76MOL   C34628996   0.172   5.393   7.386  0.2681 -0.6518 -0.1039
   76MOL   C34728997   0.052   5.301   7.367 -0.4800  0.5946  0.6357
   76MOL   C34828998   0.087   5.171   7.293 -0.1068  0.1160 -0.3938
   76MOL   C34928999   0.153   5.192   7.160 -0.4654 -0.0524 -0.3834
   76MOL   C35029000   7.625   5.288   7.504 -0.2380  0.3337 -0.2621
   76MOL   H35129001   0.155   5.286   7.622 -0.6048 -0.3938  1.7964
   76MOL   H35229002   0.228   5.513   7.560 -0.4990  1.9877 -2.2357
   76MOL   H35329003   0.067   5.544   7.503 -0.1592 -0.2750 -1.7688
   76MOL   H35429004   0.172   5.465   7.305  0.2456 -0.7663 -0.2053
   76MOL   H35529005   0.268   5.340   7.386 -1.2013 -3.3784  0.2316
   76MOL   H35629006   7.624   5.348   7.304 -1.8314 -4.8125 -2.1546
   76MOL   H35729007   0.166   5.121   7.348  0.1425 -1.0569 -1.7802
   76MOL   H35829008   0.011   5.094   7.279 -0.8645  0.0051  3.7810
   76MOL   H35929009   0.240   5.258   7.169 -1.9625  2.0087 -0.8354
   76MOL   H36029010   0.082   5.253   7.105 -1.3359  0.4789  1.2989
   76MOL   H36129011   7.532   5.345   7.512 -0.5344 -0.3863  1.6259
   76MOL   H36229012   7.611   5.183   7.532 -0.7065  0.7821  1.2167
   76MOL   C36329013   0.191   5.075   7.073  0.3250  0.6666  0.7006
   76MOL   C36429014   0.270   4.955   7.136 -0.3617  0.1216  0.3265
   76MOL   C36529015   0.390   4.919   7.044 -0.0207  0.2447 -0.3897
   76MOL   C36629016   0.350   4.979   6.915  0.0847  0.0121 -0.2610
   76MOL   C36729017   0.475   5.011   6.833  0.0256 -0.0990  0.1800
   76MOL   C36829018   0.461   5.061   6.687  0.1161 -0.1813 -0.3008
   76MOL   C36929019   0.272   5.114   6.947  0.1122  0.1859  0.2764
   76MOL   H37029020   0.099   5.033   7.032  0.4532  0.5718  0.5073
   76MOL   H37129021   0.304   4.980   7.237 -1.2460  2.8130 -0.0006
   76MOL   H37229022   0.194   4.877   7.143 -0.2262  0.0600  1.2163
   76MOL   H37329023   0.478   4.958   7.094 -1.2465 -0.7306  2.6688
   76MOL   H37429024   0.406   4.812   7.033  1.1133  0.4652 -0.9247
   76MOL   H37529025   0.283   4.907   6.867 -1.0704  0.2508  0.9624
   76MOL   H37629026   0.546   5.076   6.884 -1.1498  0.6013  0.9401
   76MOL   H37729027   0.530   4.917   6.830 -2.0727 -1.3503 -0.6435
   76MOL   H37829028   0.383   5.001   6.640  0.4648 -0.9435  0.0677
   76MOL   H37929029   0.557   5.058   6.636  0.2761 -1.3410  0.0456
   76MOL   H38029030   0.336   5.201   6.961  0.0310  0.1624  0.8351
   76MOL   H38129031   0.207   5.132   6.862  1.5576 -1.0905 -1.1487
   76MOL   H38229032   0.430   5.165   6.679  0.9003  0.0130 -0.8178
   77MOL     C129033   6.957   5.051   4.374 -0.7373 -0.0014 -0.4832
   77MOL     C229034   6.903   5.043   4.232 -0.8091  1.2175  0.3541
   77MOL     C329035   7.023   5.089   4.153  0.6079 -0.2718  0.1373
   77MOL     C429036   7.134   5.142   4.244 -0.4688 -0.7635 -0.0035
   77MOL     C529037   7.197   5.273   4.194 -0.1906  0.5724  0.4268
   77MOL     C629038   7.282   5.260   4.065  0.0625 -0.2442  0.3799
   77MOL     C729039   7.063   5.159   4.371 -0.0602 -0.5612 -0.2486
   77MOL     H829040   6.870   5.072   4.436 -0.6903 -0.0349 -0.4061
   77MOL     H929041   6.819   5.107   4.206 -1.4619 -0.5054 -1.9992
   77MOL    H1029042   6.882   4.937   4.216  0.5869  0.8964  0.5854
   77MOL    H1129043   7.057   4.997   4.106  0.1717  0.3116 -1.3434
   77MOL    H1229044   6.987   5.157   4.076  0.3195 -2.0107 -1.3093
   77MOL    H1329045   7.212   5.067   4.252  0.3187  0.0811  0.3070
   77MOL    H1429046   7.114   5.342   4.175  0.8940  1.0017 -3.1566
   77MOL    H1529047   7.261   5.327   4.263  0.7168 -0.0287  0.0638
   77MOL    H1629048   7.380   5.222   4.094  0.3976  1.5690  1.6711
   77MOL    H1729049   7.237   5.177   4.010 -1.6414  1.5668 -0.9943
   77MOL    H1829050   7.131   5.151   4.456  1.7725 -0.0202 -1.6536
   77MOL    H1929051   7.005   5.252   4.374  0.9060  0.0250  0.4274
   77MOL    H2029052   7.001   4.957   4.407  1.4531  0.5656 -1.7099
   77MOL    C2129053   7.291   5.388   3.979  0.6768  0.2655  0.5130
   77MOL    C2229054   7.370   5.369   3.851 -0.1780  0.4446  0.0873
   77MOL    C2329055   7.303   5.452   3.738  0.9517  0.5386  0.0678
   77MOL    C2429056   7.164   5.493   3.779  0.1849  0.2145 -0.4835
   77MOL    C2529057   7.057   5.461   3.674 -0.2317  0.1380 -0.4026
   77MOL    C2629058   7.061   5.557   3.550 -0.0660 -0.5759  0.3786
   77MOL    C2729059   7.149   5.419   3.915 -0.1904 -0.1535 -0.5063
   77MOL    H2829060   7.326   5.478   4.031  0.5053  2.5064 -3.0733
   77MOL    H2929061   7.472   5.402   3.869 -0.4340  2.6503 -2.1799
   77MOL    H3029062   7.378   5.264   3.821  2.3799  0.5138  0.4469
   77MOL    H3129063   7.361   5.533   3.695  1.1481  0.1970 -0.3098
   77MOL    H3229064   7.289   5.381   3.657 -0.0730 -0.2423  0.9066
   77MOL    H3329065   7.156   5.598   3.807 -2.2569 -0.2841  0.9137
   77MOL    H3429066   6.964   5.467   3.730  0.4126  2.7589  0.4680
   77MOL    H3529067   7.065   5.354   3.658  2.4872  0.2833 -0.3234
   77MOL    H3629068   7.163   5.556   3.511 -0.5802 -3.1454 -1.0541
   77MOL    H3729069   7.045   5.662   3.574  0.4372 -0.1545 -1.0834
   77MOL    H3829070   7.089   5.484   3.978  0.9473  0.9120 -0.5072
   77MOL    H3929071   7.099   5.322   3.904  1.1045 -1.0877  1.3825
   77MOL    C4029072   6.962   5.521   3.437 -0.3946 -0.2310  0.1033
   77MOL    C4129073   6.827   5.463   3.489 -0.2050 -0.6759 -0.5429
   77MOL    C4229074   6.724   5.506   3.380  0.2960 -0.2319 -0.1711
   77MOL    C4329075   6.777   5.642   3.331  0.4668 -0.5261  0.6157
   77MOL    C4429076   6.724   5.684   3.193 -0.2954  0.3647 -0.2843
   77MOL    C4529077   6.574   5.727   3.203 -0.9472 -0.4233 -0.4081
   77MOL    C4629078   6.932   5.641   3.343 -0.2381  0.0124 -0.2636
   77MOL    H4729079   7.005   5.442   3.376 -2.0012 -0.6846 -0.4886
   77MOL    H4829080   6.806   5.508   3.586  0.3087 -1.0583 -0.2592
   77MOL    H4929081   6.818   5.355   3.492 -2.0883 -0.4857  2.0238
   77MOL    H5029082   6.725   5.439   3.294 -0.2215  1.9140 -1.8784
   77MOL    H5129083   6.619   5.508   3.408  0.5816 -1.6346  1.0748
   77MOL    H5229084   6.755   5.720   3.404 -1.7836  0.7998 -1.3933
   77MOL    H5329085   6.781   5.770   3.159  0.6535 -0.6067 -1.2204
   77MOL    H5429086   6.728   5.605   3.117 -0.7613 -0.8504  0.9244
   77MOL    H5529087   6.566   5.827   3.246 -0.3492  0.1508 -1.6140
   77MOL    H5629088   6.527   5.664   3.280 -0.3264  0.5889  0.8251
   77MOL    H5729089   6.987   5.605   3.256  0.1744  0.7289 -0.3072
   77MOL    H5829090   6.987   5.728   3.378  0.3005 -0.6517  0.5457
   77MOL    C5929091   6.492   5.732   3.072  0.0446 -0.3135 -0.4075
   77MOL    C6029092   6.471   5.591   3.027 -0.7025  0.3336 -0.0172
   77MOL    C6129093   6.324   5.572   2.998  0.3890  0.3927  0.4717
   77MOL    C6229094   6.259   5.674   3.090 -0.9318  0.2631  0.4062
   77MOL    C6329095   6.118   5.712   3.036  0.0233 -0.0137 -0.3823
   77MOL    C6429096   6.016   5.600   3.056 -0.3851  0.4831 -0.0862
   77MOL    C6529097   6.356   5.791   3.088  0.8186  0.1688  0.1073
   77MOL    H6629098   6.547   5.801   3.008 -2.9213  2.0402 -0.5284
   77MOL    H6729099   6.524   5.560   2.937  0.0660 -2.5354  1.3802
   77MOL    H6829100   6.492   5.524   3.110 -1.1951 -0.5212 -0.5700
   77MOL    H6929101   6.306   5.592   2.893 -0.5138 -2.1727  0.1068
   77MOL    H7029102   6.286   5.473   3.024 -0.1847  1.0386  2.1881
   77MOL    H7129103   6.254   5.615   3.181  4.0445 -2.9037 -1.1537
   77MOL    H7229104   6.130   5.749   2.934  0.5316 -1.8609 -1.0041
   77MOL    H7329105   6.078   5.792   3.099  1.1574  1.0420 -0.9732
   77MOL    H7429106   6.048   5.504   3.015 -1.0623  0.8961 -1.6068
   77MOL    H7529107   5.996   5.598   3.163 -0.2033 -1.9087 -0.0541
   77MOL    H7629108   6.338   5.863   3.009  0.8171  2.3215  1.9924
   77MOL    H7729109   6.336   5.851   3.177 -1.9338 -1.3961  0.5681
   77MOL    C7829110   5.879   5.631   2.981 -0.0409  0.1325 -0.0942
   77MOL    C7929111   5.789   5.518   2.998 -0.2192 -0.1351  0.2189
   77MOL    C8029112   5.648   5.580   2.988 -0.4819 -0.5752 -0.0871
   77MOL    C8129113   5.664   5.735   2.979  0.3355  0.9635 -0.0461
   77MOL    C8229114   5.554   5.812   3.055  0.3203  0.5876  0.6319
   77MOL    C8329115   5.536   5.958   3.001  0.6070  0.4121 -0.6319
   77MOL    C8429116   5.809   5.756   3.032 -0.4358  0.0846  0.1110
   77MOL    H8529117   5.904   5.640   2.876 -1.1780 -1.2779 -0.5111
   77MOL    H8629118   5.797   5.429   2.935 -0.2906  0.9011 -1.2802
   77MOL    H8729119   5.802   5.485   3.101 -0.8778 -2.1899 -0.3240
   77MOL    H8829120   5.585   5.553   2.904 -0.0896  2.6609 -1.4550
   77MOL    H8929121   5.601   5.556   3.084  0.3380 -0.3567  0.3771
   77MOL    H9029122   5.655   5.751   2.872  2.0041 -0.4781 -0.4396
   77MOL    H9129123   5.570   5.801   3.162  0.6180  0.8213  0.6125
   77MOL    H9229124   5.464   5.757   3.029  2.2230 -2.1565 -0.4579
   77MOL    H9329125   5.475   5.961   2.910  0.4381 -0.0161 -0.5344
   77MOL    H9429126   5.632   5.996   2.966 -0.4558  0.9318 -3.1429
   77MOL    H9529127   5.805   5.762   3.140 -0.0291  1.9711  0.0446
   77MOL    H9629128   5.850   5.848   2.992 -2.5338  1.5528  1.2413
   77MOL    C9729129   5.476   6.056   3.106 -0.4968  0.4152  0.1545
   77MOL    C9829130   5.461   6.196   3.041  0.1971 -0.0439  0.1050
   77MOL    C9929131   5.556   6.288   3.121  0.4252  0.3782 -0.0755
   77MOL   C10029132   5.543   6.239   3.263  0.6765 -0.0220 -0.6043
   77MOL   C10129133   5.645   6.302   3.362 -0.1860  0.1133 -0.5950
   77MOL   C10229134   5.751   6.198   3.397 -0.1215 -0.6238  0.3204
   77MOL   C10329135   5.556   6.083   3.233 -0.4732  0.4051  0.4091
   77MOL   H10429136   5.381   6.018   3.142 -0.2504 -0.6265 -0.2655
   77MOL   H10529137   5.473   6.201   2.933 -0.6224 -1.5438 -0.0831
   77MOL   H10629138   5.360   6.232   3.059  0.4549  0.9747 -0.5014
   77MOL   H10729139   5.660   6.283   3.089  1.1669  0.1653  2.3099
   77MOL   H10829140   5.528   6.393   3.109  0.4514  0.4562  0.5503
   77MOL   H10929141   5.441   6.257   3.298  0.3364 -0.1990 -1.4838
   77MOL   H11029142   5.692   6.389   3.314  0.9165 -0.9757 -1.5217
   77MOL   H11129143   5.599   6.338   3.454  1.0624  0.4307 -0.0748
   77MOL   H11229144   5.711   6.115   3.455 -0.8952 -0.4412  0.0568
   77MOL   H11329145   5.806   6.163   3.311 -0.6858 -1.4366  0.2892
   77MOL   H11429146   5.661   6.064   3.211 -0.8518 -1.3928  0.0890
   77MOL   H11529147   5.533   6.010   3.310  2.8090 -2.4934 -1.2224
   77MOL   C11629148   5.865   6.274   3.475 -0.2407 -0.2302 -0.2830
   77MOL   C11729149   5.991   6.179   3.481 -0.6866  0.2775  0.0876
   77MOL   C11829150   6.107   6.265   3.524 -0.2342 -0.5854  0.2428
   77MOL   C11929151   6.064   6.414   3.494 -0.8160 -0.1405  0.2854
   77MOL   C12029152   6.167   6.502   3.427  0.1767 -0.0777  1.5044
   77MOL   C12129153   6.298   6.499   3.507  0.6491  0.1158  0.0368
   77MOL   C12229154   5.931   6.397   3.411  0.5202  0.6195 -0.1995
   77MOL   H12329155   5.840   6.287   3.580  2.0986 -1.8943  0.5073
   77MOL   H12429156   6.013   6.147   3.379  0.6349  0.5734  0.2817
   77MOL   H12529157   5.971   6.095   3.549 -1.0084  2.1004  2.3064
   77MOL   H12629158   6.196   6.247   3.464  0.3728  1.7344  0.3911
   77MOL   H12729159   6.134   6.243   3.627 -0.4221 -1.2448  0.1542
   77MOL   H12829160   6.032   6.468   3.582  0.1658 -0.9922  1.1802
   77MOL   H12929161   6.118   6.599   3.418  1.0466  0.2576  0.1259
   77MOL   H13029162   6.185   6.473   3.324  0.8542 -0.0518  1.6105
   77MOL   H13129163   6.334   6.398   3.487 -3.7632 -1.1842 -1.9376
   77MOL   H13229164   6.280   6.513   3.613  2.4186 -0.3695  0.4156
   77MOL   H13329165   5.873   6.489   3.421 -0.4386 -0.2070  2.1400
   77MOL   H13429166   5.954   6.383   3.305 -0.2633  2.5207 -0.6521
   77MOL   C13529167   6.424   6.584   3.466  0.8715  0.2123  0.1549
   77MOL   C13629168   6.539   6.575   3.566 -0.3856  0.0107  0.6847
   77MOL   C13729169   6.664   6.605   3.484  0.6690 -0.1586 -0.0739
   77MOL   C13829170   6.643   6.532   3.353  0.4310 -0.1798  0.5888
   77MOL   C13929171   6.719   6.594   3.231 -0.0487 -0.1415 -0.7462
   77MOL   C14029172   6.870   6.573   3.245  0.3720 -0.3620  0.3727
   77MOL   C14129173   6.493   6.541   3.337  0.7390 -0.0262 -0.4573
   77MOL   H14229174   6.403   6.691   3.456 -0.7643  0.0153  1.2996
   77MOL   H14329175   6.523   6.635   3.655 -1.7619 -0.1308  0.5388
   77MOL   H14429176   6.548   6.477   3.613  0.8132  0.5902  1.7118
   77MOL   H14529177   6.668   6.714   3.477  0.4911 -0.1235  0.3178
   77MOL   H14629178   6.763   6.586   3.524 -0.0189  0.2758  1.8985
   77MOL   H14729179   6.670   6.426   3.358 -2.6225 -1.0039  1.0643
   77MOL   H14829180   6.687   6.698   3.238  0.4699 -0.1481  2.2948
   77MOL   H14929181   6.663   6.550   3.148  1.4849 -1.9437 -0.8465
   77MOL   H15029182   6.893   6.642   3.327 -0.2642 -0.1462  0.3727
   77MOL   H15129183   6.890   6.472   3.280 -2.1493 -0.9587  0.1996
   77MOL   H15229184   6.442   6.456   3.292 -1.5627  0.9289  0.2329
   77MOL   H15329185   6.473   6.617   3.261 -0.2507 -2.0164 -2.2135
   77MOL   C15429186   6.957   6.618   3.127 -0.3677 -0.2802  0.3712
   77MOL   C15529187   6.943   6.531   3.002 -0.1223  0.0352  0.3425
   77MOL   C15629188   7.066   6.561   2.914  0.7068  0.1710  0.6200
   77MOL   C15729189   7.170   6.603   3.017 -0.1777 -0.6522  0.3893
   77MOL   C15829190   7.312   6.545   3.006  0.4196 -0.4012 -0.3031
   77MOL   C15929191   7.321   6.393   3.007 -0.7174  0.3991 -0.2016
   77MOL   C16029192   7.100   6.593   3.156 -0.0427 -0.5782 -0.3965
   77MOL   H16129193   6.918   6.719   3.109 -0.4761 -0.3086  0.4441
   77MOL   H16229194   6.954   6.424   3.021  1.4101 -0.1066 -1.1629
   77MOL   H16329195   6.843   6.541   2.962  0.2621 -1.6320 -1.0938
   77MOL   H16429196   7.103   6.485   2.845  1.1277  0.9117  0.0194
   77MOL   H16529197   7.048   6.641   2.842  2.9913  0.5434  0.4406
   77MOL   H16629198   7.185   6.709   2.995  3.9110 -1.3669 -0.7367
   77MOL   H16729199   7.372   6.576   3.091 -0.4220  0.9258 -0.1846
   77MOL   H16829200   7.352   6.588   2.913  2.1096 -2.0751 -0.3862
   77MOL   H16929201   7.280   6.349   3.098  1.4508 -2.7919 -0.6812
   77MOL   H17029202   7.263   6.341   2.931  0.1934 -1.7335  0.5039
   77MOL   H17129203   7.142   6.669   3.222  1.0234 -0.3385 -1.3224
   77MOL   H17229204   7.122   6.497   3.203  1.7347  0.6473  1.3711
   77MOL   C17329205   7.468   6.337   2.994 -0.3374  0.0348 -0.6209
   77MOL   C17429206   7.472   6.181   2.989  0.4811  0.0532  0.0527
   77MOL   C17529207   7.575   6.139   2.890 -0.0819  0.2127 -0.0082
   77MOL   C17629208   7.631   6.260   2.817  0.0647 -0.4030 -0.2696
   77MOL   C17729209   7.627   6.249   2.663 -0.4057  0.8541  0.2030
   77MOL   C17829210   0.028   6.378   2.584  0.1173  0.0198 -0.1901
   77MOL   C17929211   7.541   6.383   2.861 -0.1423  0.4761  0.1585
   77MOL   H18029212   7.529   6.372   3.077 -1.6368  0.9179 -0.0205
   77MOL   H18129213   7.377   6.137   2.958  1.2333 -0.9914 -0.8071
   77MOL   H18229214   7.505   6.136   3.082  1.0832  0.2535 -0.0650
   77MOL   H18329215   0.005   6.079   2.937  0.8656 -0.0166 -1.8230
   77MOL   H18429216   7.520   6.074   2.821  0.9926 -2.4140  1.5589
   77MOL   H18529217   0.084   6.284   2.852  0.3895  1.6951 -2.5151
   77MOL   H18629218   7.535   6.208   2.622 -1.8158  2.2868  1.8696
   77MOL   H18729219   0.051   6.171   2.635 -0.4604  0.7654  0.3123
   77MOL   H18829220   0.135   6.386   2.602  0.0714  0.4219 -0.0736
   77MOL   H18929221   7.641   6.468   2.635  0.2972 -0.6255  1.0861
   77MOL   H19029222   7.459   6.404   2.792  0.0821  0.9673  0.0413
   77MOL   H19129223   7.593   6.478   2.867 -0.4149  0.5041  2.2951
   77MOL   C19229224   7.642   6.377   2.432  0.4280  0.4099 -1.4627
   77MOL   C19329225   0.076   6.489   2.364 -0.5560  0.0950 -0.1109
   77MOL   C19429226   0.001   6.535   2.238  0.1439  0.2226  0.0016
   77MOL   C19529227   7.502   6.526   2.285  0.1730  0.8775  0.2154
   77MOL   C19629228   7.394   6.495   2.177  0.0574  0.2372 -0.4421
   77MOL   C19729229   7.392   6.604   2.062  0.0562 -0.4104 -0.1898
   77MOL   C19829230   7.500   6.418   2.398 -0.0187  0.3268 -0.5645
   77MOL   H19929231   0.019   6.278   2.392 -1.1046 -0.7753  0.4979
   77MOL   H20029232   0.089   6.575   2.430  1.4696  0.2042 -0.6311
   77MOL   H20129233   0.171   6.441   2.340 -0.2889  0.5992 -0.0718
   77MOL   H20229234   0.030   6.467   2.158 -1.1470  1.3681 -1.4517
   77MOL   H20329235   0.030   6.635   2.204 -0.0711  0.0974 -0.5492
   77MOL   H20429236   7.474   6.623   2.326  0.1766 -0.3435  3.2625
   77MOL   H20529237   7.302   6.504   2.233  0.5416  0.0942  0.3832
   77MOL   H20629238   7.417   6.398   2.132 -2.9397 -0.9459  0.4528
   77MOL   H20729239   7.496   6.619   2.035 -0.2228  0.6113 -0.7102
   77MOL   H20829240   7.366   6.700   2.106  1.8134 -0.5028  1.1013
   77MOL   H20929241   7.440   6.331   2.371 -0.0149  0.6608 -1.6882
   77MOL   H21029242   7.447   6.467   2.480  0.2174  1.1238 -0.8839
   77MOL   C21129243   7.302   6.580   1.943 -0.0004 -0.2414 -0.0158
   77MOL   C21229244   7.151   6.575   1.959 -0.1944 -0.4217 -1.0247
   77MOL   C21329245   7.092   6.489   1.851  0.3700 -0.0155 -0.1795
   77MOL   C21429246   7.216   6.435   1.769  0.5859 -0.3938  0.3461
   77MOL   C21529247   7.199   6.293   1.702  0.6155 -0.6397  0.1212
   77MOL   C21629248   7.068   6.279   1.627  0.2607 -0.0197  0.1772
   77MOL   C21729249   7.335   6.449   1.865 -0.5969 -0.4869  0.1172
   77MOL   H21829250   7.331   6.653   1.867 -0.9326 -0.6814 -0.8019
   77MOL   H21929251   7.123   6.551   2.062 -1.3134 -2.4921 -1.7869
   77MOL   H22029252   7.115   6.677   1.964 -1.6871 -0.9573 -0.5873
   77MOL   H22129253   7.024   6.415   1.892  0.2664 -0.9077 -1.9303
   77MOL   H22229254   7.032   6.549   1.783 -2.0153  0.1270  1.9838
   77MOL   H22329255   7.226   6.510   1.691  0.2806  1.8051  2.3725
   77MOL   H22429256   7.199   6.212   1.775  2.9778 -2.1260 -1.4765
   77MOL   H22529257   7.280   6.266   1.635  1.3074  1.1635  0.2098
   77MOL   H22629258   6.985   6.292   1.696  1.3023 -0.8638  1.6205
   77MOL   H22729259   7.059   6.359   1.555  0.8562  1.3148  1.5594
   77MOL   H22829260   7.432   6.442   1.815 -0.7154 -1.7135  0.0377
   77MOL   H22929261   7.328   6.362   1.930  0.3148 -0.2630  0.5221
   77MOL   C23029262   7.039   6.135   1.568 -0.8883  0.4052  0.0131
   77MOL   C23129263   6.931   6.118   1.459 -0.1889 -1.0215 -0.0338
   77MOL   C23229264   6.845   5.999   1.506 -0.2228  0.0623  0.3785
   77MOL   C23329265   6.919   5.920   1.613 -0.4569  0.3489  0.3955
   77MOL   C23429266   7.018   5.811   1.568 -0.5987 -0.5774 -0.5324
   77MOL   C23529267   6.955   5.696   1.493 -0.0779  0.4253 -0.1952
   77MOL   C23629268   7.005   6.033   1.674  0.3115  0.3166 -0.4748
   77MOL   H23729269   7.135   6.100   1.530 -2.2101 -1.3590 -1.8194
   77MOL   H23829270   6.872   6.209   1.445 -0.5410 -1.2669 -0.1363
   77MOL   H23929271   6.976   6.107   1.360 -0.3306 -0.2202 -0.1929
   77MOL   H24029272   6.830   5.936   1.418  0.8012 -0.6709  0.7280
   77MOL   H24129273   6.749   6.028   1.548 -1.7997 -2.3290 -1.4384
   77MOL   H24229274   6.846   5.876   1.681 -0.9806  2.9840  1.5678
   77MOL   H24329275   7.059   5.764   1.657 -2.2558 -0.1859  0.4595
   77MOL   H24429276   7.095   5.847   1.499 -0.2733 -0.0007  0.1221
   77MOL   H24529277   6.913   5.731   1.398 -0.9631  0.3585  0.1705
   77MOL   H24629278   7.026   5.617   1.473 -1.1643 -0.4882 -0.4927
   77MOL   H24729279   7.093   6.006   1.732  0.4065  0.6584 -0.4582
   77MOL   H24829280   6.932   6.074   1.745 -0.9627  0.5137 -1.8701
   77MOL   C24929281   6.823   5.637   1.552 -0.3954  0.1838  0.0906
   77MOL   C25029282   6.772   5.516   1.469 -0.0164  0.1881  0.5099
   77MOL   C25129283   6.701   5.422   1.572 -0.2544  0.0368  0.5872
   77MOL   C25229284   6.790   5.438   1.696  0.5647 -0.2311 -0.5833
   77MOL   C25329285   6.722   5.399   1.827 -0.4411  0.5868 -0.1233
   77MOL   C25429286   6.732   5.248   1.849 -0.9069 -0.2124  0.3813
   77MOL   C25529287   6.837   5.585   1.698  0.1340  0.5623  0.1531
   77MOL   H25629288   6.731   5.696   1.545 -1.7301 -1.5607  2.1894
   77MOL   H25729289   6.703   5.534   1.386  1.0004  0.8266 -0.2156
   77MOL   H25829290   6.854   5.461   1.424  1.1489  0.2108  2.5504
   77MOL   H25929291   6.703   5.317   1.543  0.1414  0.3386 -0.4610
   77MOL   H26029292   6.601   5.461   1.593  0.9080  3.5803 -0.2159
   77MOL   H26129293   6.884   5.384   1.691  0.2847 -1.0061  1.7989
   77MOL   H26229294   6.619   5.434   1.839  0.0589  2.1065 -0.1854
   77MOL   H26329295   6.780   5.438   1.910 -2.1921 -1.1388  1.9640
   77MOL   H26429296   6.834   5.212   1.837 -0.1403  1.4738  1.6740
   77MOL   H26529297   6.675   5.190   1.776  0.0476 -1.6849  0.7883
   77MOL   H26629298   6.939   5.591   1.737  0.5217  0.8841 -0.8717
   77MOL   H26729299   6.766   5.644   1.755  0.6381 -0.6826  2.1028
   77MOL   C26829300   6.680   5.210   1.991 -0.6552 -0.2436  0.1245
   77MOL   C26929301   6.767   5.266   2.113 -0.3371  0.0039 -0.9005
   77MOL   C27029302   6.759   5.167   2.228  0.2984 -0.1656  0.6176
   77MOL   C27129303   6.701   5.035   2.171 -0.3278  0.3272 -0.2033
   77MOL   C27229304   6.780   4.902   2.220  1.0705  0.0934  0.0294
   77MOL   C27329305   6.699   4.774   2.205  0.0724 -0.1060  0.7551
   77MOL   C27429306   6.698   5.057   2.016 -0.7544  0.0088 -0.4565
   77MOL   H27529307   6.580   5.245   2.015  0.0341  2.2935 -0.5310
   77MOL   H27629308   6.873   5.279   2.092 -0.8306  4.0030 -1.4576
   77MOL   H27729309   6.748   5.372   2.133  1.3447  0.0411  0.6544
   77MOL   H27829310   6.860   5.154   2.266  0.8473  1.4321 -0.2472
   77MOL   H27929311   6.693   5.201   2.309  2.9724  0.6263  2.5396
   77MOL   H28029312   6.597   5.038   2.205  0.2087  1.2701  1.4188
   77MOL   H28129313   6.802   4.913   2.326  1.9521  1.3004 -0.2638
   77MOL   H28229314   6.880   4.894   2.177  1.5259 -2.4684  1.4979
   77MOL   H28329315   6.611   4.796   2.266  1.0048  1.6796  1.4976
   77MOL   H28429316   6.669   4.754   2.102  2.1913  0.9093 -0.1116
   77MOL   H28529317   6.797   5.030   1.980 -0.3301  0.5290  0.3120
   77MOL   H28629318   6.622   5.001   1.961  0.5107 -1.9720 -0.2565
   77MOL   C28729319   6.773   4.659   2.277 -0.9265 -0.5896 -0.3238
   77MOL   C28829320   6.707   4.529   2.260  0.3699 -0.0054 -0.5121
   77MOL   C28929321   6.795   4.456   2.159 -0.5213 -0.4361 -0.4767
   77MOL   C29029322   6.942   4.494   2.191  1.2637 -0.8584  0.6648
   77MOL   C29129323   7.054   4.476   2.082  0.0014 -0.3033 -0.2950
   77MOL   C29229324   7.100   4.326   2.088  0.0788  0.6079 -0.9059
   77MOL   C29329325   6.910   4.645   2.220 -0.0156  0.3526  0.3210
   77MOL   H29429326   6.779   4.668   2.385 -0.5824 -4.5611  0.0722
   77MOL   H29529327   6.723   4.472   2.352  0.8200  1.7726  0.5509
   77MOL   H29629328   6.599   4.528   2.247  0.1563  1.3496  0.9109
   77MOL   H29729329   6.769   4.492   2.059 -2.2744 -1.3658 -0.3693
   77MOL   H29829330   6.790   4.347   2.171  2.1003 -0.5848 -0.4446
   77MOL   H29929331   6.974   4.443   2.282 -0.4637  0.8899  2.3115
   77MOL   H30029332   7.149   4.522   2.112  0.9926 -2.1570 -0.5205
   77MOL   H30129333   7.033   4.515   1.982  0.5982 -0.2901 -0.4186
   77MOL   H30229334   7.013   4.265   2.067  1.3445 -0.5635 -2.9982
   77MOL   H30329335   7.139   4.296   2.185  0.8088  0.3799 -1.2667
   77MOL   H30429336   6.923   4.688   2.121  1.4168 -1.4072 -0.2788
   77MOL   H30529337   6.983   4.703   2.278  0.5503 -0.4269  0.3972
   77MOL   C30629338   7.204   4.293   1.976  0.1002  0.7079 -0.7479
   77MOL   C30729339   7.261   4.152   1.968 -0.3007 -0.0371  0.0412
   77MOL   C30829340   7.296   4.111   1.831 -1.0031 -0.5018  0.4588
   77MOL   C30929341   7.228   4.212   1.740  0.1115 -0.8706 -0.0811
   77MOL   C31029342   7.152   4.160   1.614 -0.1922 -0.6429 -0.3064
   77MOL   C31129343   7.243   4.083   1.522  0.2935 -0.1751  0.4864
   77MOL   C31229344   7.151   4.312   1.831 -0.3526 -0.4987  0.0760
   77MOL   H31329345   7.284   4.364   1.997  1.6646 -1.0259 -0.7401
   77MOL   H31429346   7.351   4.162   2.028 -1.9958  0.5805  2.5908
   77MOL   H31529347   7.187   4.089   2.017  0.4429 -1.0915 -0.1819
   77MOL   H31629348   7.403   4.106   1.809 -0.7301  0.8044  1.3880
   77MOL   H31729349   7.259   4.009   1.824  1.3764 -1.3737 -0.0320
   77MOL   H31829350   7.311   4.272   1.702 -0.1534  0.7483  1.8519
   77MOL   H31929351   7.067   4.100   1.646  0.2167 -0.0122  2.0125
   77MOL   H32029352   7.116   4.248   1.560  0.1120 -1.7809 -2.4085
   77MOL   H32129353   7.263   3.983   1.562  0.9586 -0.4775 -0.5715
   77MOL   H32229354   7.336   4.136   1.502 -0.7626  1.4194 -0.2869
   77MOL   H32329355   7.047   4.279   1.825 -0.8596  1.2737 -1.2755
   77MOL   H32429356   7.148   4.418   1.807  1.3254  0.4131  3.6341
   77MOL   C32529357   7.184   4.045   1.394 -0.0676 -0.3781  0.6168
   77MOL   C32629358   7.275   3.946   1.317 -0.0140  0.4080 -0.2130
   77MOL   C32729359   7.183   3.909   1.197  0.0706 -0.4605 -0.3759
   77MOL   C32829360   7.040   3.901   1.260  0.3878  0.1149 -0.2102
   77MOL   C32929361   6.934   3.956   1.160  0.5712  0.0252  0.6850
   77MOL   C33029362   6.793   3.914   1.195  0.4641  0.0415  0.1780
   77MOL   C33129363   7.041   3.987   1.389  0.2571 -0.0394 -0.2023
   77MOL   H33229364   7.171   4.132   1.329  0.2420 -2.2271 -1.9889
   77MOL   H33329365   7.299   3.862   1.382 -1.9159 -0.1173 -0.1674
   77MOL   H33429366   7.364   4.000   1.284  0.6446  0.0572  0.9673
   77MOL   H33529367   7.193   3.990   1.125  0.6629 -1.3197 -1.2745
   77MOL   H33629368   7.210   3.819   1.141 -0.9099 -1.4965  0.8000
   77MOL   H33729369   7.026   3.795   1.278 -1.0814  0.5204  1.2064
   77MOL   H33829370   6.947   4.063   1.148 -2.4699  0.0326 -3.4169
   77MOL   H33929371   6.949   3.912   1.061 -0.0422 -1.5582  1.2808
   77MOL   H34029372   6.789   3.805   1.190  0.2871 -0.0293  1.6408
   77MOL   H34129373   6.772   3.940   1.299  0.4130 -0.6421  0.3424
   77MOL   H34229374   7.011   3.924   1.473  3.1014 -0.4426  0.5781
   77MOL   H34329375   6.969   4.068   1.393  0.8332  0.3990  3.1013
   77MOL   C34429376   6.684   3.979   1.103 -0.4053  0.3529 -0.2670
   77MOL   C34529377   6.540   3.930   1.130  0.0769  0.3080  0.8455
   77MOL   C34629378   6.464   3.989   1.011 -0.4280  1.1779  0.1763
   77MOL   C34729379   6.564   3.996   0.891 -0.0474 -0.1566  0.4268
   77MOL   C34829380   6.539   4.118   0.802 -0.7439  0.4495  1.1108
   77MOL   C34929381   6.394   4.126   0.752  0.6000  0.0743  0.9090
   77MOL   C35029382   6.700   3.978   0.953 -0.1942 -0.0455 -0.2778
   77MOL   H35129383   6.690   4.084   1.132 -0.2347  0.2497  0.0752
   77MOL   H35229384   6.489   3.950   1.224 -3.6351 -0.5030 -0.8958
   77MOL   H35329385   6.543   3.821   1.121 -1.6918  0.3452 -0.5877
   77MOL   H35429386   6.378   3.928   0.985 -1.1972  1.6882  1.4718
   77MOL   H35529387   6.433   4.088   1.044 -0.8014  0.2593  2.6441
   77MOL   H35629388   6.540   3.916   0.821  1.3875  0.1743 -0.4730
   77MOL   H35729389   6.560   4.215   0.848 -1.2455  0.4043  1.4423
   77MOL   H35829390   6.602   4.101   0.715 -1.5553  0.2101  0.5624
   77MOL   H35929391   6.330   4.110   0.839 -1.5532 -1.4640 -0.9001
   77MOL   H36029392   6.369   4.040   0.690 -0.5337 -0.2431  1.7801
   77MOL   H36129393   6.735   3.879   0.921  4.5107 -0.2899  4.7302
   77MOL   H36229394   6.756   4.063   0.915  0.6200 -0.2296  0.4734
   77MOL   C36329395   6.377   4.251   0.661  0.0147  0.6974  0.5144
   77MOL   C36429396   6.384   4.384   0.736  0.6426 -0.0356 -0.2834
   77MOL   C36529397   6.275   4.464   0.664  0.7900  0.8517  0.2551
   77MOL   C36629398   6.206   4.376   0.556 -0.6151  0.2853  0.3309
   77MOL   C36729399   6.052   4.401   0.543 -0.3728 -0.2093  0.6364
   77MOL   C36829400   6.027   4.539   0.482 -0.0826 -0.0910 -0.2415
   77MOL   C36929401   6.241   4.234   0.594  0.2590 -0.3730 -0.8861
   77MOL   H37029402   6.452   4.260   0.582 -0.0242  2.3713  0.6487
   77MOL   H37129403   6.352   4.365   0.838 -0.7190  0.3662 -0.6257
   77MOL   H37229404   6.481   4.433   0.730  0.7316 -0.1609  0.0968
   77MOL   H37329405   6.200   4.490   0.739 -0.7503  0.3334 -1.0844
   77MOL   H37429406   6.313   4.552   0.611 -2.3205  0.9813 -1.8663
   77MOL   H37529407   6.258   4.412   0.467 -0.5866  0.3869  0.3885
   77MOL   H37629408   6.003   4.323   0.483  0.3965  0.8363 -1.4005
   77MOL   H37729409   6.011   4.401   0.644 -2.5178  0.6180 -0.1989
   77MOL   H37829410   6.069   4.612   0.552 -0.4945  1.5434 -1.6851
   77MOL   H37929411   5.919   4.551   0.489  0.0906  2.1941 -0.9202
   77MOL   H38029412   6.163   4.200   0.662  1.1796 -0.6756  0.0418
   77MOL   H38129413   6.250   4.169   0.507 -1.5752  0.5966 -1.8245
   77MOL   H38229414   6.059   4.559   0.380 -1.0260  0.1745 -0.4863
   78MOL     C129415   1.640   5.809   2.265 -0.4233 -0.5183 -0.6600
   78MOL     C229416   1.631   5.878   2.402  0.4659  0.3502  0.1290
   78MOL     C329417   1.616   6.027   2.382 -0.1865 -0.5931 -0.3075
   78MOL     C429418   1.576   6.040   2.226 -0.1466  0.0266 -0.4943
   78MOL     C529419   1.627   6.169   2.159  0.3789 -0.3403 -0.0519
   78MOL     C629420   1.556   6.289   2.214 -0.1405  0.1675  0.5543
   78MOL     C729421   1.640   5.920   2.162  0.3973  0.5414  0.7340
   78MOL     H829422   1.727   5.744   2.251 -0.0963 -1.0219  3.2341
   78MOL     H929423   1.724   5.868   2.458  0.6644 -2.0372 -0.5919
   78MOL    H1029424   1.549   5.843   2.465  0.4258  2.6398  1.4288
   78MOL    H1129425   1.540   6.066   2.450  0.5496 -0.2499  0.3211
   78MOL    H1229426   1.710   6.081   2.389 -1.3844  1.6316 -0.6868
   78MOL    H1329427   1.469   6.036   2.204  0.1270 -0.7150 -1.7224
   78MOL    H1429428   1.730   6.188   2.188  0.3637 -2.6869  1.6851
   78MOL    H1529429   1.623   6.162   2.050  0.1713 -2.7429  0.0789
   78MOL    H1629430   1.451   6.274   2.188  0.5356 -2.4727 -0.8163
   78MOL    H1729431   1.561   6.296   2.323  0.8665  3.4101  0.3324
   78MOL    H1829432   1.584   5.899   2.071 -1.7100 -0.6080  2.2477
   78MOL    H1929433   1.745   5.932   2.135  0.0824  1.8936  0.0676
   78MOL    H2029434   1.555   5.744   2.250 -1.6112  0.7522  0.4218
   78MOL    C2129435   1.603   6.429   2.161 -0.4150  0.1868  0.5019
   78MOL    C2229436   1.605   6.427   2.006  0.2855 -0.3077 -0.6570
   78MOL    C2329437   1.571   6.569   1.962 -0.0288  0.4580  0.1488
   78MOL    C2429438   1.543   6.651   2.091  0.2024 -0.5673 -0.5430
   78MOL    C2529439   1.431   6.757   2.072 -0.3026 -0.6535  0.8957
   78MOL    C2629440   1.423   6.860   2.186  0.3955 -0.1918  0.0204
   78MOL    C2729441   1.514   6.539   2.194 -0.1428 -1.2333  0.6078
   78MOL    H2829442   1.701   6.448   2.205  1.0991 -2.0937 -1.7148
   78MOL    H2929443   1.699   6.392   1.963  0.5644  1.0651 -1.1813
   78MOL    H3029444   1.527   6.367   1.958 -0.8536  0.8993 -0.3327
   78MOL    H3129445   1.652   6.619   1.911 -0.7449  0.0383 -1.4312
   78MOL    H3229446   1.491   6.579   1.888  1.7617  0.6514 -1.8169
   78MOL    H3329447   1.637   6.692   2.126 -1.3078  1.4740  1.2534
   78MOL    H3429448   1.344   6.695   2.054  0.4600 -1.3049 -0.5900
   78MOL    H3529449   1.461   6.800   1.976 -1.4707 -0.9140  0.4138
   78MOL    H3629450   1.519   6.912   2.189 -0.4346  1.4044 -0.5422
   78MOL    H3729451   1.392   6.804   2.273 -0.9334  1.3567  0.5610
   78MOL    H3829452   1.531   6.567   2.298  2.5722 -0.0984 -0.1035
   78MOL    H3929453   1.410   6.509   2.179  0.3500 -1.9649 -1.3754
   78MOL    C4029454   1.319   6.967   2.155 -0.1523  0.5026  0.3073
   78MOL    C4129455   1.172   6.931   2.144 -0.9796  0.1115  0.1929
   78MOL    C4229456   1.084   7.032   2.217  0.0461 -0.0762  0.3251
   78MOL    C4329457   1.176   7.138   2.262  1.3030 -0.0013  0.3766
   78MOL    C4429458   1.192   7.258   2.163  0.3210  0.1006 -0.2741
   78MOL    C4529459   1.084   7.367   2.189 -0.2473  0.4383 -0.7348
   78MOL    C4629460   1.308   7.066   2.272 -0.2753 -0.3274  0.9422
   78MOL    H4729461   1.358   7.024   2.070 -1.4960 -0.0277 -0.6897
   78MOL    H4829462   1.170   6.825   2.170 -0.2794 -0.3471 -1.5713
   78MOL    H4929463   1.156   6.943   2.037  0.3923 -1.1299 -0.1710
   78MOL    H5029464   0.996   7.071   2.165  0.7020 -0.1352 -0.8449
   78MOL    H5129465   1.038   6.980   2.300 -0.1335 -0.7627 -0.1980
   78MOL    H5229466   1.138   7.168   2.360 -0.3421  0.3974 -0.3680
   78MOL    H5329467   1.289   7.305   2.176 -0.2032  1.1633 -0.1995
   78MOL    H5429468   1.190   7.220   2.061 -1.1492 -0.9294  0.1275
   78MOL    H5529469   1.050   7.366   2.292  0.3414  0.8508 -0.5319
   78MOL    H5629470   0.998   7.345   2.126  0.3711 -1.0530 -1.0732
   78MOL    H5729471   1.396   7.130   2.273  0.6631 -1.5986  2.1393
   78MOL    H5829472   1.318   7.008   2.364  0.3947 -1.0586  0.4220
   78MOL    C5929473   1.131   7.517   2.156 -0.1560  0.4326 -0.5066
   78MOL    C6029474   1.240   7.564   2.250  0.2549 -0.9575 -0.2343
   78MOL    C6129475   1.307   0.034   2.174  0.3022 -0.4818 -0.0059
   78MOL    C6229476   1.288   0.011   2.023  0.2200 -0.1653  0.0774
   78MOL    C6329477   1.238   0.144   1.958 -0.2888 -0.1410  1.3255
   78MOL    C6429478   1.217   0.140   1.800  0.0564  1.0309 -0.6440
   78MOL    C6529479   1.194   7.540   2.009 -0.0896  0.2177 -0.4906
   78MOL    H6629480   1.042   7.578   2.168 -0.1583  0.0566  1.3895
   78MOL    H6729481   1.201   7.587   2.349 -0.5846 -3.3811  0.0348
   78MOL    H6829482   1.316   7.492   2.280 -0.5019 -1.0760  1.4513
   78MOL    H6929483   1.245   0.118   2.206 -0.5040  0.5098 -3.8427
   78MOL    H7029484   1.411   0.046   2.205 -0.7039  4.0941  2.1132
   78MOL    H7129485   1.382   7.619   1.983  0.4504 -0.7050  1.1494
   78MOL    H7229486   1.317   0.216   1.981  0.4345  0.0961 -1.6432
   78MOL    H7329487   1.140   0.181   1.987 -0.9437  0.8723 -1.9938
   78MOL    H7429488   1.318   0.144   1.760  0.0654  0.0838 -0.7287
   78MOL    H7529489   1.165   0.049   1.770 -1.9792  0.5850  3.8226
   78MOL    H7629490   1.112   7.547   1.938  1.8633  2.4722 -2.5968
   78MOL    H7729491   1.257   7.456   1.980 -0.1083 -0.4958  1.3996
   78MOL    C7829492   1.153   0.263   1.740 -0.0614  0.6203  0.1673
   78MOL    C7929493   1.173   0.268   1.585  0.2658  0.4356  0.1774
   78MOL    C8029494   1.034   0.306   1.520  0.3164  0.3612  0.1002
   78MOL    C8129495   0.949   0.344   1.646  0.4955 -0.6856  0.3391
   78MOL    C8229496   0.796   0.345   1.627  0.1278  0.0001 -0.6415
   78MOL    C8329497   0.736   0.205   1.614  0.2798  0.3592 -0.2579
   78MOL    C8429498   1.012   0.269   1.766 -0.0450  0.1170  0.0066
   78MOL    H8529499   1.206   0.346   1.786  0.9076  0.8654 -1.3597
   78MOL    H8629500   1.249   0.345   1.575  0.5742  0.0345 -0.6242
   78MOL    H8729501   1.213   0.181   1.533  2.8192  1.6548  0.0265
   78MOL    H8829502   1.045   0.395   1.458 -0.6258  0.6077  0.2705
   78MOL    H8929503   0.988   0.215   1.481 -2.0745  0.7363  1.8897
   78MOL    H9029504   0.974   0.448   1.663  0.7418 -0.6787 -0.0635
   78MOL    H9129505   0.774   0.410   1.542 -1.3409  0.6861  0.2362
   78MOL    H9229506   0.750   0.377   1.720  2.1807  1.3579 -0.0623
   78MOL    H9329507   0.749   0.154   1.709  2.0808  2.8912  0.8983
   78MOL    H9429508   0.787   0.143   1.540  1.8507 -1.3906  2.2362
   78MOL    H9529509   0.969   0.169   1.779 -0.5474  0.2215 -0.8057
   78MOL    H9629510   0.989   0.308   1.865  1.5110 -2.0011  1.2549
   78MOL    C9729511   0.586   0.214   1.572 -0.6350 -0.3920 -0.6934
   78MOL    C9829512   0.485   0.261   1.678  0.6346  0.3089  0.6878
   78MOL    C9929513   0.355   0.199   1.616 -0.0983  0.9070  0.3096
   78MOL   C10029514   0.400   0.055   1.576  0.0811 -0.3658 -0.0530
   78MOL   C10129515   0.396   7.599   1.692 -0.3284  0.2321 -0.4157
   78MOL   C10229516   0.385   7.453   1.642  0.7211 -0.2698  0.6515
   78MOL   C10329517   0.544   0.074   1.524  0.6132 -0.2370 -0.6149
   78MOL   H10429518   0.587   0.287   1.491  0.2302  1.0590  0.5921
   78MOL   H10529519   0.516   0.212   1.770  1.8526 -0.2530 -0.0076
   78MOL   H10629520   0.466   0.365   1.704  0.2675  1.0566 -2.3809
   78MOL   H10729521   0.272   0.215   1.684 -0.6552 -1.5556  0.2367
   78MOL   H10829522   0.334   0.268   1.535  1.0028 -1.1591 -1.7989
   78MOL   H10929523   0.332   0.016   1.500 -1.4304  2.3620 -0.1575
   78MOL   H11029524   0.481   7.617   1.759  0.9420 -1.9145 -1.4098
   78MOL   H11129525   0.313   7.619   1.759  0.2461  0.0269  0.3618
   78MOL   H11229526   0.321   7.427   1.558 -0.4109 -0.5950  1.5969
   78MOL   H11329527   0.486   7.449   1.602  0.4089 -0.5163 -0.1143
   78MOL   H11429528   0.608   0.002   1.576 -0.9308 -0.6888  0.7246
   78MOL   H11529529   0.543   0.072   1.415 -1.1422 -0.3373 -0.6127
   78MOL   C11629530   0.366   7.340   1.749 -0.0375  0.1161 -0.9651
   78MOL   C11729531   0.227   7.336   1.795  0.0670 -0.6615  0.3793
   78MOL   C11829532   0.205   7.188   1.832 -0.3740 -0.6359  0.5152
   78MOL   C11929533   0.330   7.108   1.796 -0.0620  0.0496  0.3858
   78MOL   C12029534   0.285   6.977   1.725 -0.1892 -0.3088 -0.3850
   78MOL   C12129535   0.207   6.878   1.815 -0.2638 -0.1645  0.1445
   78MOL   C12229536   0.402   7.199   1.706 -0.3109 -0.5935 -0.3009
   78MOL   H12329537   0.422   7.371   1.838 -0.1802  0.7262 -1.0817
   78MOL   H12429538   0.149   7.360   1.723  0.3379  0.4960  0.4730
   78MOL   H12529539   0.203   7.406   1.875 -0.3358 -2.5931  2.0035
   78MOL   H12629540   0.122   7.150   1.772  0.1102  1.3623 -1.4482
   78MOL   H12729541   0.178   7.159   1.934 -0.4852  3.2794  1.6897
   78MOL   H12829542   0.387   7.086   1.886  2.2442 -0.5462 -1.1696
   78MOL   H12929543   0.374   6.926   1.688  1.3908  1.2332  1.2529
   78MOL   H13029544   0.223   7.004   1.639  0.7882  2.6293 -0.1948
   78MOL   H13129545   0.199   6.784   1.759 -1.0492  0.3471 -0.6178
   78MOL   H13229546   0.104   6.908   1.832 -0.1590  0.6809 -0.6426
   78MOL   H13329547   0.508   7.177   1.698 -0.0075  0.8645 -0.3484
   78MOL   H13429548   0.361   7.191   1.606 -2.3753  0.1085  0.4690
   78MOL   C13529549   0.277   6.829   1.941 -0.4389  0.5741  0.3815
   78MOL   C13629550   0.200   6.705   2.010  0.5084  0.2122  0.2010
   78MOL   C13729551   0.319   6.650   2.099 -0.4415 -0.0610 -0.4108
   78MOL   C13829552   0.451   6.663   2.017 -0.0605  0.1994 -0.5277
   78MOL   C13929553   0.578   6.671   2.108 -0.1149 -0.7416  0.4974
   78MOL   C14029554   0.589   6.534   2.176  0.0579 -1.0394 -0.0686
   78MOL   C14129555   0.424   6.780   1.923 -0.4698 -0.0969  0.5005
   78MOL   H14229556   0.295   6.915   2.006 -0.5290  0.1210  1.0151
   78MOL   H14329557   0.104   6.734   2.052 -0.1034 -1.1946 -0.2143
   78MOL   H14429558   0.175   6.627   1.938  1.7416  0.1678 -0.1875
   78MOL   H14529559   0.327   6.703   2.194 -0.4810 -0.3372 -0.2534
   78MOL   H14629560   0.302   6.545   2.122  0.6377 -0.6346 -2.1261
   78MOL   H14729561   0.468   6.581   1.948 -2.4780  1.3228 -2.5316
   78MOL   H14829562   0.561   6.753   2.178  0.3271  0.3564 -0.6580
   78MOL   H14929563   0.663   6.699   2.046  2.2001 -1.6926  3.1918
   78MOL   H15029564   0.511   6.532   2.252  0.6343 -0.2250  0.5623
   78MOL   H15129565   0.581   6.450   2.107  0.1690  0.1171 -1.5108
   78MOL   H15229566   0.439   6.744   1.822 -1.9230  0.3605  0.1083
   78MOL   H15329567   0.497   6.856   1.950  0.5520 -1.1811  0.8283
   78MOL   C15429568   0.726   6.506   2.239  0.4441  0.1272  0.1378
   78MOL   C15529569   0.793   6.609   2.339 -0.3012 -0.6701  0.5810
   78MOL   C15629570   0.937   6.625   2.284  0.0818  0.0102  0.3523
   78MOL   C15729571   0.964   6.498   2.210 -0.1167 -0.2879  0.0924
   78MOL   C15829572   1.094   6.509   2.131  0.5442 -0.0851  0.3002
   78MOL   C15929573   1.147   6.365   2.085 -0.7750 -0.4232 -0.4813
   78MOL   C16029574   0.835   6.470   2.133  0.0085 -0.3292 -0.7018
   78MOL   H16129575   0.710   6.417   2.299  2.2450  0.5814  1.3131
   78MOL   H16229576   0.745   6.707   2.340  0.7963 -0.0965 -0.3578
   78MOL   H16329577   0.786   6.568   2.439  1.1028  1.7928  1.7384
   78MOL   H16429578   0.950   6.711   2.217 -2.4995  0.5147  0.4428
   78MOL   H16529579   1.012   6.630   2.363  1.7852  0.0614 -1.2203
   78MOL   H16629580   0.974   6.413   2.278 -2.5553 -1.0296 -0.4069
   78MOL   H16729581   1.165   6.567   2.190  0.2293  1.4176 -0.7875
   78MOL   H16829582   1.069   6.571   2.045 -0.0989 -1.1571 -0.3009
   78MOL   H16929583   1.208   6.340   2.172  0.8248  0.4684 -1.3371
   78MOL   H17029584   1.053   6.310   2.078  0.0239 -2.0365  1.2061
   78MOL   H17129585   0.833   6.366   2.101  0.6499 -0.2025 -1.1747
   78MOL   H17229586   0.821   6.525   2.040 -1.6427  0.0960 -0.2075
   78MOL   C17329587   1.220   6.360   1.953 -0.0900 -0.2617  0.0869
   78MOL   C17429588   1.242   6.218   1.895 -0.0406  0.3769 -0.0390
   78MOL   C17529589   1.172   6.205   1.761  0.5130 -0.0533 -0.4016
   78MOL   C17629590   1.165   6.347   1.705 -0.4945 -0.5602 -0.0032
   78MOL   C17729591   1.064   6.368   1.592 -0.1389 -0.5739  1.0935
   78MOL   C17829592   1.083   6.512   1.527  0.8436  0.2372 -0.8360
   78MOL   C17929593   1.132   6.423   1.834  0.3702 -0.0820  0.9013
   78MOL   H18029594   1.311   6.418   1.970 -0.7316  0.2814  1.7501
   78MOL   H18129595   1.201   6.141   1.960  0.5499  0.2895  0.2303
   78MOL   H18229596   1.348   6.199   1.884 -0.0226  0.2616  0.3219
   78MOL   H18329597   1.218   6.141   1.685 -0.8928  0.2091 -1.5046
   78MOL   H18429598   1.071   6.166   1.769  1.4478 -2.8165 -1.4985
   78MOL   H18529599   1.266   6.370   1.672 -1.0627 -0.7286 -1.9039
   78MOL   H18629600   0.962   6.343   1.621 -0.9926  1.2187 -0.3227
   78MOL   H18729601   1.081   6.288   1.520  2.9772  0.7075  0.3547
   78MOL   H18829602   1.187   6.542   1.514  0.3769  0.5650 -4.1297
   78MOL   H18929603   1.053   6.577   1.610  2.8177 -0.0428  0.1304
   78MOL   H19029604   1.026   6.424   1.860 -0.1736  1.6717 -1.2213
   78MOL   H19129605   1.146   6.529   1.815 -0.8828 -0.0562  0.0572
   78MOL   C19229606   1.008   6.535   1.395  0.0325  1.0264 -0.0000
   78MOL   C19329607   1.066   6.451   1.280  0.0941  0.1369  0.0691
   78MOL   C19429608   1.123   6.542   1.170  0.8246  0.0302 -0.7250
   78MOL   C19529609   1.137   6.672   1.244 -0.2472  0.2139 -0.1111
   78MOL   C19629610   1.140   6.797   1.155 -0.1440  0.0394 -0.2118
   78MOL   C19729611   1.218   6.782   1.025  0.2671  0.5959 -0.4270
   78MOL   C19829612   1.019   6.672   1.344  0.5210 -0.3350  0.5685
   78MOL   H19929613   0.903   6.505   1.395  0.5230 -0.7347  2.0818
   78MOL   H20029614   1.148   6.398   1.328 -0.5844 -1.8232 -0.8644
   78MOL   H20129615   0.996   6.375   1.245  1.2848 -0.5548 -0.8669
   78MOL   H20229616   1.047   6.559   1.093  0.9342  1.5727 -0.5002
   78MOL   H20329617   1.217   6.505   1.131  1.3759  1.8001 -1.1003
   78MOL   H20429618   1.231   6.663   1.299 -0.7256  0.9688  0.8477
   78MOL   H20529619   1.158   6.890   1.210  0.0468  0.2386 -0.6134
   78MOL   H20629620   1.035   6.797   1.124 -0.0975 -3.4782 -0.5495
   78MOL   H20729621   1.195   6.859   0.951  0.7064 -0.1744 -1.3663
   78MOL   H20829622   1.200   6.685   0.979 -2.3073 -0.1911  2.1330
   78MOL   H20929623   0.932   6.706   1.288  0.4999 -0.0695  0.7618
   78MOL   H21029624   1.038   6.752   1.416 -0.3247  0.0270  0.4008
   78MOL   C21129625   1.369   6.811   1.042 -0.4668  0.3654 -0.0585
   78MOL   C21229626   1.451   6.838   0.913 -0.0017 -0.7642  0.2357
   78MOL   C21329627   1.598   6.818   0.943  0.9621 -0.5841 -0.1296
   78MOL   C21429628   1.604   6.760   1.084  0.1117  0.1805 -0.5496
   78MOL   C21529629   1.708   6.648   1.110 -0.3067  0.3028  0.1702
   78MOL   C21629630   1.851   6.690   1.125 -0.0276 -0.1313  0.0502
   78MOL   C21729631   1.462   6.706   1.108 -0.3291  0.2730  0.1870
   78MOL   H21829632   1.379   6.901   1.102 -0.6768 -0.1655  0.7735
   78MOL   H21929633   1.420   6.771   0.833 -3.9122  0.9474  0.1935
   78MOL   H22029634   1.421   6.935   0.872 -1.7435 -1.0351  0.8221
   78MOL   H22129635   1.634   6.739   0.878  0.8495 -0.0334 -0.8740
   78MOL   H22229636   1.659   6.907   0.924 -0.4128  0.7591  1.5310
   78MOL   H22329637   1.623   6.841   1.154  1.6779  1.0081 -1.8877
   78MOL   H22429638   1.710   6.577   1.027  1.2597 -0.6656  1.0155
   78MOL   H22529639   1.675   6.590   1.196 -0.4171  0.5918  0.3226
   78MOL   H22629640   1.875   6.730   1.026  2.6305 -0.0473  0.6771
   78MOL   H22729641   1.869   6.773   1.192 -2.1705  0.3538  0.0433
   78MOL   H22829642   1.453   6.695   1.216  2.3602 -0.9908  0.3142
   78MOL   H22929643   1.452   6.607   1.062  1.4312 -0.5796  1.5931
   78MOL   C23029644   1.955   6.581   1.170 -0.5435 -0.3296  0.5883
   78MOL   C23129645   1.931   6.526   1.305 -0.4313  0.0484 -0.3641
   78MOL   C23229646   2.054   6.458   1.344 -0.3732 -0.5453 -0.5031
   78MOL   C23329647   2.164   6.559   1.290  0.3001 -0.0724 -0.5275
   78MOL   C23429648   2.295   6.493   1.264  0.3145  0.1142 -0.1302
   78MOL   C23529649   2.402   6.591   1.220  0.0283 -0.6607 -0.2946
   78MOL   C23629650   2.099   6.629   1.173 -0.2334  0.5123  0.2358
   78MOL   H23729651   1.952   6.498   1.100 -0.0809  1.2532 -1.3662
   78MOL   H23829652   1.893   6.608   1.367  0.4724 -0.9315  1.5255
   78MOL   H23929653   1.852   6.451   1.305  0.5908 -1.0415  0.0723
   78MOL   H24029654   2.065   6.357   1.303 -0.5536 -1.3791  1.4685
   78MOL   H24129655   2.064   6.458   1.452  1.1392  1.4318 -0.6195
   78MOL   H24229656   2.170   6.640   1.363 -1.6948  0.3115 -0.7618
   78MOL   H24329657   2.272   6.416   1.190 -1.6209  1.4082 -0.9120
   78MOL   H24429658   2.330   6.457   1.361 -1.6116  0.8670  0.8673
   78MOL   H24529659   2.368   6.659   1.142  1.9278 -0.1198 -0.6671
   78MOL   H24629660   2.432   6.664   1.296  0.6230 -2.4248  1.1802
   78MOL   H24729661   2.146   6.618   1.076 -2.8649  2.3576 -1.3132
   78MOL   H24829662   2.110   6.735   1.192 -0.9822  0.9073 -1.4670
   78MOL   C24929663   2.535   6.533   1.171 -0.3414 -0.0920  1.1100
   78MOL   C25029664   2.629   6.641   1.122 -0.1371 -0.1303  0.0254
   78MOL   C25129665   2.770   6.616   1.198 -0.0718  0.2053 -0.4807
   78MOL   C25229666   2.763   6.476   1.267  0.4192  0.2015  0.3934
   78MOL   C25329667   2.833   6.360   1.183 -0.1238  0.4964 -0.5145
   78MOL   C25429668   2.833   6.216   1.245  0.4016 -0.5476  0.3907
   78MOL   C25529669   2.612   6.454   1.276 -0.4306 -0.0236 -0.4925
   78MOL   H25629670   2.517   6.463   1.089  3.2852 -1.3195  1.2727
   78MOL   H25729671   2.643   6.644   1.014 -0.5645  0.5059 -0.0076
   78MOL   H25829672   2.588   6.740   1.138 -1.2931 -0.0064 -3.3996
   78MOL   H25929673   2.768   6.696   1.272  1.4067 -0.3952  0.2139
   78MOL   H26029674   2.858   6.635   1.137  1.1760 -2.0823  0.5528
   78MOL   H26129675   2.813   6.486   1.363 -0.2716 -0.7692  0.8702
   78MOL   H26229676   2.940   6.377   1.172  0.4697 -2.7281 -0.2952
   78MOL   H26329677   2.789   6.354   1.084 -0.3308 -1.0748 -0.3449
   78MOL   H26429678   2.904   6.160   1.184  1.4888  0.3482  0.8142
   78MOL   H26529679   2.737   6.165   1.243  0.9479 -1.5567 -0.4987
   78MOL   H26629680   2.593   6.497   1.374  2.1095 -1.6646  0.7849
   78MOL   H26729681   2.588   6.348   1.280  1.7375 -0.5979 -1.6017
   78MOL   C26829682   2.870   6.225   1.390  0.3693  0.0674  0.0278
   78MOL   C26929683   3.021   6.260   1.425  0.2895  0.1295  0.1397
   78MOL   C27029684   3.051   6.160   1.537  0.2082  0.0490 -0.0485
   78MOL   C27129685   2.921   6.088   1.575  0.2607 -0.4977 -0.1259
   78MOL   C27229686   2.937   5.947   1.623 -0.2473  0.2608  0.1043
   78MOL   C27329687   2.998   5.940   1.762  0.2469  0.1675  0.1528
   78MOL   C27429688   2.860   6.085   1.442 -0.4996  0.0611 -0.3914
   78MOL   H27529689   2.795   6.277   1.450  0.7502  0.4492  0.1762
   78MOL   H27629690   3.082   6.235   1.339 -1.7601  3.2598 -2.3109
   78MOL   H27729691   3.034   6.366   1.448 -0.7669  0.5836 -1.2932
   78MOL   H27829692   3.117   6.081   1.502 -2.6855 -1.3107 -2.6394
   78MOL   H27929693   3.088   6.211   1.627  0.3404  0.4311 -0.3154
   78MOL   H28029694   2.861   6.153   1.639  0.5124  0.2388 -0.6322
   78MOL   H28129695   3.002   5.894   1.554 -0.3400 -1.6558  1.4399
   78MOL   H28229696   2.845   5.889   1.629 -1.3375  1.6084 -2.7863
   78MOL   H28329697   3.087   6.003   1.764  1.0772 -0.9914  0.7220
   78MOL   H28429698   2.918   5.965   1.831  0.0941 -2.1723  0.8586
   78MOL   H28529699   2.918   6.019   1.378  0.4333  1.2404 -0.7866
   78MOL   H28629700   2.758   6.046   1.434  0.4250 -1.9304 -2.7720
   78MOL   C28729701   3.044   5.794   1.792 -0.6546  0.0129 -0.0989
   78MOL   C28829702   3.117   5.791   1.928  0.4920  0.4806  0.2122
   78MOL   C28929703   3.071   5.665   1.997 -0.3741  0.0394  0.3111
   78MOL   C29029704   2.988   5.588   1.892 -1.0007 -0.5067  0.5980
   78MOL   C29129705   2.879   5.501   1.955 -0.0562 -0.0212 -0.1927
   78MOL   C29229706   2.936   5.382   2.035  0.1632 -0.2758 -0.3240
   78MOL   C29329707   2.926   5.698   1.809 -0.3619 -0.2963 -0.3129
   78MOL   H29429708   3.112   5.762   1.712  0.3572 -0.3681  0.9010
   78MOL   H29529709   3.226   5.787   1.923  0.5461 -0.0594  1.7683
   78MOL   H29629710   3.101   5.877   1.993 -0.4060  0.6499 -0.2246
   78MOL   H29729711   3.014   5.686   2.088  1.3005  1.4388  1.0610
   78MOL   H29829712   3.156   5.610   2.037  0.0897  0.3614 -0.2290
   78MOL   H29929713   3.057   5.537   1.825 -1.2522  0.1683 -0.1752
   78MOL   H30029714   2.815   5.459   1.878  1.8183 -0.6710 -1.4360
   78MOL   H30129715   2.813   5.555   2.023  1.0048  0.7833  0.2169
   78MOL   H30229716   3.024   5.406   2.094 -0.0101  0.1819 -0.2498
   78MOL   H30329717   2.972   5.316   1.956  2.0922  0.4275 -0.0709
   78MOL   H30429718   2.850   5.749   1.868 -1.8726 -0.4133 -2.1011
   78MOL   H30529719   2.881   5.677   1.712 -0.1224  1.5013 -0.8193
   78MOL   C30629720   2.836   5.318   2.131  0.1061  0.3520 -0.2945
   78MOL   C30729721   2.699   5.275   2.074 -0.2965 -0.8833  0.2884
   78MOL   C30829722   2.636   5.176   2.167 -0.1438  0.6820  0.1274
   78MOL   C30929723   2.751   5.116   2.248 -0.2107 -0.0659 -0.2229
   78MOL   C31029724   2.744   4.960   2.240  1.2792 -0.9895  0.0518
   78MOL   C31129725   2.861   4.898   2.329  0.3978  1.1540 -0.6408
   78MOL   C31229726   2.881   5.191   2.198  0.0272  0.3262  0.3473
   78MOL   H31329727   2.809   5.392   2.207 -2.7286 -1.8508  0.9084
   78MOL   H31429728   2.637   5.365   2.070 -0.1411 -0.5652  3.5676
   78MOL   H31529729   2.716   5.237   1.973 -0.9239 -0.2163 -0.0724
   78MOL   H31629730   2.570   5.235   2.229  1.9127  2.3948  0.7434
   78MOL   H31729731   2.573   5.102   2.117  2.8288 -1.5547 -0.4645
   78MOL   H31829732   2.743   5.142   2.353  3.8457  0.9390 -0.0666
   78MOL   H31929733   2.647   4.926   2.275  1.6294 -2.5369 -0.4686
   78MOL   H32029734   2.753   4.918   2.140  1.6043  0.1222 -0.3995
   78MOL   H32129735   2.864   4.951   2.424  1.7496  0.8246 -0.4782
   78MOL   H32229736   2.961   4.917   2.289  1.2230 -0.9320  0.3243
   78MOL   H32329737   2.925   5.124   2.123 -1.5389 -0.8940  0.4796
   78MOL   H32429738   2.954   5.207   2.277 -1.9184 -1.2384  2.5147
   78MOL   C32529739   2.838   4.748   2.354 -0.5238  0.0150 -0.3421
   78MOL   C32629740   2.726   4.710   2.444 -0.5044 -0.9734  0.0304
   78MOL   C32729741   2.644   4.604   2.370  0.2668 -0.2142  0.1764
   78MOL   C32829742   2.680   4.619   2.214 -0.3355 -0.1131 -0.0738
   78MOL   C32929743   2.661   4.489   2.133  0.0127  0.2507  0.1138
   78MOL   C33029744   2.711   4.490   1.978  0.5029  0.0314 -0.2097
   78MOL   C33129745   2.826   4.661   2.224 -0.4559 -0.2176 -0.3076
   78MOL   H33229746   2.932   4.713   2.396 -1.1132  1.7635  2.5556
   78MOL   H33329747   2.662   4.796   2.466 -1.1410 -1.9315  2.0303
   78MOL   H33429748   2.760   4.682   2.544  1.1014 -1.8801 -0.7497
   78MOL   H33529749   2.672   4.508   2.412 -2.0533 -2.0573 -2.3442
   78MOL   H33629750   2.537   4.622   2.376  0.0663 -1.9121  2.5028
   78MOL   H33729751   2.615   4.695   2.172  0.8720  1.9172  1.6199
   78MOL   H33829752   2.719   4.409   2.177 -1.2277 -1.2350 -0.8888
   78MOL   H33929753   2.553   4.471   2.126 -0.7928  4.4573  0.1193
   78MOL   H34029754   2.636   4.545   1.922  0.9756  1.8891  0.9286
   78MOL   H34129755   2.796   4.554   1.952 -0.8259  1.6539 -0.6679
   78MOL   H34229756   2.845   4.715   2.131  0.8213 -1.3756 -0.7344
   78MOL   H34329757   2.887   4.570   2.228 -0.1201  0.0551  1.0953
   78MOL   C34429758   2.746   4.358   1.924  0.3849 -0.3803 -0.3271
   78MOL   C34529759   2.839   4.360   1.802  0.2083  0.3727 -0.2148
   78MOL   C34629760   2.819   4.216   1.745 -0.1035  0.8303 -0.0250
   78MOL   C34729761   2.680   4.167   1.795  0.4535 -0.4882  0.1675
   78MOL   C34829762   2.689   4.032   1.874  0.3227  0.0253 -0.1516
   78MOL   C34929763   2.737   4.029   2.016 -0.0032 -0.1452  0.1433
   78MOL   C35029764   2.624   4.288   1.867 -0.0025 -0.5634  0.2500
   78MOL   H35129765   2.794   4.298   2.002 -0.5921 -0.2937  0.3557
   78MOL   H35229766   2.945   4.372   1.824  0.5506 -0.3221 -1.4265
   78MOL   H35329767   2.807   4.434   1.729  0.2212  0.0095 -0.5945
   78MOL   H35429768   2.826   4.225   1.637  1.7747  0.2107  0.0139
   78MOL   H35529769   2.895   4.146   1.781  1.2722  2.1722 -0.2390
   78MOL   H35629770   2.617   4.136   1.712 -0.9764 -0.5394  1.2459
   78MOL   H35729771   2.586   3.997   1.875  0.2370  0.2626 -0.6252
   78MOL   H35829772   2.750   3.963   1.815  0.5489  0.4676 -0.4383
   78MOL   H35929773   2.678   4.104   2.069 -0.9172 -0.3740 -0.5519
   78MOL   H36029774   2.840   4.064   2.013 -0.5460  1.6328  1.4928
   78MOL   H36129775   2.565   4.350   1.801  1.3308  0.7554  0.2617
   78MOL   H36229776   2.551   4.260   1.943  0.0995 -2.2225 -0.2331
   78MOL   C36329777   2.747   3.890   2.093  0.4347 -0.1493 -0.3664
   78MOL   C36429778   2.615   3.811   2.098  0.2371 -0.0032  0.6822
   78MOL   C36529779   2.598   3.737   2.236  0.6318 -0.9542 -0.6018
   78MOL   C36629780   2.732   3.776   2.313  0.5624 -0.1858 -0.3533
   78MOL   C36729781   2.728   3.792   2.462  0.9092 -0.8790 -0.2229
   78MOL   C36829782   2.669   3.680   2.548  0.8871  0.4739 -0.0261
   78MOL   C36929783   2.797   3.897   2.235  0.5574 -0.7766  0.1564
   78MOL   H37029784   2.818   3.829   2.038  0.7671 -0.1564  0.0692
   78MOL   H37129785   2.530   3.878   2.097  1.5552  1.6976 -1.0940
   78MOL   H37229786   2.619   3.739   2.016  0.8275 -0.4457  1.0975
   78MOL   H37329787   2.516   3.778   2.295 -0.1497  0.9799 -2.9130
   78MOL   H37429788   2.583   3.629   2.233 -3.3072 -0.5209  0.2551
   78MOL   H37529789   2.796   3.692   2.284 -2.1638 -2.3374 -0.2962
   78MOL   H37629790   2.828   3.819   2.494 -0.1832  1.1621  1.6013
   78MOL   H37729791   2.665   3.878   2.482  1.7255 -0.3856  0.2346
   78MOL   H37829792   2.735   3.661   2.633  3.2041  1.5110 -1.5535
   78MOL   H37929793   2.662   3.585   2.496  0.2321  1.8243 -2.4474
   78MOL   H38029794   2.745   3.981   2.281 -1.1289 -2.0507  0.6013
   78MOL   H38129795   2.906   3.898   2.244  0.6284  1.0864 -0.7054
   78MOL   H38229796   2.566   3.710   2.570  1.2958  2.5595 -0.8543
   79MOL     C129797   6.464   7.370   6.358 -0.7140 -0.2223  0.3185
   79MOL     C229798   6.443   7.486   6.263  0.2478 -0.0734  0.4383
   79MOL     C329799   6.556   7.586   6.304 -0.8010 -0.1727  0.0944
   79MOL     C429800   6.644   7.521   6.414  0.4127 -0.2516 -0.5771
   79MOL     C529801   6.625   7.587   6.545  0.5198  0.2241 -0.1503
   79MOL     C629802   6.714   7.547   6.658  0.2486 -0.1610 -0.8171
   79MOL     C729803   6.601   7.374   6.412 -0.3705 -0.3453  0.3639
   79MOL     H829804   6.406   7.371   6.450 -1.1977 -3.1961  0.0759
   79MOL     H929805   6.347   7.538   6.272  0.9539  1.1471  1.0393
   79MOL    H1029806   6.466   7.462   6.159  1.8675 -1.9735  1.2166
   79MOL    H1129807   6.615   7.624   6.221  0.7195 -1.2831  0.6581
   79MOL    H1229808   6.507   0.028   6.344  2.4438  2.0798 -0.7617
   79MOL    H1329809   6.750   7.533   6.390  1.0700 -0.7960  1.8829
   79MOL    H1429810   6.647   0.040   6.509 -3.5705  2.0884  2.2582
   79MOL    H1529811   6.520   7.593   6.573  0.5553 -0.7905  0.2391
   79MOL    H1629812   6.713   7.438   6.668 -0.8894 -0.1138 -0.3543
   79MOL    H1729813   6.816   7.580   6.639  0.1185  3.5431  4.0006
   79MOL    H1829814   6.671   7.322   6.347  0.9093 -0.7925  2.0466
   79MOL    H1929815   6.617   7.318   6.504  1.5108 -0.4563 -0.0093
   79MOL    H2029816   6.441   7.276   6.309 -0.1445 -0.5841  0.7462
   79MOL    C2129817   6.655   7.601   6.787 -0.3870  0.0781 -0.0566
   79MOL    C2229818   6.745   7.570   6.911 -0.0946 -0.3219 -0.1243
   79MOL    C2329819   6.702   0.022   7.027 -0.1679  0.0996  0.0931
   79MOL    C2429820   6.659   0.149   6.945 -0.1291  0.4784 -0.3495
   79MOL    C2529821   6.751   0.268   6.967 -0.5183  0.0865  0.0245
   79MOL    C2629822   6.781   0.296   7.113  0.5522 -0.4953 -0.2963
   79MOL    C2729823   6.646   0.106   6.797 -0.1949 -0.1069  0.5065
   79MOL    H2829824   6.560   7.548   6.798 -0.7019  0.9768  1.8599
   79MOL    H2929825   6.730   7.466   6.942  0.5884 -0.5659 -0.5883
   79MOL    H3029826   6.852   7.579   6.890 -0.2942  0.5007 -0.8068
   79MOL    H3129827   6.615   7.627   7.079 -0.3713  0.9197  0.4160
   79MOL    H3229828   6.783   0.035   7.098  0.7299 -1.1186 -0.6722
   79MOL    H3329829   6.561   0.172   6.987  0.9623  1.2030  1.8728
   79MOL    H3429830   6.712   0.360   6.924  0.5511  0.6446  0.2338
   79MOL    H3529831   6.849   0.262   6.919 -2.1388 -1.6009 -3.2948
   79MOL    H3629832   6.846   0.224   7.163  0.0654 -0.8451 -0.1611
   79MOL    H3729833   6.686   0.290   7.166 -0.4614 -0.9602 -2.1097
   79MOL    H3829834   6.549   0.142   6.763 -0.0682  1.0623  1.3636
   79MOL    H3929835   6.721   0.153   6.733 -0.7980 -1.1512 -1.0269
   79MOL    C4029836   6.844   0.441   7.133 -0.5496 -0.6466  0.7955
   79MOL    C4129837   6.869   0.480   7.276 -0.1931  0.0260 -0.1867
   79MOL    C4229838   6.989   0.571   7.277  0.4504  0.0452  0.6483
   79MOL    C4329839   7.079   0.515   7.170  0.2125  0.0147  0.4609
   79MOL    C4429840   7.193   0.609   7.108 -0.2782 -0.7839  0.6597
   79MOL    C4529841   7.314   0.546   7.042  0.0353 -0.3770  0.1459
   79MOL    C4629842   6.983   0.472   7.063  0.0884 -0.1595 -0.1942
   79MOL    H4729843   6.781   0.515   7.085  0.7665  0.5473  0.8832
   79MOL    H4829844   6.890   0.392   7.336 -0.3024  1.4565  1.9911
   79MOL    H4929845   6.783   0.535   7.314  1.2404  2.5649 -0.4818
   79MOL    H5029846   6.955   0.672   7.253 -0.0002  0.3191  2.3597
   79MOL    H5129847   7.031   0.573   7.378  1.2326 -0.7638  0.3425
   79MOL    H5229848   7.123   0.421   7.202 -0.7542 -0.8430 -0.7251
   79MOL    H5329849   7.151   0.685   7.042  0.7891  0.2243  1.1124
   79MOL    H5429850   7.231   0.665   7.194  0.6717  1.6275 -1.2592
   79MOL    H5529851   7.370   0.496   7.121  1.0943  0.5576  0.0178
   79MOL    H5629852   7.374   0.630   7.004 -0.3330 -0.8235 -1.4876
   79MOL    H5729853   6.966   0.566   7.009  1.6404 -0.0795 -0.5419
   79MOL    H5829854   7.020   0.383   7.013  0.7750  1.1770 -2.1110
   79MOL    C5929855   7.280   0.459   6.917  0.3081  0.3356  0.1117
   79MOL    C6029856   7.219   0.533   6.804 -0.6192 -0.5560  1.1194
   79MOL    C6129857   7.250   0.457   6.683  0.3001  0.3666 -0.3905
   79MOL    C6229858   7.396   0.415   6.704  1.3828  0.4372  0.1379
   79MOL    C6329859   7.448   0.303   6.606  0.2621 -0.4164 -0.4169
   79MOL    C6429860   7.518   0.360   6.479 -0.5489  0.1753  0.5090
   79MOL    C6529861   7.403   0.379   6.852 -0.4204 -0.2258  0.1444
   79MOL    H6629862   7.209   0.382   6.949  1.4740 -1.2692 -1.0774
   79MOL    H6729863   7.112   0.548   6.817 -0.6445 -0.1277  0.4706
   79MOL    H6829864   7.270   0.628   6.785 -1.3401 -0.0117  1.9240
   79MOL    H6929865   7.184   0.371   6.672  0.5139 -0.1706  2.1440
   79MOL    H7029866   7.241   0.516   6.592  0.4786 -1.0061 -1.2985
   79MOL    H7129867   7.460   0.501   6.687  2.1147 -0.5657 -2.4837
   79MOL    H7229868   7.357   0.252   6.572 -0.7276  1.0651 -0.0070
   79MOL    H7329869   7.512   0.236   6.664 -1.5880 -1.2224  0.7493
   79MOL    H7429870   7.458   0.443   6.441 -1.5541 -0.6166  0.3574
   79MOL    H7529871   7.619   0.396   6.495 -0.4756  0.1188  0.1618
   79MOL    H7629872   7.413   0.275   6.883 -1.8819 -0.6247 -0.6720
   79MOL    H7729873   7.495   0.430   6.882  0.3740 -1.2784 -0.4648
   79MOL    C7829874   7.518   0.265   6.357  0.8108 -0.2028 -0.3193
   79MOL    C7929875   7.544   0.331   6.222  1.6853 -0.0461 -0.6487
   79MOL    C8029876   7.645   0.249   6.145 -0.4460 -0.4614 -0.0974
   79MOL    C8129877   7.629   0.112   6.215  0.4222  0.7715 -0.3010
   79MOL    C8229878   0.095   0.010   6.196 -0.6474  0.1532  0.3541
   79MOL    C8329879   0.052   7.519   6.259 -0.1367 -0.2781 -0.1352
   79MOL    C8429880   7.605   0.145   6.364  0.6519 -0.1473 -0.5038
   79MOL    H8529881   7.420   0.218   6.347  1.6011 -2.0309  0.3122
   79MOL    H8629882   7.454   0.326   6.161  1.2411 -4.2759  0.1535
   79MOL    H8729883   7.592   0.427   6.238  1.5620 -0.2727  1.1922
   79MOL    H8829884   7.630   0.251   6.037  1.9079 -0.1899 -0.4561
   79MOL    H8929885   0.102   0.272   6.167 -0.5750 -0.6310  0.6959
   79MOL    H9029886   7.536   0.068   6.179 -0.2982  1.8465  0.2034
   79MOL    H9129887   0.193   0.036   6.238 -0.2475 -1.2387  0.2865
   79MOL    H9229888   0.114   7.639   6.090 -1.5083  0.8640  0.0755
   79MOL    H9329889   7.605   7.488   6.213 -0.8922 -0.1937  1.3181
   79MOL    H9429890   0.049   7.526   6.368 -0.6296 -1.5905 -0.0595
   79MOL    H9529891   0.052   0.168   6.414  2.9829  0.4253 -4.9420
   79MOL    H9629892   7.558   0.062   6.417 -0.9466  0.0235 -1.6319
   79MOL    C9729893   0.137   7.401   6.222 -0.3526 -0.7405  0.1874
   79MOL    C9829894   0.091   7.269   6.297 -0.2536 -0.7711  0.9605
   79MOL    C9929895   0.228   7.192   6.319 -0.1992  0.1378 -0.3985
   79MOL   C10029896   0.332   7.301   6.345 -0.4908 -0.0072 -0.5506
   79MOL   C10129897   0.320   7.337   6.493 -0.4172 -0.3166 -0.0409
   79MOL   C10229898   0.428   7.446   6.528 -0.5150 -0.6680  0.3637
   79MOL   C10329899   0.289   7.407   6.250  0.4654  0.6366 -0.3417
   79MOL   H10429900   0.136   7.384   6.114 -2.8957  0.1371  0.0593
   79MOL   H10529901   0.051   7.292   6.396 -1.9342  1.9569 -0.2998
   79MOL   H10629902   0.012   7.218   6.241  0.6102 -0.4144 -0.5949
   79MOL   H10729903   0.226   7.121   6.401 -2.6258  0.7976  0.1510
   79MOL   H10829904   0.246   7.140   6.225 -0.5521 -2.0365  0.7067
   79MOL   H10929905   0.436   7.272   6.330  0.3465  3.4053 -1.9378
   79MOL   H11029906   0.222   7.379   6.516  0.4663  2.8337 -1.6089
   79MOL   H11129907   0.324   7.248   6.556  0.4657  0.9408  1.7350
   79MOL   H11229908   0.525   7.396   6.516 -1.4477 -2.4001 -0.0484
   79MOL   H11329909   0.412   7.529   6.460 -0.9706 -3.3641 -2.9080
   79MOL   H11429910   0.314   7.513   6.265  0.9678  0.5521 -0.5616
   79MOL   H11529911   0.342   7.390   6.156 -0.2627  1.1142 -0.8524
   79MOL   C11629912   0.424   7.492   6.676 -0.7297  0.1351  0.2122
   79MOL   C11729913   0.477   7.377   6.757  0.2466 -0.0082 -0.1317
   79MOL   C11829914   0.523   7.445   6.880  0.0539 -0.3530 -0.4804
   79MOL   C11929915   0.542   7.591   6.868 -0.3451 -0.3352 -0.1051
   79MOL   C12029916   0.686   7.633   6.916  0.7134  0.3927 -0.1517
   79MOL   C12129917   0.727   0.134   6.903 -0.2615  0.1160  0.1942
   79MOL   C12229918   0.510   7.612   6.716  0.0644 -0.7759 -0.3494
   79MOL   H12329919   0.324   7.507   6.716 -1.1974  1.1558 -1.3239
   79MOL   H12429920   0.567   7.329   6.720  1.7478  1.4110  1.5962
   79MOL   H12529921   0.408   7.293   6.766  1.1010 -0.7004 -0.0212
   79MOL   H12629922   0.612   7.394   6.919 -0.2769  0.0099  0.7860
   79MOL   H12729923   0.449   7.426   6.958  0.1415  2.1804  0.2704
   79MOL   H12829924   0.474   0.009   6.923  0.9290  2.1763 -1.4294
   79MOL   H12929925   0.751   7.574   6.851  0.1411 -1.2353  0.7248
   79MOL   H13029926   0.712   7.589   7.013 -1.5076 -0.9640 -0.1317
   79MOL   H13129927   0.827   0.153   6.943 -0.3883  1.4900 -0.1176
   79MOL   H13229928   0.662   0.196   6.964 -2.3255 -0.7944 -1.0216
   79MOL   H13329929   0.472   0.061   6.684 -2.1910 -1.5815 -0.1875
   79MOL   H13429930   0.606   7.601   6.665  0.2684 -0.9682  0.0616
   79MOL   C13529931   0.744   0.191   6.760  0.3986 -1.1146 -0.8763
   79MOL   C13629932   0.779   0.338   6.752 -0.9530 -0.6740 -0.1883
   79MOL   C13729933   0.866   0.355   6.631  0.3708 -0.0050  0.0237
   79MOL   C13829934   0.891   0.215   6.565 -0.0137 -0.3199 -0.6847
   79MOL   C13929935   0.825   0.208   6.427 -0.1804  0.9274  0.5498
   79MOL   C14029936   0.881   0.102   6.339  0.5211  0.3621 -0.7256
   79MOL   C14129937   0.843   0.119   6.673  0.0090 -0.1689  0.1969
   79MOL   H14229938   0.650   0.186   6.706  1.6666 -0.5420 -3.2004
   79MOL   H14329939   0.698   0.411   6.763 -1.6643 -0.9356 -3.0847
   79MOL   H14429940   0.850   0.343   6.834  0.2937 -3.1713 -1.0729
   79MOL   H14529941   0.804   0.414   6.563  0.5869 -0.9836 -1.0478
   79MOL   H14629942   0.963   0.401   6.651 -0.4668  1.5492  0.5256
   79MOL   H14729943   0.997   0.193   6.556  0.2239  1.0298 -1.2322
   79MOL   H14829944   0.842   0.303   6.376 -2.2587  0.8061 -0.4401
   79MOL   H14929945   0.717   0.200   6.441 -0.0643 -0.3731  0.7415
   79MOL   H15029946   0.950   0.147   6.268 -0.3413 -0.2079 -1.9418
   79MOL   H15129947   0.946   0.044   6.405 -2.6997 -2.3583  0.2046
   79MOL   H15229948   0.920   0.075   6.735 -2.1204 -2.0600  1.5953
   79MOL   H15329949   0.795   0.032   6.626 -2.7180  1.1564  0.4088
   79MOL   C15429950   0.779   0.016   6.261  0.2707 -0.0030  0.2131
   79MOL   C15529951   0.681   7.586   6.355 -0.5686 -0.0788  0.1786
   79MOL   C15629952   0.636   7.478   6.257 -0.0718 -0.1528  0.7025
   79MOL   C15729953   0.706   7.490   6.120 -0.2951 -0.6238  0.4040
   79MOL   C15829954   0.727   7.358   6.044  0.8333  0.0451 -0.1745
   79MOL   C15929955   0.753   7.380   5.890 -0.4843  0.3769  0.4152
   79MOL   C16029956   0.834   7.562   6.163  0.8456  0.1245 -0.1690
   79MOL   H16129957   0.713   0.084   6.206  1.0503  0.1208 -0.5855
   79MOL   H16229958   0.740   7.544   6.437 -0.7075  2.3664  1.6040
   79MOL   H16329959   0.609   7.645   6.412  1.4086  2.8819 -0.2741
   79MOL   H16429960   0.645   7.379   6.301 -1.6282 -1.0113 -0.8691
   79MOL   H16529961   0.529   7.488   6.244 -0.3925 -3.4742  0.3836
   79MOL   H16629962   0.642   7.556   6.064 -2.9806 -1.1463  2.7528
   79MOL   H16729963   0.642   7.295   6.067  0.2439  0.7686 -0.3606
   79MOL   H16829964   0.809   7.305   6.092  0.5810 -0.2577 -0.0792
   79MOL   H16929965   0.664   7.428   5.849  1.0758  2.1303 -0.9988
   79MOL   H17029966   0.834   7.451   5.870 -0.4075  0.2021  0.1044
   79MOL   H17129967   0.870   7.607   6.071  0.4787 -1.2532 -1.0026
   79MOL   H17229968   0.920   7.498   6.188  2.6708  2.8314  0.7012
   79MOL   C17329969   0.785   7.260   5.805 -0.1093  0.0848 -0.4836
   79MOL   C17429970   0.752   7.283   5.660  0.0524  0.5064  0.3178
   79MOL   C17529971   0.883   7.341   5.600  0.1674 -0.0042  0.6503
   79MOL   C17629972   1.001   7.264   5.675  0.3889 -0.1227  0.8259
   79MOL   C17729973   1.126   7.353   5.700 -0.3720  0.4343 -0.1171
   79MOL   C17829974   1.250   7.267   5.742 -0.2350  0.0528  0.0331
   79MOL   C17929975   0.933   7.215   5.803 -0.0122  0.3555  0.1755
   79MOL   H18029976   0.722   7.176   5.833 -0.4207  1.2255  2.4862
   79MOL   H18129977   0.666   7.349   5.644 -0.1188 -0.0048 -0.9224
   79MOL   H18229978   0.739   7.187   5.610  1.4784  1.4498 -1.9735
   79MOL   H18329979   0.889   7.334   5.492 -2.1686  0.2428  0.4626
   79MOL   H18429980   0.893   7.444   5.635  0.7692 -0.0417  0.5947
   79MOL   H18529981   1.035   7.180   5.613  0.6145 -1.8515  3.2140
   79MOL   H18629982   1.105   7.426   5.779  0.2029  0.1822  0.2697
   79MOL   H18729983   1.151   7.411   5.611  0.7180  1.8216  1.0650
   79MOL   H18829984   1.249   7.170   5.693 -1.6793  0.1702 -0.1853
   79MOL   H18929985   1.238   7.234   5.845  1.1817 -1.0021 -0.1216
   79MOL   H19029986   0.986   7.248   5.893  0.1798 -1.3256  0.7073
   79MOL   H19129987   0.940   7.106   5.814  0.5227  0.4170  0.4654
   79MOL   C19229988   1.380   7.355   5.725 -0.7056  0.6644 -0.0454
   79MOL   C19329989   1.512   7.292   5.763  0.3628 -0.2766 -0.0583
   79MOL   C19429990   1.611   7.402   5.797  0.1484 -0.0975  0.1481
   79MOL   C19529991   1.519   7.511   5.856  0.3924 -0.5042  0.1965
   79MOL   C19629992   1.569   0.002   5.819 -0.6074 -0.1113  0.5543
   79MOL   C19729993   1.688   0.049   5.902  0.2024  0.2159 -0.0341
   79MOL   C19829994   1.376   7.477   5.817 -0.4535  0.2067 -0.4301
   79MOL   H19929995   1.377   7.378   5.619 -3.7611  1.0245  0.0780
   79MOL   H20029996   1.495   7.226   5.848 -1.7822  0.5056  0.1377
   79MOL   H20129997   1.545   7.223   5.685 -2.4756 -1.5019 -0.2480
   79MOL   H20229998   1.662   7.427   5.704 -0.6813 -0.9607 -0.5512
   79MOL   H20329999   1.690   7.371   5.865  0.1784 -4.7735 -1.8251
   79MOL   H20430000   1.522   7.515   5.965 -1.6914  0.3608  0.2360
   79MOL   H20530001   1.483   0.062   5.849 -2.1078 -1.2125 -1.4685
   79MOL   H20630002   1.577   0.023   5.713  0.0333 -0.5942  0.5016
   79MOL   H20730003   1.780   7.641   5.882 -0.0635 -0.0788 -0.4663
   79MOL   H20830004   1.672   0.037   6.009 -0.7338  2.4095  0.0918
   79MOL   H20930005   1.330   7.552   5.752  1.2934  0.5034 -1.3506
   79MOL   H21030006   1.322   7.458   5.910  1.2704  2.8015  1.1551
   79MOL   C21130007   1.729   0.187   5.870 -0.2248  0.4586  0.4865
   79MOL   C21230008   1.807   0.203   5.737 -0.2617 -0.4456  0.4008
   79MOL   C21330009   1.943   0.256   5.775 -0.4288  0.3878 -0.2517
   79MOL   C21430010   1.910   0.347   5.888  1.0865 -0.2553 -0.1335
   79MOL   C21530011   2.034   0.405   5.958  0.5054 -0.0482 -0.5387
   79MOL   C21630012   2.004   0.517   6.056 -0.1208 -0.3314  0.3236
   79MOL   C21730013   1.815   0.267   5.973 -0.4898 -0.4958 -0.2462
   79MOL   H21830014   1.643   0.254   5.866  0.9403  1.8746 -3.5020
   79MOL   H21930015   1.807   0.110   5.679 -1.8047 -1.3154  1.7647
   79MOL   H22030016   1.752   0.283   5.687  0.1893  1.3123  2.6331
   79MOL   H22130017   1.988   0.168   5.822  0.4270  0.8064 -0.2842
   79MOL   H22230018   2.011   0.289   5.697 -2.0075 -0.0756 -1.8740
   79MOL   H22330019   1.863   0.435   5.844 -1.8328 -0.9151  1.4843
   79MOL   H22430020   2.113   0.441   5.891 -0.1000  0.6489 -0.8818
   79MOL   H22530021   2.097   0.331   6.007 -3.0235 -1.9451  1.2983
   79MOL   H22630022   1.992   0.610   6.002 -0.1870  1.1439  2.8239
   79MOL   H22730023   1.914   0.494   6.114 -0.4456 -0.3578 -0.1876
   79MOL   H22830024   1.758   0.325   6.045  0.0283  0.5792 -0.6895
   79MOL   H22930025   1.871   0.199   6.038 -0.4278 -0.2631 -0.0557
   79MOL   C23030026   2.112   0.555   6.162  0.4125  0.3526  0.2476
   79MOL   C23130027   2.060   0.648   6.265  0.0210 -0.2391 -0.1104
   79MOL   C23230028   2.188   0.718   6.322  0.2436  0.0804 -0.2528
   79MOL   C23330029   2.300   0.704   6.221  0.0880 -1.1535  0.5049
   79MOL   C23430030   2.433   0.650   6.278  0.3517  0.4342 -0.2728
   79MOL   C23530031   2.522   0.747   6.361  0.2507 -0.3513  0.7211
   79MOL   C23630032   2.239   0.618   6.106  0.3053 -0.3835  0.4874
   79MOL   H23730033   2.148   0.459   6.198 -2.4740 -0.9317 -0.1600
   79MOL   H23830034   1.981   0.716   6.233  0.4487  0.3795  0.1420
   79MOL   H23930035   1.996   0.595   6.336 -0.7333 -1.1101 -1.4198
   79MOL   H24030036   2.201   0.662   6.414  0.1717 -0.9628 -0.8790
   79MOL   H24130037   2.173   0.824   6.346 -3.7466 -0.2671 -0.7952
   79MOL   H24230038   2.323   0.800   6.176  0.3390 -1.0508  0.8520
   79MOL   H24330039   2.494   0.616   6.195  0.0210 -1.8237  0.3794
   79MOL   H24430040   2.405   0.566   6.341 -1.4142  0.5423 -0.8814
   79MOL   H24530041   2.554   0.831   6.299 -1.4498  0.4648  0.9324
   79MOL   H24630042   2.453   0.778   6.439 -1.1895 -0.7046 -0.4029
   79MOL   H24730043   2.313   0.544   6.075  0.8715  0.4739 -0.1958
   79MOL   H24830044   2.214   0.674   6.016  1.9155 -0.4497 -0.0173
   79MOL   C24930045   2.644   0.695   6.431  0.8602 -0.2240 -0.1638
   79MOL   C25030046   2.760   0.656   6.338 -1.0348  0.2694 -0.4742
   79MOL   C25130047   2.880   0.640   6.444  1.4647  0.2597 -0.6267
   79MOL   C25230048   2.852   0.753   6.541 -0.1365 -0.5307  0.3770
   79MOL   C25330049   2.897   0.726   6.688 -0.2530 -0.1643 -0.2530
   79MOL   C25430050   3.052   0.724   6.698 -0.3365 -0.5795  0.0974
   79MOL   C25530051   2.709   0.796   6.524 -0.0101 -0.5444 -0.1704
   79MOL   H25630052   2.617   0.605   6.485 -0.7564 -0.2427 -0.9576
   79MOL   H25730053   2.738   0.565   6.281 -1.7437 -0.8065  1.4769
   79MOL   H25830054   2.771   0.741   6.271 -1.1931 -1.0601 -2.2247
   79MOL   H25930055   2.984   0.652   6.414  2.5595 -0.4890  2.7177
   79MOL   H26030056   2.869   0.547   6.499  1.4453 -0.1802 -1.3602
   79MOL   H26130057   2.926   0.832   6.523 -0.7529 -0.4531 -1.9793
   79MOL   H26230058   2.844   0.643   6.734  0.2664 -0.4750 -0.2141
   79MOL   H26330059   2.860   0.803   6.756  3.2937  1.2317  0.2244
   79MOL   H26430060   3.095   0.819   6.666  2.7491 -1.2374  2.0981
   79MOL   H26530061   3.099   0.646   6.639 -2.8517 -1.8522 -0.3075
   79MOL   H26630062   2.709   0.898   6.486 -2.7004 -0.5939 -0.3969
   79MOL   H26730063   2.658   0.794   6.621  1.5145  0.9655  0.6845
   79MOL   C26830064   3.117   0.710   6.837 -0.1436 -0.4505  0.7402
   79MOL   C26930065   3.084   0.811   6.940  0.3304  0.0853  0.0184
   79MOL   C27030066   3.188   0.792   7.052 -0.1000  0.2009  0.6045
   79MOL   C27130067   3.309   0.726   6.989 -0.4659  0.2694  0.0862
   79MOL   C27230068   3.443   0.792   7.001 -0.4422 -0.3003 -0.3476
   79MOL   C27330069   3.567   0.710   6.961 -0.3478  0.2730 -0.5248
   79MOL   C27430070   3.271   0.714   6.832 -0.3728 -0.6301  0.0585
   79MOL   H27530071   3.083   0.615   6.878  1.6984 -1.7431 -0.6521
   79MOL   H27630072   3.100   0.909   6.897  0.8882 -0.2815 -0.6228
   79MOL   H27730073   2.982   0.802   6.977  0.9609 -2.3234  1.3080
   79MOL   H27830074   3.220   0.889   7.090  1.4836 -0.0757  0.0375
   79MOL   H27930075   3.154   0.739   7.141  0.9711  0.3358  1.1029
   79MOL   H28030076   3.312   0.625   7.030  0.6265 -0.3747 -1.5297
   79MOL   H28130077   3.456   0.822   7.105 -1.6926  0.7034 -0.4792
   79MOL   H28230078   3.453   0.878   6.935  1.4352 -1.1393 -1.1874
   79MOL   H28330079   3.591   0.642   7.043 -1.6530 -0.6731 -0.9083
   79MOL   H28430080   3.531   0.649   6.878 -1.0186  0.4944 -0.4007
   79MOL   H28530081   3.307   0.806   6.786  0.1753  0.1386  2.0016
   79MOL   H28630082   3.303   0.620   6.787  0.0915 -0.1886 -0.5420
   79MOL   C28730083   3.696   0.799   6.933  0.4665  0.0869  0.1188
   79MOL   C28830084   3.761   0.904   7.033  0.5732 -0.0215  0.2753
   79MOL   C28930085   3.906   0.920   6.979 -0.7293 -0.1053  0.1472
   79MOL   C29030086   3.931   0.810   6.872 -0.3424 -0.0408 -0.2683
   79MOL   C29130087   4.072   0.734   6.884  0.6747 -0.3457  0.6314
   79MOL   C29230088   4.189   0.831   6.879  0.1866 -0.2586  0.6358
   79MOL   C29330089   3.814   0.714   6.881 -0.4144  0.7980  0.2530
   79MOL   H29430090   3.667   0.850   6.841 -0.9151  0.3734  0.6955
   79MOL   H29530091   3.713   1.002   7.030 -1.0541 -0.7676  0.9834
   79MOL   H29630092   3.765   0.856   7.131  1.8284  1.2432  0.8637
   79MOL   H29730093   3.985   0.914   7.055 -0.5955  0.7032  0.0783
   79MOL   H29830094   3.915   1.023   6.944  0.1117 -0.2007  0.0784
   79MOL   H29930095   3.931   0.863   6.777  0.4911  2.6338  1.1761
   79MOL   H30030096   4.074   0.657   6.807  0.8458  1.7897 -1.5860
   79MOL   H30130097   4.076   0.687   6.982 -2.6682 -0.2607  0.8736
   79MOL   H30230098   4.176   0.914   6.948 -2.7198  0.1941 -0.4133
   79MOL   H30330099   4.208   0.866   6.778  1.4191 -0.5304  0.7670
   79MOL   H30430100   3.829   0.641   6.961 -0.5628 -0.4799 -0.8614
   79MOL   H30530101   3.798   0.662   6.786  0.6421 -0.2244  0.6214
   79MOL   C30630102   4.322   0.752   6.904 -0.0477 -0.2731  0.5241
   79MOL   C30730103   4.349   0.655   6.792 -0.2405  0.8285  0.3433
   79MOL   C30830104   4.483   0.686   6.732  0.3931  0.0762  0.0257
   79MOL   C30930105   4.558   0.756   6.853  0.5715 -0.2230 -0.8433
   79MOL   C31030106   4.683   0.836   6.814  0.0380  0.9432  0.3713
   79MOL   C31130107   4.769   0.903   6.932 -0.4408  0.3628  1.3848
   79MOL   C31230108   4.446   0.846   6.903 -0.0346 -0.1555 -0.4447
   79MOL   H31330109   4.322   0.697   6.999 -1.2383 -1.6590 -0.2645
   79MOL   H31430110   4.352   0.556   6.838  0.7411  0.9472  0.5569
   79MOL   H31530111   4.277   0.661   6.711 -0.3352  0.0927  0.3733
   79MOL   H31630112   4.548   0.608   6.691 -2.6239 -3.2297  1.2724
   79MOL   H31730113   4.480   0.772   6.665 -2.0074  0.8621  1.0842
   79MOL   H31830114   4.583   0.686   6.932 -1.6085  0.9918  0.9931
   79MOL   H31930115   4.758   0.764   6.781 -0.8389  0.2872 -0.2003
   79MOL   H32030116   4.663   0.911   6.738  0.1320 -0.3532 -0.9660
   79MOL   H32130117   4.762   0.840   7.021  2.8448  1.4783  2.5223
   79MOL   H32230118   4.725   0.998   6.961  0.0226  0.4012  1.9772
   79MOL   H32330119   4.439   0.934   6.839  3.5149  0.0145 -0.6967
   79MOL   H32430120   4.482   0.890   6.996  1.3202  1.2463 -1.6014
   79MOL   C32530121   4.910   0.931   6.880  0.4719 -0.1814  0.3080
   79MOL   C32630122   4.989   0.998   6.978 -0.6363  0.0671 -0.1835
   79MOL   C32730123   5.134   0.987   6.929 -0.1322  0.0261 -0.0320
   79MOL   C32830124   5.137   0.844   6.876 -0.5268  0.4877 -0.6182
   79MOL   C32930125   5.199   0.814   6.741 -0.6731 -0.2667  0.7794
   79MOL   C33030126   5.355   0.803   6.754  0.3742 -0.2762 -0.3500
   79MOL   C33130127   4.987   0.804   6.859  0.6002 -0.0557 -0.2315
   79MOL   H33230128   4.907   0.992   6.789  1.1489 -2.1011 -1.0455
   79MOL   H33330129   5.002   0.959   7.079  2.4855  1.0912 -0.1198
   79MOL   H33430130   4.968   1.104   6.992  2.3709  0.8995 -1.5033
   79MOL   H33530131   5.147   1.059   6.848  0.4379 -1.0012 -0.8722
   79MOL   H33630132   5.211   1.013   7.002  0.2173 -1.6613  0.2241
   79MOL   H33730133   5.191   0.787   6.951 -1.3896  1.2882  0.6335
   79MOL   H33830134   5.162   0.718   6.705  1.5153 -1.2228  0.9852
   79MOL   H33930135   5.159   0.889   6.672 -0.0202 -1.0940 -0.5269
   79MOL   H34030136   5.391   0.896   6.797  1.2604  1.5301 -4.7375
   79MOL   H34130137   5.378   0.727   6.829 -1.3551  0.8738  1.4089
   79MOL   H34230138   4.968   0.717   6.921 -1.5771 -0.7648 -1.8458
   79MOL   H34330139   4.967   0.787   6.753 -0.9064  6.1762 -1.1664
   79MOL   C34430140   5.408   0.760   6.617 -0.1558  0.3053  0.3812
   79MOL   C34530141   5.369   0.620   6.577 -0.1398 -0.4758  0.0384
   79MOL   C34630142   5.478   0.583   6.473  0.3298 -0.5571  0.2511
   79MOL   C34730143   5.606   0.669   6.510 -0.2669  0.1226 -0.2053
   79MOL   C34830144   5.678   0.741   6.389  0.0573  0.3087  0.2146
   79MOL   C34930145   5.750   0.652   6.289 -0.5982  0.0789 -0.8679
   79MOL   C35030146   5.561   0.774   6.602 -0.8928  0.0347 -0.5469
   79MOL   H35130147   5.374   0.837   6.548 -2.9278  0.3957  1.7878
   79MOL   H35230148   5.271   0.616   6.527  0.0199  0.4585 -0.3694
   79MOL   H35330149   5.371   0.566   6.672 -0.3049 -3.3285 -1.5238
   79MOL   H35430150   5.515   0.480   6.477  2.6959  0.2706  0.9269
   79MOL   H35530151   5.444   0.616   6.375  2.2414  1.5492  0.2487
   79MOL   H35630152   5.684   0.609   6.556  0.5659  1.1838 -0.2312
   79MOL   H35730153   5.606   0.800   6.332  1.1980  1.6988  0.1600
   79MOL   H35830154   5.744   0.821   6.426 -0.2361  0.9639 -0.6765
   79MOL   H35930155   5.683   0.572   6.258 -2.4857  1.1076  0.4475
   79MOL   H36030156   5.827   0.604   6.350 -0.0731 -1.3740 -2.6357
   79MOL   H36130157   5.597   0.765   6.704 -1.3574 -0.8431 -0.4543
   79MOL   H36230158   5.585   0.873   6.564 -2.1597  1.0231  1.1754
   79MOL   C36330159   5.818   0.712   6.161 -0.4670 -0.0169 -0.1672
   79MOL   C36430160   5.723   0.740   6.051  0.2984 -0.0244 -0.1941
   79MOL   C36530161   5.801   0.717   5.917 -0.1723 -0.1264 -0.0535
   79MOL   C36630162   5.945   0.691   5.957  0.0576 -0.1004  0.1631
   79MOL   C36730163   6.022   0.599   5.860  0.7854  0.1745  0.0979
   79MOL   C36830164   6.166   0.582   5.895 -0.1359  0.3013  0.6367
   79MOL   C36930165   5.928   0.639   6.100  0.0615  0.3982  0.1944
   79MOL   H37030166   5.869   0.803   6.191  0.3066 -0.7409  0.7521
   79MOL   H37130167   5.634   0.677   6.047  0.6681 -0.5139 -0.7949
   79MOL   H37230168   5.691   0.843   6.066 -2.3941 -0.7350 -0.7185
   79MOL   H37330169   5.769   0.627   5.866  0.8072 -0.3439 -0.2902
   79MOL   H37430170   5.806   0.801   5.847  1.2035  0.6393  0.9188
   79MOL   H37530171   6.004   0.781   5.975 -0.5380  0.1419  0.9235
   79MOL   H37630172   5.978   0.500   5.870  0.4307  0.0483 -2.4567
   79MOL   H37730173   6.024   0.638   5.758 -2.1962  0.1417 -0.0211
   79MOL   H37830174   6.215   0.499   5.844  3.8926  1.0731  3.0083
   79MOL   H37930175   6.186   0.556   5.999  2.0794 -0.0877  0.1428
   79MOL   H38030176   5.893   0.537   6.094  0.7633  0.1873 -0.3722
   79MOL   H38130177   6.021   0.637   6.158  0.5462  1.8620 -0.5081
   79MOL   H38230178   6.228   0.670   5.874  0.5410 -0.6453 -1.5472
   80MOL     C130179   1.659   5.241   5.254  0.3805  0.5099  0.3937
   80MOL     C230180   1.803   5.242   5.197  0.7269 -0.4028 -0.4070
   80MOL     C330181   1.860   5.098   5.213  0.0313 -0.1168  0.0053
   80MOL     C430182   1.729   5.015   5.211 -0.8410  0.6844 -0.6207
   80MOL     C530183   1.740   4.880   5.278  0.8419  0.0109  0.0074
   80MOL     C630184   1.605   4.810   5.287  0.3562  0.5489  0.7657
   80MOL     C730185   1.627   5.099   5.290 -0.3329 -0.4341  0.1680
   80MOL     H830186   1.654   5.306   5.341 -0.7518  0.4805  0.3628
   80MOL     H930187   1.858   5.322   5.245 -1.9697  0.5023  1.2523
   80MOL    H1030188   1.803   5.275   5.093 -0.6047  1.3167  0.1193
   80MOL    H1130189   1.936   5.074   5.138 -1.2298 -1.0953 -0.9903
   80MOL    H1230190   1.919   5.096   5.305 -0.6014 -0.3313  0.4035
   80MOL    H1330191   1.692   5.009   5.109 -1.2012  0.8905 -0.5000
   80MOL    H1430192   1.818   4.823   5.228  1.1834  0.5955 -0.1180
   80MOL    H1530193   1.773   4.888   5.382  1.3990 -1.2999 -0.0582
   80MOL    H1630194   1.546   4.852   5.369 -0.6645  2.5122 -0.9328
   80MOL    H1730195   1.556   4.831   5.192 -0.8475  3.4266  1.9761
   80MOL    H1830196   1.525   5.080   5.258  0.0616 -2.6541  0.1089
   80MOL    H1930197   1.620   5.084   5.398 -0.7844 -0.5120  0.1264
   80MOL    H2030198   1.587   5.270   5.177  0.5532 -2.1720 -0.8407
   80MOL    C2130199   1.601   4.661   5.321  0.4871  0.1265  0.2008
   80MOL    C2230200   1.461   4.607   5.352  0.4793  0.4900  0.6510
   80MOL    C2330201   1.464   4.454   5.326 -0.2695  0.3123 -0.5353
   80MOL    C2430202   1.577   4.435   5.224 -0.2498  0.7115  0.2975
   80MOL    C2530203   1.519   4.376   5.092 -0.3743 -0.2668  0.1583
   80MOL    C2630204   1.405   4.457   5.019 -0.0752  0.1401 -0.2569
   80MOL    C2730205   1.651   4.568   5.211 -0.0873  0.4372  0.0456
   80MOL    H2830206   1.662   4.642   5.410  1.3995  1.3892 -0.1338
   80MOL    H2930207   1.423   4.637   5.449 -0.1357  0.6315  0.3702
   80MOL    H3030208   1.407   4.648   5.266 -0.7858  0.1682  1.2888
   80MOL    H3130209   1.505   4.406   5.415  1.0410  0.2387 -1.1589
   80MOL    H3230210   1.368   4.409   5.304 -1.3483  2.8050 -1.0753
   80MOL    H3330211   1.650   4.367   5.268 -0.3815  0.3333 -0.0722
   80MOL    H3430212   1.503   4.272   5.120  0.8211 -0.8963 -1.3730
   80MOL    H3530213   1.603   4.378   5.022 -0.1974  0.1099  0.3819
   80MOL    H3630214   1.448   4.550   4.982  1.8724 -1.0761 -1.1450
   80MOL    H3730215   1.329   4.487   5.092 -2.7490  1.0017 -3.2804
   80MOL    H3830216   1.757   4.552   5.229 -0.3544 -1.1201  0.3112
   80MOL    H3930217   1.638   4.615   5.113 -1.7208 -0.2022 -0.0582
   80MOL    C4030218   1.336   4.384   4.905  1.1700  0.1732  0.6730
   80MOL    C4130219   1.210   4.456   4.859 -0.1929  0.0373 -0.4057
   80MOL    C4230220   1.192   4.426   4.709 -0.1233  0.0920 -0.2159
   80MOL    C4330221   1.333   4.433   4.659  0.1792 -0.3800 -0.0871
   80MOL    C4430222   1.348   4.368   4.523 -0.6138 -1.5005  0.1135
   80MOL    C4530223   1.505   4.358   4.489 -0.0545 -0.5893  0.0460
   80MOL    C4630224   1.421   4.372   4.773 -0.2995 -0.1469 -0.4127
   80MOL    H4730225   1.302   4.283   4.928  0.0360 -0.4724 -3.4179
   80MOL    H4830226   1.226   4.563   4.871 -3.8553  0.7018 -0.8191
   80MOL    H4930227   1.126   4.433   4.924 -1.3745  0.2208 -1.8375
   80MOL    H5030228   1.145   4.329   4.694  1.4444 -0.8164  0.6519
   80MOL    H5130229   1.118   4.498   4.673 -1.3455 -1.7374 -1.5026
   80MOL    H5230230   1.364   4.536   4.647  2.3051 -0.9771 -0.0758
   80MOL    H5330231   1.292   4.274   4.514 -1.7043 -0.8656  0.1389
   80MOL    H5430232   1.297   4.426   4.447 -0.1827 -1.5041 -0.1736
   80MOL    H5530233   1.571   4.324   4.569  1.2307  2.1442  0.2130
   80MOL    H5630234   1.535   4.462   4.476 -0.6947 -0.0799  2.3549
   80MOL    H5730235   1.453   4.271   4.748 -2.0626 -0.5636 -1.0548
   80MOL    H5830236   1.512   4.432   4.779 -0.0722 -0.6278  1.4582
   80MOL    C5930237   1.541   4.300   4.351  0.5352 -0.0890 -0.1550
   80MOL    C6030238   1.689   4.338   4.321 -0.5826  0.0372  0.3918
   80MOL    C6130239   1.744   4.224   4.243 -0.0127 -0.1913  0.3828
   80MOL    C6230240   1.687   4.110   4.317 -0.3030 -0.1392  0.7219
   80MOL    C6330241   1.714   3.974   4.260 -0.1887  0.2093 -0.6361
   80MOL    C6430242   1.684   3.861   4.362 -0.0672  0.7653 -0.6304
   80MOL    C6530243   1.542   4.152   4.339 -0.9370 -0.5446  0.1688
   80MOL    H6630244   1.481   4.345   4.272  1.1358  1.5217  0.2888
   80MOL    H6730245   1.692   4.422   4.251 -2.5386 -1.2794 -1.3368
   80MOL    H6830246   1.747   4.349   4.412  2.4101 -0.3512 -1.4171
   80MOL    H6930247   1.709   4.230   4.140 -1.4464  1.5064  0.9274
   80MOL    H7030248   1.853   4.223   4.247 -0.0117 -0.4861  0.2347
   80MOL    H7130249   1.734   4.114   4.416  0.8582  0.7829  0.1417
   80MOL    H7230250   1.818   3.961   4.229  0.4154  0.3228  1.2937
   80MOL    H7330251   1.654   3.974   4.169 -0.8168  1.3136 -0.2316
   80MOL    H7430252   1.749   3.873   4.449 -0.2355 -0.9303 -0.2536
   80MOL    H7530253   1.586   3.867   4.409 -1.2922  1.8205 -3.2410
   80MOL    H7630254   1.489   4.127   4.247 -0.2273 -0.6782 -0.2051
   80MOL    H7730255   1.496   4.103   4.426 -0.3527  0.1507  0.8803
   80MOL    C7830256   1.698   3.726   4.290  0.5362  0.0755  0.3951
   80MOL    C7930257   1.693   3.602   4.379  0.1077  0.0049 -0.0860
   80MOL    C8030258   1.596   3.507   4.306  0.0875 -0.1224 -0.5930
   80MOL    C8130259   1.571   3.566   4.165 -0.2027 -0.0764 -0.5294
   80MOL    C8230260   1.438   3.524   4.099  0.0288  0.6355 -0.7102
   80MOL    C8330261   1.443   3.531   3.953  0.0673  0.2695 -0.0820
   80MOL    C8430262   1.590   3.714   4.181  0.4069 -0.2214  0.4189
   80MOL    H8530263   1.798   3.726   4.246  0.8899  0.0188  1.1891
   80MOL    H8630264   1.790   3.557   4.400 -0.3097 -0.3835  1.0492
   80MOL    H8730265   1.646   3.614   4.477  1.3763  0.6106  0.4650
   80MOL    H8830266   1.620   3.400   4.314 -0.8047 -0.3332 -0.7155
   80MOL    H8930267   1.492   3.505   4.339 -0.6249 -0.8679 -2.7744
   80MOL    H9030268   1.652   3.527   4.105  0.2232  0.9841 -0.6613
   80MOL    H9130269   1.366   3.584   4.155 -0.3633 -2.0836  1.8077
   80MOL    H9230270   1.423   3.425   4.140 -1.1535  1.2859  0.4608
   80MOL    H9330271   1.471   3.440   3.900  1.0656  1.1902 -1.1515
   80MOL    H9430272   1.506   3.610   3.915  2.1825 -1.5588 -0.4816
   80MOL    H9530273   1.497   3.755   4.218  0.6221 -0.4498  1.2280
   80MOL    H9630274   1.607   3.770   4.089 -0.1483  0.5593  0.7903
   80MOL    C9730275   1.304   3.547   3.890  0.1049  0.0669  0.3302
   80MOL    C9830276   1.307   3.530   3.741 -0.7245  1.1319 -0.1559
   80MOL    C9930277   1.183   3.596   3.704  0.7978 -0.4363 -0.4724
   80MOL   C10030278   1.157   3.721   3.795 -0.2735  0.6332  0.0690
   80MOL   C10130279   1.195   3.862   3.735 -0.6168  0.1057 -0.1178
   80MOL   C10230280   1.342   3.880   3.681  0.0781 -0.2171  0.3575
   80MOL   C10330281   1.242   3.683   3.918 -0.4681 -0.6904  0.6530
   80MOL   H10430282   1.229   3.477   3.927  0.8624 -2.0268 -1.9222
   80MOL   H10530283   1.394   3.574   3.694 -0.6977  1.3494  0.0974
   80MOL   H10630284   1.298   3.429   3.701 -1.4335  2.0424 -2.3702
   80MOL   H10730285   1.184   3.624   3.599 -2.9021 -0.6217 -0.6161
   80MOL   H10830286   1.106   3.521   3.723 -0.1438  0.5359 -0.4438
   80MOL   H10930287   1.054   3.717   3.829 -0.9881 -1.2437 -2.2018
   80MOL   H11030288   1.124   3.897   3.661  0.1947 -1.9732 -1.9235
   80MOL   H11130289   1.191   3.919   3.828 -1.0977 -6.3492  4.2114
   80MOL   H11230290   1.408   3.857   3.764  0.7436  2.7089  0.7073
   80MOL   H11330291   1.362   3.809   3.601 -0.6581  0.3315 -0.3176
   80MOL   H11430292   1.326   3.752   3.931 -0.8372 -0.5492  2.3844
   80MOL   H11530293   1.189   3.680   4.013 -2.6254 -0.5666 -0.5078
   80MOL   C11630294   1.361   4.027   3.641  0.5890  0.0940 -0.3921
   80MOL   C11730295   1.506   4.057   3.629  0.2163 -0.6395 -0.5021
   80MOL   C11830296   1.527   4.187   3.549  0.4953 -0.2862 -0.1131
   80MOL   C11930297   1.383   4.224   3.500 -0.1639 -0.2168  0.1144
   80MOL   C12030298   1.360   4.296   3.363 -0.9211 -0.2724  0.0440
   80MOL   C12130299   1.437   4.431   3.356  0.0018  0.3062  0.4347
   80MOL   C12230300   1.310   4.081   3.514  0.2677  0.0117 -0.1585
   80MOL   H12330301   1.327   4.086   3.726 -0.0222 -1.2161  0.2855
   80MOL   H12430302   1.552   3.963   3.598 -0.3817 -0.4828 -1.8933
   80MOL   H12530303   1.546   4.068   3.730 -1.7957  1.4778  0.1071
   80MOL   H12630304   1.589   4.154   3.466  1.0055 -0.4461  0.3287
   80MOL   H12730305   1.572   4.265   3.611 -0.2198 -1.2283  1.6513
   80MOL   H12830306   1.340   4.290   3.576  1.7802 -0.3002  1.3226
   80MOL   H12930307   1.256   4.298   3.331 -1.2522  0.7922  1.1313
   80MOL   H13030308   1.409   4.228   3.293  1.1987  0.4073  0.8234
   80MOL   H13130309   1.415   4.489   3.266  4.5209 -0.3312 -1.1999
   80MOL   H13230310   1.541   4.403   3.342 -0.1840  0.3907 -1.2464
   80MOL   H13330311   1.202   4.094   3.510  0.0381 -1.5380  0.4053
   80MOL   H13430312   1.337   4.012   3.433 -1.5702 -0.2741 -0.5466
   80MOL   C13530313   1.410   4.535   3.473  0.7146 -0.1699  0.7219
   80MOL   C13630314   1.518   4.640   3.476  0.5386 -0.1839 -0.9304
   80MOL   C13730315   1.450   4.765   3.538  0.3765  0.6599  0.6188
   80MOL   C13830316   1.292   4.749   3.516 -0.0269 -0.3033 -0.1227
   80MOL   C13930317   1.186   4.773   3.624  0.1271 -0.5147  0.3374
   80MOL   C14030318   1.039   4.824   3.573 -0.1603  0.0707 -0.0991
   80MOL   C14130319   1.280   4.615   3.449 -0.9086 -0.4639 -0.4832
   80MOL   H14230320   1.413   4.487   3.570 -0.2882 -0.9490  0.3789
   80MOL   H14330321   1.604   4.619   3.539 -0.5173  2.0990  1.3681
   80MOL   H14430322   1.543   4.652   3.371 -1.9029  0.5919 -1.4650
   80MOL   H14530323   1.455   4.771   3.646  1.3459 -0.9777  0.6775
   80MOL   H14630324   1.482   4.864   3.503 -0.6243  0.9934  0.6400
   80MOL   H14730325   1.267   4.817   3.435 -0.8107  0.6300  0.8855
   80MOL   H14830326   1.229   4.846   3.692 -0.9619 -1.3390  1.9465
   80MOL   H14930327   1.175   4.684   3.687  0.8650  0.3894  1.7623
   80MOL   H15030328   1.036   4.922   3.527  0.2013 -0.9754 -2.3950
   80MOL   H15130329   1.002   4.752   3.500  0.5692  0.5407 -0.9372
   80MOL   H15230330   1.276   4.625   3.340 -1.2060 -1.1965 -0.5460
   80MOL   H15330331   1.186   4.567   3.477 -0.3091 -1.2641  0.1567
   80MOL   C15430332   0.929   4.825   3.683  0.1669 -0.2345 -0.6744
   80MOL   C15530333   0.896   4.686   3.743 -0.6229 -0.3285  0.1161
   80MOL   C15630334   0.747   4.691   3.778 -0.2195 -0.0793 -0.5387
   80MOL   C15730335   0.700   4.837   3.751 -0.5813 -0.2678 -0.2278
   80MOL   C15830336   0.547   4.832   3.739  0.2598 -0.0746  0.6399
   80MOL   C15930337   0.475   4.971   3.708  0.8737  0.1445 -0.8137
   80MOL   C16030338   0.794   4.888   3.646  0.6626  0.0708  0.8374
   80MOL   H16130339   0.983   4.883   3.758  0.8328 -2.8132  0.9114
   80MOL   H16230340   0.909   4.608   3.668  0.6866  0.8333 -0.8929
   80MOL   H16330341   0.966   4.665   3.824  1.0536  1.7323 -0.7712
   80MOL   H16430342   0.686   4.628   3.713  0.1972 -2.0406  0.9023
   80MOL   H16530343   0.734   4.678   3.886 -0.3826 -2.0718 -0.7738
   80MOL   H16630344   0.728   4.894   3.839 -0.0752  0.6224 -0.9528
   80MOL   H16730345   0.507   4.785   3.829 -0.7743 -1.4651 -0.5123
   80MOL   H16830346   0.531   4.768   3.652  0.2105 -3.9832  3.4075
   80MOL   H16930347   0.469   5.041   3.792  0.9670 -1.0559  0.2095
   80MOL   H17030348   0.536   5.026   3.636  0.1044  0.4487 -1.2357
   80MOL   H17130349   0.806   4.997   3.641  1.0621  0.0473  1.2460
   80MOL   H17230350   0.765   4.851   3.547  1.5080 -1.7402  1.2504
   80MOL   C17330351   0.328   4.960   3.644  0.3519  0.0037  0.3331
   80MOL   C17430352   0.237   4.880   3.749  0.2000  0.5551  0.5101
   80MOL   C17530353   0.095   4.917   3.714 -0.1023  0.0974  0.5678
   80MOL   C17630354   0.113   5.025   3.603 -0.2289 -0.3729 -0.2928
   80MOL   C17730355   7.639   5.120   3.620  0.6067 -0.0755  0.4175
   80MOL   C17830356   7.646   5.239   3.521 -0.5164  0.5203 -0.0119
   80MOL   C17930357   0.256   5.087   3.624  0.6688  0.0184  0.0651
   80MOL   H18030358   0.334   4.904   3.551  0.5049 -2.2199  1.6399
   80MOL   H18130359   0.258   4.916   3.850  4.6435  1.8981 -0.7551
   80MOL   H18230360   0.259   4.774   3.738 -1.2307  0.2775  0.3522
   80MOL   H18330361   0.036   4.831   3.682 -0.3378 -0.3564  2.1746
   80MOL   H18430362   0.041   4.951   3.802 -0.0976 -3.4361  2.0241
   80MOL   H18530363   0.108   4.975   3.506 -0.3727 -1.0311  0.0477
   80MOL   H18630364   7.640   5.164   3.720 -0.7269 -0.3778  0.5646
   80MOL   H18730365   7.542   5.072   3.611  0.5727 -0.4191  2.3391
   80MOL   H18830366   0.099   5.266   3.488  0.0095 -1.7360 -0.2866
   80MOL   H18930367   7.589   5.316   3.574  0.5101  1.0087  0.3981
   80MOL   H19030368   0.260   5.138   3.720 -2.6937 -0.9598  0.8127
   80MOL   H19130369   0.306   5.142   3.545  0.7031 -1.3537 -0.8885
   80MOL   C19230370   7.573   5.212   3.390 -0.0570  0.5058 -0.3733
   80MOL   C19330371   7.597   5.329   3.298 -0.1758 -0.6801 -0.5553
   80MOL   C19430372   7.478   5.346   3.212  0.4654 -0.0029  0.7461
   80MOL   C19530373   7.356   5.303   3.304 -0.6749  0.7031  1.0869
   80MOL   C19630374   7.233   5.252   3.227  0.4888  0.6297  0.2262
   80MOL   C19730375   7.168   5.350   3.122  0.6642  0.1606  0.5974
   80MOL   C19830376   7.418   5.196   3.396  0.2419 -0.2367  0.0349
   80MOL   H19930377   7.613   5.119   3.349 -2.0885 -0.2512 -0.7310
   80MOL   H20030378   7.611   5.420   3.356  1.6047 -0.1081 -1.8263
   80MOL   H20130379   0.041   5.315   3.239  1.0149  1.0009  0.8225
   80MOL   H20230380   7.480   5.276   3.128  1.0329 -0.5696  1.2269
   80MOL   H20330381   7.455   5.441   3.165  1.8297  0.1380  0.3493
   80MOL   H20430382   7.327   5.390   3.363  0.8328  1.9991 -0.0294
   80MOL   H20530383   7.161   5.238   3.308 -0.7415  1.8412 -0.6488
   80MOL   H20630384   7.259   5.154   3.187  0.5052  1.2730 -1.3478
   80MOL   H20730385   7.232   5.352   3.034  0.6241 -1.3282  0.5104
   80MOL   H20830386   7.151   5.447   3.169 -1.3685  0.5230 -0.7944
   80MOL   H20930387   7.398   5.096   3.357 -2.4206  0.7145 -1.1587
   80MOL   H21030388   7.387   5.205   3.500 -0.7425  2.4120 -0.4671
   80MOL   C21130389   7.035   5.296   3.083 -0.1677 -0.4047 -0.8897
   80MOL   C21230390   7.044   5.174   2.990  0.1427  0.1674  0.6059
   80MOL   C21330391   7.014   5.222   2.849 -0.2608  1.2575  0.0544
   80MOL   C21430392   6.904   5.327   2.873  0.5375  0.7248  0.1006
   80MOL   C21530393   6.872   5.401   2.744 -0.0507 -0.1168 -0.0543
   80MOL   C21630394   6.798   5.537   2.772 -0.4688  0.2547  0.0451
   80MOL   C21730395   6.946   5.397   3.000  0.4805  0.1242 -0.2884
   80MOL   H21830396   6.973   5.252   3.162 -0.4357  0.3126 -0.6996
   80MOL   H21930397   7.136   5.116   2.985  0.0138 -0.2012  2.2423
   80MOL   H22030398   6.965   5.106   3.024  0.4658  0.7556  2.5795
   80MOL   H22130399   7.101   5.278   2.812  0.3209  1.6674  1.9721
   80MOL   H22230400   6.980   5.142   2.784  1.3572 -0.3357  1.1262
   80MOL   H22330401   6.815   5.270   2.898  0.9682  0.8054  1.9200
   80MOL   H22430402   6.798   5.343   2.688  0.4663  0.8141 -1.7375
   80MOL   H22530403   6.964   5.422   2.690  0.4412 -1.1522  0.3602
   80MOL   H22630404   6.706   5.519   2.828 -0.2080  1.6555  0.9484
   80MOL   H22730405   6.858   5.591   2.845  1.0823  0.2020 -1.1645
   80MOL   H22830406   6.858   5.437   3.051  1.2247  0.0607  1.0726
   80MOL   H22930407   6.999   5.491   2.981 -0.3702  0.2759 -2.0497
   80MOL   C23030408   6.772   5.631   2.650 -0.2099  0.2973 -0.1155
   80MOL   C23130409   6.906   5.688   2.596 -0.0674 -0.5335  0.2363
   80MOL   C23230410   6.895   5.836   2.599 -0.2575 -0.1623  0.3464
   80MOL   C23330411   6.799   5.872   2.709  1.2470 -0.3888 -0.7868
   80MOL   C23430412   6.737   6.013   2.693 -0.2268 -0.0406  0.4008
   80MOL   C23530413   6.669   6.063   2.817 -0.1192  0.3473 -0.2281
   80MOL   C23630414   6.693   5.760   2.689  0.0196  0.4319  0.6060
   80MOL   H23730415   6.730   5.579   2.564  1.1196  1.3212 -1.4126
   80MOL   H23830416   6.992   5.667   2.660  1.1473  2.9825 -0.1128
   80MOL   H23930417   6.935   5.650   2.499  1.7638  0.2074  0.4734
   80MOL   H24030418   6.845   5.869   2.508  0.1505 -0.8541 -0.1317
   80MOL   H24130419   6.989   5.892   2.601 -0.3575 -0.0180  2.5897
   80MOL   H24230420   6.855   5.868   2.802  0.6493 -1.3058 -0.4561
   80MOL   H24330421   6.674   6.018   2.604  0.9913  1.4100 -0.4121
   80MOL   H24430422   6.815   6.087   2.676 -0.6054  0.1422 -0.5743
   80MOL   H24530423   6.646   6.169   2.800  0.8564  0.2611 -2.1575
   80MOL   H24630424   6.578   6.003   2.827 -0.0445  0.4641  1.3096
   80MOL   H24730425   6.631   5.782   2.602  0.8300 -0.6971 -0.2907
   80MOL   H24830426   6.616   5.740   2.763  0.3674 -3.5046  0.0323
   80MOL   C24930427   6.748   6.054   2.952 -0.2520  0.4882  0.2367
   80MOL   C25030428   6.893   6.108   2.953 -0.2797  0.0764  0.3542
   80MOL   C25130429   6.931   6.130   3.102  0.2102  0.2926  0.6848
   80MOL   C25230430   6.795   6.166   3.174  0.1401  0.0341  0.4417
   80MOL   C25330431   6.770   6.088   3.301 -0.1960 -0.1230 -0.2680
   80MOL   C25430432   6.653   6.138   3.395 -0.4310 -0.3929 -0.3811
   80MOL   C25530433   6.687   6.135   3.071  0.7231 -0.0905 -0.1878
   80MOL   H25630434   6.738   5.948   2.974 -2.0771  0.2257 -1.6983
   80MOL   H25730435   6.960   6.043   2.898 -0.2904  0.3078  0.0649
   80MOL   H25830436   6.901   6.201   2.898 -1.4617  0.1221  0.2518
   80MOL   H25930437   7.009   6.204   3.118 -1.3110  1.5909  2.1772
   80MOL   H26030438   6.965   6.032   3.136 -3.7889 -1.2440  0.5727
   80MOL   H26130439   6.799   6.274   3.186  0.9491 -0.0234  0.6850
   80MOL   H26230440   6.865   6.078   3.353 -0.9001 -0.7926  0.9169
   80MOL   H26330441   6.739   5.987   3.272 -2.1922 -0.3429  2.4295
   80MOL   H26430442   6.570   6.177   3.337 -0.6360  0.2112  0.3197
   80MOL   H26530443   6.696   6.225   3.444 -3.2970  1.1554 -0.5296
   80MOL   H26630444   6.646   6.226   3.026 -1.2837 -0.7138  0.3332
   80MOL   H26730445   6.606   6.077   3.115  0.0296  1.2225  0.2982
   80MOL   C26830446   6.604   6.042   3.506 -0.2804 -0.4386  0.2737
   80MOL   C26930447   6.492   6.095   3.602  0.3952 -0.2202 -0.7027
   80MOL   C27030448   6.503   6.008   3.724 -0.2383 -0.1585  0.0347
   80MOL   C27130449   6.646   5.947   3.729 -0.3740 -0.0379  0.3183
   80MOL   C27230450   6.715   5.972   3.864 -0.6274  0.7273  0.0333
   80MOL   C27330451   6.855   5.902   3.869 -0.7889 -0.4474  0.5477
   80MOL   C27430452   6.713   6.004   3.602  0.3020 -0.0892  0.6930
   80MOL   H27530453   6.572   5.952   3.453  0.6482 -0.6094 -0.0118
   80MOL   H27630454   6.522   6.197   3.626 -0.0874 -0.7183  2.1035
   80MOL   H27730455   6.390   6.098   3.561  0.0903  0.0032  0.0639
   80MOL   H27830456   6.477   6.074   3.806 -0.1021  1.4469 -1.2034
   80MOL   H27930457   6.429   5.928   3.722 -0.5678  0.1745 -1.6882
   80MOL   H28030458   6.645   5.838   3.721  1.8654  0.0188 -1.3354
   80MOL   H28130459   6.655   5.928   3.944  0.5711  1.0176  1.1079
   80MOL   H28230460   6.732   6.075   3.896  1.3726  1.1014 -2.0600
   80MOL   H28330461   6.855   5.801   3.826 -1.5636 -0.7203  1.1973
   80MOL   H28430462   6.919   5.959   3.801  0.0669  0.2142  1.8825
   80MOL   H28530463   6.774   6.090   3.629  0.2032  0.7214 -1.5546
   80MOL   H28630464   6.784   5.929   3.568  0.6265  0.5084  0.0458
   80MOL   C28730465   6.932   5.903   4.001 -0.2502 -0.1864 -0.2958
   80MOL   C28830466   6.851   5.818   4.105 -0.0815 -0.3259  0.2641
   80MOL   C28930467   6.953   5.768   4.208  0.2972 -0.0056 -0.0745
   80MOL   C29030468   7.086   5.814   4.147 -0.2990 -0.2696 -0.1605
   80MOL   C29130469   7.192   5.713   4.184 -0.3753  0.2187  0.0995
   80MOL   C29230470   7.225   5.743   4.331  0.0157  0.2382  0.7115
   80MOL   C29330471   7.066   5.837   3.998 -0.2310  0.5294  0.4840
   80MOL   H29430472   6.936   6.003   4.045 -1.5134 -0.4748  0.4976
   80MOL   H29530473   6.767   5.868   4.153  1.2776  2.6959 -0.3427
   80MOL   H29630474   6.801   5.735   4.055 -3.3914  0.1763  2.6474
   80MOL   H29730475   6.945   5.660   4.223 -0.1179 -0.1312 -1.1430
   80MOL   H29830476   6.946   5.821   4.303  5.6918 -0.0211  0.4421
   80MOL   H29930477   7.103   5.913   4.189 -1.7383 -0.6356  1.3670
   80MOL   H30030478   7.282   5.730   4.125  0.7460  0.7247  1.9197
   80MOL   H30130479   7.170   5.607   4.165  3.4166 -0.3260 -1.7564
   80MOL   H30230480   7.134   5.731   4.390 -0.4435  0.5914  0.0823
   80MOL   H30330481   7.254   5.847   4.342  0.0637  0.1291  1.5902
   80MOL   H30430482   7.062   5.743   3.944 -1.7921 -0.8336  2.9007
   80MOL   H30530483   7.149   5.902   3.969  1.5922 -2.3136 -0.9521
   80MOL   C30630484   7.328   5.644   4.383  0.3308 -0.1554 -0.8284
   80MOL   C30730485   7.457   5.639   4.301 -0.1971 -0.1545 -0.4629
   80MOL   C30830486   7.572   5.608   4.394  0.3651  0.7936 -0.0501
   80MOL   C30930487   7.506   5.593   4.534  0.0886 -0.2111 -0.1961
   80MOL   C31030488   7.589   5.653   4.652  0.1653 -0.5244  0.3855
   80MOL   C31130489   0.029   5.770   4.628 -0.2240 -0.2378  0.3191
   80MOL   C31230490   7.373   5.678   4.520  0.2999 -0.6271 -0.2597
   80MOL   H31330491   7.283   5.544   4.389 -0.8545  0.4403  0.4313
   80MOL   H31430492   7.446   5.582   4.209 -2.7392  1.2054 -1.0355
   80MOL   H31530493   7.479   5.742   4.276  0.2409 -0.1823 -0.2131
   80MOL   H31630494   7.609   5.510   4.364 -2.5831 -0.5538  0.4580
   80MOL   H31730495   0.006   5.681   4.387  1.9642 -0.9709 -0.3636
   80MOL   H31830496   7.483   5.489   4.559  1.0020 -0.6344 -1.1004
   80MOL   H31930497   7.519   5.683   4.730 -1.8654  0.2651 -1.6658
   80MOL   H32030498   7.643   5.566   4.690 -0.1078 -0.9430 -0.1702
   80MOL   H32130499   7.622   5.837   4.561  1.9347  1.2003 -0.0110
   80MOL   H32230500   0.110   5.731   4.568  0.7587 -0.6089  1.8607
   80MOL   H32330501   7.384   5.785   4.536  1.7445 -0.9626  1.1527
   80MOL   H32430502   7.305   5.642   4.597 -1.2180 -0.8472 -1.6662
   80MOL   C32530503   0.081   5.847   4.756  0.6101  0.3153 -0.2439
   80MOL   C32630504   0.197   5.937   4.728 -0.1891 -0.0018  0.2828
   80MOL   C32730505   0.204   6.038   4.845  0.1531 -0.3134 -0.0788
   80MOL   C32830506   0.056   6.071   4.877  0.6483  0.0336 -1.0862
   80MOL   C32930507   0.027   6.093   5.028 -0.7927 -0.6145  0.2547
   80MOL   C33030508   7.539   6.160   5.066  0.1195  0.2769  0.0005
   80MOL   C33130509   7.625   5.948   4.818 -0.2952  0.1755  0.3887
   80MOL   H33230510   0.108   5.769   4.827  0.9815  1.1021  0.4891
   80MOL   H33330511   0.178   6.003   4.643 -2.1185 -0.1339  0.5751
   80MOL   H33430512   0.283   5.870   4.719 -0.4056 -0.4651  1.4626
   80MOL   H33530513   0.241   5.995   4.938 -0.6616  0.4333  0.6022
   80MOL   H33630514   0.266   6.124   4.821 -2.4557  1.2286 -1.5419
   80MOL   H33730515   0.053   6.165   4.822 -1.4793  0.0022 -1.0559
   80MOL   H33830516   0.040   5.994   5.072  0.6853 -0.4461  0.2216
   80MOL   H33930517   0.102   6.161   5.068  0.3483 -0.7619 -1.5723
   80MOL   H34030518   7.537   6.265   5.040  1.8395  0.2123 -0.4568
   80MOL   H34130519   7.458   6.117   5.007 -0.9965  2.4331 -0.0786
   80MOL   H34230520   7.557   5.987   4.742 -0.9147 -0.1477  0.7704
   80MOL   H34330521   7.564   5.898   4.894 -0.8690  1.0538  0.5215
   80MOL   C34430522   7.501   6.137   5.209 -0.2800 -0.2260 -0.1211
   80MOL   C34530523   7.471   5.985   5.241  0.5362 -0.0845  0.2529
   80MOL   C34630524   7.377   6.000   5.367 -0.3251 -0.5826  0.0771
   80MOL   C34730525   7.313   6.142   5.362  0.4295 -0.3118 -0.3553
   80MOL   C34830526   7.310   6.214   5.498  0.5983  0.1102  1.0375
   80MOL   C34930527   7.231   6.344   5.513 -0.7162 -0.1827  0.8657
   80MOL   C35030528   7.385   6.223   5.252  0.0685 -0.1263  0.0043
   80MOL   H35130529   7.591   6.162   5.266  0.2275  1.2325 -1.5084
   80MOL   H35230530   7.560   5.927   5.268 -0.8919 -2.1187  0.7814
   80MOL   H35330531   7.426   5.941   5.153 -0.9448  0.9529  0.4873
   80MOL   H35430532   7.308   5.916   5.368  0.3079 -1.1734 -2.3143
   80MOL   H35530533   7.431   5.981   5.460 -1.8329  1.3962  1.4126
   80MOL   H35630534   7.210   6.135   5.327  0.5151  2.4896 -1.3055
   80MOL   H35730535   7.269   6.144   5.571 -0.0127 -0.2062  0.3935
   80MOL   H35830536   7.411   6.226   5.537  0.8270 -0.8613  0.7559
   80MOL   H35930537   7.132   6.342   5.467  0.1436 -3.3912 -1.0412
   80MOL   H36030538   7.292   6.419   5.462  0.0104 -1.6494 -0.4677
   80MOL   H36130539   7.319   6.220   5.166 -1.1905 -4.0006  0.9870
   80MOL   H36230540   7.417   6.326   5.269 -1.4484  0.6369 -1.7305
   80MOL   C36330541   7.227   6.407   5.654  0.7140 -0.5692  0.1244
   80MOL   C36430542   7.130   6.329   5.751 -0.4359  0.1468 -0.6146
   80MOL   C36530543   7.104   6.427   5.868 -0.0789  0.3046  0.2280
   80MOL   C36630544   7.172   6.562   5.820  0.1657 -0.0082 -0.7634
   80MOL   C36730545   7.114   6.692   5.863 -0.0993  0.7262  0.0964
   80MOL   C36830546   7.107   6.692   6.020 -0.0768  0.5208  0.0318
   80MOL   C36930547   7.188   6.554   5.669  0.9695 -0.4874  0.0252
   80MOL   H37030548   7.326   6.390   5.698  1.7171  2.2207 -0.9617
   80MOL   H37130549   7.035   6.311   5.702 -2.2578  0.5540  2.5974
   80MOL   H37230550   7.177   6.241   5.796 -2.0897 -0.1300  0.6121
   80MOL   H37330551   6.997   6.436   5.890 -0.2091 -1.0550  0.1636
   80MOL   H37430552   7.146   6.386   5.960  0.1488  3.3003  1.5392
   80MOL   H37530553   7.272   6.566   5.863  0.3194  0.9769 -1.1912
   80MOL   H37630554   7.175   6.774   5.826  1.5705 -0.4753  0.1262
   80MOL   H37730555   7.016   6.706   5.816 -0.6966  1.8363  1.6457
   80MOL   H37830556   7.095   6.795   6.052 -0.1499  0.6552 -0.4224
   80MOL   H37930557   7.199   6.660   6.069  0.2728 -0.1259 -1.0341
   80MOL   H38030558   7.099   6.578   5.612  1.3271 -0.8727 -0.6936
   80MOL   H38130559   7.267   6.625   5.643  0.5689 -0.5594 -1.4260
   80MOL   H38230560   7.035   6.620   6.060 -1.5322  1.2543 -1.1985
   81MOL     C130561   5.442   2.522   4.914 -0.6655  0.1332  0.7722
   81MOL     C230562   5.447   2.621   5.031  0.8361 -0.5294  0.3977
   81MOL     C330563   5.350   2.733   4.996 -0.3050  0.3639 -0.1002
   81MOL     C430564   5.238   2.673   4.909  0.2418  0.2433  0.3808
   81MOL     C530565   5.164   2.778   4.816 -0.0286 -0.1054 -0.4930
   81MOL     C630566   5.071   2.870   4.898  0.5497  0.3108  0.5696
   81MOL     C730567   5.315   2.568   4.834 -0.1944  0.4281  0.5547
   81MOL     H830568   5.528   2.546   4.852 -0.7276 -2.0305 -0.2161
   81MOL     H930569   5.551   2.641   5.060  1.1042 -2.2234  0.6843
   81MOL    H1030570   5.413   2.579   5.126 -0.3364  1.0466  0.6945
   81MOL    H1130571   5.301   2.779   5.082  1.2577  0.6493  0.6502
   81MOL    H1230572   5.393   2.819   4.944  0.9210  1.8349  3.1754
   81MOL    H1330573   5.172   2.623   4.980  2.1920 -1.3011  1.1345
   81MOL    H1430574   5.244   2.834   4.768  1.5780 -1.4514  0.5504
   81MOL    H1530575   5.117   2.722   4.734  0.0772 -0.5699 -0.2397
   81MOL    H1630576   5.007   2.815   4.967 -0.5642  3.3435  2.0443
   81MOL    H1730577   5.131   2.939   4.958  0.8041  0.8693 -0.3046
   81MOL    H1830578   5.254   2.479   4.817 -1.8163  1.5165  0.5188
   81MOL    H1930579   5.335   2.611   4.736 -0.1655  0.3662  0.5336
   81MOL    H2030580   5.432   2.416   4.941 -0.2693 -0.0616  0.1504
   81MOL    C2130581   4.982   2.950   4.800  0.2128  0.1616 -0.4371
   81MOL    C2230582   4.843   2.977   4.853  0.0048  0.3818 -0.1966
   81MOL    C2330583   4.846   3.124   4.889  0.3789  0.0406  0.1245
   81MOL    C2430584   4.940   3.188   4.786  0.2583  0.2330  0.5050
   81MOL    C2530585   5.010   3.320   4.826 -0.1956 -0.7050  0.3041
   81MOL    C2630586   4.916   3.440   4.834 -0.0080  0.4487 -0.7192
   81MOL    C2730587   5.050   3.084   4.763 -1.6101  0.1424  0.7794
   81MOL    H2830588   4.981   2.906   4.700 -0.4415 -0.7887 -0.0214
   81MOL    H2930589   4.776   2.959   4.769  1.3367 -1.2350 -0.9504
   81MOL    H3030590   4.818   2.910   4.935 -0.8445  1.0891  0.1306
   81MOL    H3130591   4.751   3.177   4.882 -0.1943 -0.8967  0.6520
   81MOL    H3230592   4.881   3.122   4.992  2.4906  2.0452 -0.5102
   81MOL    H3330593   4.888   3.199   4.691 -0.6998 -0.0208  0.9907
   81MOL    H3430594   5.099   3.326   4.765  0.9151  0.7107  2.0025
   81MOL    H3530595   5.051   3.312   4.927 -0.4331 -1.7504  0.3226
   81MOL    H3630596   4.851   3.415   4.918  1.1374 -0.4924 -0.1033
   81MOL    H3730597   4.856   3.436   4.743 -1.6622  1.7776  0.2936
   81MOL    H3830598   5.091   3.083   4.662  0.3893 -2.1268  1.5538
   81MOL    H3930599   5.133   3.114   4.827 -0.6584 -0.1090 -0.3096
   81MOL    C4030600   5.001   3.569   4.843  0.6137  0.6660 -0.5497
   81MOL    C4130601   4.931   3.697   4.794 -0.0364 -0.5305 -0.0849
   81MOL    C4230602   5.021   3.807   4.848  0.6428 -0.4030 -0.9398
   81MOL    C4330603   5.062   3.744   4.988 -0.6590 -0.3439 -0.3659
   81MOL    C4430604   5.202   3.782   5.047 -0.5679 -0.5879  0.2772
   81MOL    C4530605   5.204   3.926   5.108  0.2288  0.2785  0.0651
   81MOL    C4630606   5.037   3.597   4.988 -0.7432  0.0920 -0.0088
   81MOL    H4730607   5.101   3.553   4.802  0.9286 -1.7098  1.0649
   81MOL    H4830608   4.826   3.695   4.825  0.6015 -2.2550  2.0728
   81MOL    H4930609   4.938   3.695   4.685  2.3477 -1.1414  0.0610
   81MOL    H5030610   5.111   3.831   4.792  1.8317 -1.2326  0.5595
   81MOL    H5130611   4.951   3.891   4.850  1.3892  0.1988 -0.3431
   81MOL    H5230612   4.987   3.784   5.055  0.3405  0.4705  0.2779
   81MOL    H5330613   5.242   3.704   5.112  3.6044  0.0426 -1.3801
   81MOL    H5430614   5.268   3.780   4.960 -3.7947  1.2647 -2.3571
   81MOL    H5530615   5.156   3.934   5.205  3.0512 -1.5000  1.7032
   81MOL    H5630616   5.147   3.991   5.041 -2.3982 -1.7247  0.2996
   81MOL    H5730617   5.121   3.536   5.019 -1.7867 -0.4843  1.7239
   81MOL    H5830618   4.961   3.582   5.065 -1.6245  0.2040 -0.8425
   81MOL    C5930619   5.352   3.978   5.122 -0.3995  0.0481 -0.2746
   81MOL    C6030620   5.422   4.017   4.993  0.2755  1.1082  0.6050
   81MOL    C6130621   5.539   4.106   5.031 -0.3790  0.1182  0.2680
   81MOL    C6230622   5.484   4.189   5.142 -0.1178 -0.5923  0.5276
   81MOL    C6330623   5.593   4.217   5.254 -0.3136 -0.1695  0.3469
   81MOL    C6430624   5.562   4.331   5.351  0.3181 -0.2660  0.2252
   81MOL    C6530625   5.366   4.108   5.198 -0.1830 -0.7579 -0.0119
   81MOL    H6630626   5.407   3.899   5.172 -0.0928  0.3314 -0.1620
   81MOL    H6730627   5.455   3.926   4.944 -2.0639  0.5525 -0.0260
   81MOL    H6830628   5.360   4.070   4.920  1.7415  2.5077  0.3556
   81MOL    H6930629   5.624   4.048   5.065  0.5795  2.7159  2.5573
   81MOL    H7030630   5.578   4.153   4.940  0.0291  0.0224  0.3916
   81MOL    H7130631   5.445   4.278   5.093 -1.9193 -1.6770 -0.0421
   81MOL    H7230632   5.690   4.237   5.207  1.4739 -1.3675  3.3357
   81MOL    H7330633   5.604   4.136   5.326  1.1068  1.6540  2.2537
   81MOL    H7430634   5.560   4.427   5.299  1.5047 -1.9913 -3.1403
   81MOL    H7530635   5.462   4.323   5.393  0.8404  1.4233  1.8536
   81MOL    H7630636   5.389   4.079   5.301 -1.4245 -2.3416 -0.1641
   81MOL    H7730637   5.276   4.168   5.205  1.1345  1.0413  2.2478
   81MOL    C7830638   5.674   4.345   5.460  0.1915 -0.0162 -0.5614
   81MOL    C7930639   5.793   4.434   5.417  0.3473  0.0745 -0.0332
   81MOL    C8030640   5.847   4.502   5.545 -0.1590 -0.6196 -0.2167
   81MOL    C8130641   5.724   4.519   5.631  0.4586 -0.3227 -0.2374
   81MOL    C8230642   5.668   4.664   5.633  0.3019  0.8236  0.4830
   81MOL    C8330643   5.764   4.760   5.705  0.0508 -0.4124  0.1736
   81MOL    C8430644   5.616   4.420   5.585  0.1873  0.5455  0.0804
   81MOL    H8530645   5.714   4.253   5.502  1.2014  0.5832 -0.2036
   81MOL    H8630646   5.872   4.383   5.361  1.5101 -1.8244  3.2247
   81MOL    H8730647   5.746   4.507   5.352  0.6051 -0.1232 -0.4484
   81MOL    H8830648   5.912   4.433   5.598 -0.3281 -0.3015  0.4087
   81MOL    H8930649   5.909   4.589   5.527 -0.7935  0.0453  0.7796
   81MOL    H9030650   5.748   4.505   5.737  0.5487  1.5919  0.0188
   81MOL    H9130651   5.569   4.663   5.679 -0.9780  1.8833 -2.1271
   81MOL    H9230652   5.654   4.689   5.528 -0.4653 -0.0554  0.3681
   81MOL    H9330653   5.866   4.756   5.667  0.3541 -0.7758  1.0030
   81MOL    H9430654   5.767   4.727   5.809 -1.0272 -2.7440 -0.5007
   81MOL    H9530655   5.515   4.460   5.579 -0.2912 -0.4094  1.4337
   81MOL    H9630656   5.609   4.358   5.675  2.8237 -0.9530 -0.7099
   81MOL    C9730657   5.713   4.907   5.716 -0.9726  0.0245  0.0298
   81MOL    C9830658   5.764   4.993   5.832 -0.4253 -0.1357 -0.1982
   81MOL    C9930659   5.661   5.105   5.854  0.1121  0.0965  0.5413
   81MOL   C10030660   5.535   5.056   5.788 -1.1826  0.2688  0.1076
   81MOL   C10130661   5.421   5.073   5.890  0.1164  0.7974 -0.5576
   81MOL   C10230662   5.378   5.221   5.921 -0.7996  0.7617 -0.2177
   81MOL   C10330663   5.560   4.915   5.740 -0.0090 -1.6238 -0.1750
   81MOL   H10430664   5.730   4.963   5.625  0.3664  0.5013  0.5642
   81MOL   H10530665   5.773   4.951   5.932  1.1357 -1.8036 -1.0072
   81MOL   H10630666   5.865   5.025   5.803 -1.2122  1.4403 -1.3309
   81MOL   H10730667   5.640   5.141   5.955  0.7337  1.0460  0.3396
   81MOL   H10830668   5.698   5.197   5.807 -1.1274 -0.5212 -1.7163
   81MOL   H10930669   5.510   5.115   5.700  0.5413 -0.2312 -0.7554
   81MOL   H11030670   5.336   5.018   5.850  0.7495 -1.2150  0.7622
   81MOL   H11130671   5.444   5.028   5.987  0.5338 -0.0735 -1.0628
   81MOL   H11230672   5.454   5.274   5.978 -2.1420  1.6397  0.7867
   81MOL   H11330673   5.376   5.259   5.818 -2.1347 -2.4417 -1.4223
   81MOL   H11430674   5.529   4.843   5.816 -0.5050  0.3959  1.5675
   81MOL   H11530675   5.496   4.906   5.652 -1.2010  2.8655  0.1158
   81MOL   C11630676   5.249   5.233   6.004 -0.0655 -0.6565 -0.6607
   81MOL   C11730677   5.200   5.375   6.030 -0.0888  0.3270 -0.0067
   81MOL   C11830678   5.051   5.372   6.045  0.0453  0.3362 -0.0078
   81MOL   C11930679   5.011   5.233   6.008  0.2325  1.2544  0.6608
   81MOL   C12030680   4.875   5.217   5.944 -0.2871 -0.7348 -0.2940
   81MOL   C12130681   4.843   5.069   5.955 -0.1932  0.1347  0.4636
   81MOL   C12230682   5.133   5.177   5.934  0.5526  0.6678 -0.2716
   81MOL   H12330683   5.247   5.187   6.102  0.1376  1.5907  0.4265
   81MOL   H12430684   5.232   5.435   5.945  0.3949 -0.1123 -0.1397
   81MOL   H12530685   5.261   5.428   6.103  0.7267  1.0773 -1.2188
   81MOL   H12630686   5.021   5.447   5.971 -0.8337  0.3516  0.3669
   81MOL   H12730687   5.024   5.384   6.150  0.2033 -1.4434  0.2479
   81MOL   H12830688   4.998   5.175   6.099 -0.9921  0.2646 -0.1238
   81MOL   H12930689   4.889   5.239   5.839  0.5348 -2.0314 -0.4706
   81MOL   H13030690   4.795   5.273   5.993  0.4249 -1.2398  1.4890
   81MOL   H13130691   4.852   5.044   6.061 -0.8474  0.5703  0.6283
   81MOL   H13230692   4.918   5.010   5.902  1.7056  1.9350  1.0634
   81MOL   H13330693   5.141   5.069   5.929  1.0922  0.7736 -1.8523
   81MOL   H13430694   5.131   5.205   5.829  1.2436  1.3425 -0.1088
   81MOL   C13530695   4.706   5.028   5.897  0.2566 -0.8886  0.0260
   81MOL   C13630696   4.676   5.072   5.747 -0.4640  0.2319 -0.0451
   81MOL   C13730697   4.560   4.970   5.702  0.9269 -0.5839  0.5728
   81MOL   C13830698   4.585   4.837   5.775 -0.2700 -0.4753 -0.3107
   81MOL   C13930699   4.461   4.755   5.823 -0.0133  0.2219 -0.1131
   81MOL   C14030700   4.376   4.700   5.708 -0.1350 -0.6659  1.1248
   81MOL   C14130701   4.669   4.875   5.905 -0.0032 -0.1199  0.0164
   81MOL   H14230702   4.637   5.084   5.961  0.5142  0.1937 -0.6285
   81MOL   H14330703   4.645   5.176   5.745  0.2824  0.4531 -0.1517
   81MOL   H14430704   4.761   5.061   5.680  0.7929  1.8207  1.2632
   81MOL   H14530705   4.467   5.010   5.742  0.5182 -2.1245  1.1771
   81MOL   H14630706   4.550   4.955   5.595 -0.3807  4.3236 -0.1283
   81MOL   H14730707   4.650   4.769   5.720  0.8892 -0.9283  1.5748
   81MOL   H14830708   4.399   4.816   5.889  2.5231  2.8109 -0.0186
   81MOL   H14930709   4.500   4.671   5.881  0.2778  0.7304  0.4350
   81MOL   H15030710   4.371   4.781   5.635  2.3828 -1.5385 -0.0866
   81MOL   H15130711   4.427   4.618   5.657 -0.3666  0.2351 -0.5645
   81MOL   H15230712   4.764   4.822   5.902  0.6025  0.8413  1.5778
   81MOL   H15330713   4.616   4.847   5.996  2.3937 -0.2955  1.4014
   81MOL   C15430714   4.234   4.682   5.754  0.2899  0.1777  0.1851
   81MOL   C15530715   4.153   4.594   5.661  0.0804 -0.3061 -0.9332
   81MOL   C15630716   4.096   4.701   5.561  0.2860 -0.1456 -0.1798
   81MOL   C15730717   4.035   4.808   5.651  0.2106 -1.0839  0.0153
   81MOL   C15830718   4.000   4.944   5.585 -0.5573  0.6190  0.5546
   81MOL   C15930719   3.912   5.033   5.678  0.5633  0.3387  0.0658
   81MOL   C16030720   4.149   4.809   5.761  0.0728 -0.4325 -0.4970
   81MOL   H16130721   4.242   4.640   5.854 -0.5679 -0.4747 -0.0109
   81MOL   H16230722   4.212   4.517   5.612 -1.5562 -1.2222 -1.4838
   81MOL   H16330723   4.071   4.542   5.709  0.4109  0.6399  0.7149
   81MOL   H16430724   4.177   4.739   5.498  0.2058 -1.0860 -0.8537
   81MOL   H16530725   4.020   4.660   5.495  1.0136 -0.7164 -0.6721
   81MOL   H16630726   3.946   4.767   5.698 -1.0266  0.5945 -0.7976
   81MOL   H16730727   3.951   4.913   5.493 -0.6949 -2.4476  1.6312
   81MOL   H16830728   4.094   4.993   5.558  0.6464 -0.3408  2.9073
   81MOL   H16930729   3.805   5.020   5.663  0.8546 -0.4733 -1.3959
   81MOL   H17030730   3.918   4.996   5.781  0.6327 -2.2223 -0.8128
   81MOL   H17130731   4.092   4.815   5.853  0.1933  0.8493 -0.5091
   81MOL   H17230732   4.204   4.901   5.781 -0.9148 -0.0323  0.4128
   81MOL   C17330733   3.968   5.176   5.684 -0.7247  0.1015 -0.3971
   81MOL   C17430734   3.995   5.240   5.545 -0.3614  0.5440  0.0383
   81MOL   C17530735   4.015   5.386   5.575 -0.2333 -0.1101 -0.5614
   81MOL   C17630736   3.918   5.412   5.688  0.6485  0.5597  0.3733
   81MOL   C17730737   3.799   5.512   5.661 -1.1167  0.2173 -0.5305
   81MOL   C17830738   3.724   5.545   5.792 -0.2306  0.0200  0.2087
   81MOL   C17930739   3.866   5.273   5.730  0.0792 -0.8509 -0.4571
   81MOL   H18030740   4.052   5.169   5.754 -0.7733 -2.1719 -0.5567
   81MOL   H18130741   3.904   5.234   5.486  0.1070  0.7567 -0.7108
   81MOL   H18230742   4.078   5.200   5.485 -0.9969 -0.2685 -0.3091
   81MOL   H18330743   4.113   5.411   5.616 -1.9070  2.0126  2.3050
   81MOL   H18430744   3.993   5.445   5.486 -0.7958 -1.0135 -1.0261
   81MOL   H18530745   3.962   5.461   5.774 -0.2065 -1.8889  2.2856
   81MOL   H18630746   3.729   5.470   5.589 -0.3936 -0.6536 -0.7481
   81MOL   H18730747   3.831   5.606   5.616 -0.0610 -0.0451 -0.3503
   81MOL   H18830748   3.797   5.582   5.865  1.9323 -1.2419 -1.2663
   81MOL   H18930749   3.698   5.451   5.841 -0.4525  1.0024  2.0458
   81MOL   H19030750   3.766   5.263   5.687 -0.5212  3.1325 -0.1206
   81MOL   H19130751   3.856   5.266   5.838  1.1728 -0.5802 -0.3307
   81MOL   C19230752   3.599   5.624   5.774 -0.0097 -0.0244  0.2619
   81MOL   C19330753   3.545   5.696   5.899  0.5986  0.3613 -0.1913
   81MOL   C19430754   3.443   5.600   5.953 -0.4884 -0.0189 -0.5730
   81MOL   C19530755   3.433   5.482   5.857  1.4032  0.4327 -0.7721
   81MOL   C19630756   3.292   5.427   5.839  0.7137  0.4583  0.1928
   81MOL   C19730757   3.265   5.307   5.927 -0.2256  0.5357 -0.0534
   81MOL   C19830758   3.488   5.534   5.724 -0.5153  0.3820  0.2285
   81MOL   H19930759   3.622   5.699   5.698  0.0690  0.3955  0.6962
   81MOL   H20030760   3.618   5.722   5.975  0.4502  2.5888 -0.7916
   81MOL   H20130761   3.489   5.788   5.883 -0.4815 -0.1810  0.3616
   81MOL   H20230762   3.345   5.647   5.942 -0.9082 -0.7784 -0.1453
   81MOL   H20330763   3.469   5.589   6.058  1.3359  3.9100 -0.5398
   81MOL   H20430764   3.494   5.394   5.879  1.1061  0.1054 -1.2656
   81MOL   H20530765   3.274   5.398   5.735  2.5361  0.8843 -0.2684
   81MOL   H20630766   3.224   5.510   5.854  2.0655  1.3251  1.7005
   81MOL   H20730767   3.297   5.334   6.028  1.0895  3.2527 -1.1573
   81MOL   H20830768   3.332   5.225   5.900  0.5624  1.3725 -0.6570
   81MOL   H20930769   3.413   5.604   5.688  0.5477  0.7068 -1.4203
   81MOL   H21030770   3.500   5.459   5.647 -1.9872 -1.6671  1.9556
   81MOL   C21130771   3.124   5.267   5.940  0.3248 -0.3929 -0.4265
   81MOL   C21230772   3.041   5.369   6.020  0.3400 -0.5313  0.2956
   81MOL   C21330773   2.938   5.284   6.102  0.3764  0.5909  0.6281
   81MOL   C21430774   2.948   5.149   6.038  0.2875  0.0146  0.2832
   81MOL   C21530775   2.881   5.033   6.116 -0.2369 -1.1165  0.7438
   81MOL   C21630776   2.724   5.052   6.153  0.1035  0.4033  0.3073
   81MOL   C21730777   3.095   5.131   6.011 -0.8694  0.3212  0.7215
   81MOL   H21830778   3.093   5.262   5.836 -1.9979 -1.8685  0.2886
   81MOL   H21930779   3.098   5.433   6.087 -2.0298 -0.6868  2.5724
   81MOL   H22030780   2.992   5.437   5.950  3.5277  0.0618 -1.4623
   81MOL   H22130781   2.971   5.267   6.204  1.7974  1.1000  0.2680
   81MOL   H22230782   2.837   5.324   6.110  0.1930  1.0380 -3.1372
   81MOL   H22330783   2.901   5.157   5.940 -0.3435  1.7740  0.7125
   81MOL   H22430784   2.932   5.001   6.207 -0.8588 -1.8237  0.8471
   81MOL   H22530785   2.879   4.949   6.047 -0.2905  0.2332 -0.9314
   81MOL   H22630786   2.710   5.126   6.231 -1.0502 -0.0830  0.5607
   81MOL   H22730787   2.671   5.087   6.065 -0.0836  1.1944  0.7385
   81MOL   H22830788   3.102   5.046   5.942  2.2346 -0.5737  2.0555
   81MOL   H22930789   3.151   5.110   6.102 -0.0471 -3.5162 -0.5368
   81MOL   C23030790   2.662   4.927   6.212 -0.1156  0.3357 -0.2921
   81MOL   C23130791   2.655   4.809   6.116  0.0680  0.1702  0.2434
   81MOL   C23230792   2.544   4.721   6.167  0.7406 -0.5698 -0.2500
   81MOL   C23330793   2.441   4.823   6.221  0.0726 -0.4738 -0.0230
   81MOL   C23430794   2.354   4.774   6.339 -0.2013 -0.0628  0.4365
   81MOL   C23530795   2.244   4.872   6.380  0.0321 -0.2701 -0.2104
   81MOL   C23630796   2.522   4.949   6.267 -0.0673 -0.6418  0.2670
   81MOL   H23730797   2.732   4.908   6.292 -0.8356 -0.3121  0.1900
   81MOL   H23830798   2.629   4.843   6.015 -0.5284 -1.0178 -0.0147
   81MOL   H23930799   2.753   4.764   6.106  1.4570  3.0940  0.1236
   81MOL   H24030800   2.582   4.674   6.258  0.6072  1.3356  0.8120
   81MOL   H24130801   2.508   4.635   6.110 -0.4656 -0.8765  0.9334
   81MOL   H24230802   2.375   4.845   6.137  1.8037  0.6928 -1.1242
   81MOL   H24330803   2.428   4.753   6.416  2.1531 -0.2799 -1.7946
   81MOL   H24430804   2.307   4.685   6.297  1.3841 -0.5426 -0.3700
   81MOL   H24530805   2.186   4.825   6.459 -0.4287 -0.2004 -0.5054
   81MOL   H24630806   2.295   4.950   6.436  0.5126 -0.8168  0.1123
   81MOL   H24730807   2.524   4.948   6.376  1.3312 -2.4309  0.2631
   81MOL   H24830808   2.479   5.039   6.224  2.8553  1.2104  1.1293
   81MOL   C24930809   2.135   4.927   6.287 -0.7605  0.7208 -0.5639
   81MOL   C25030810   2.040   4.816   6.226  0.1534  0.7250 -0.5364
   81MOL   C25130811   1.906   4.854   6.263  0.1327 -0.1577 -0.2805
   81MOL   C25230812   1.903   5.005   6.290 -0.5992 -0.2420  0.5869
   81MOL   C25330813   1.900   5.090   6.157  0.4724  0.2753  0.1246
   81MOL   C25430814   1.760   5.083   6.076 -0.3467 -0.5396  0.0486
   81MOL   C25530815   2.036   5.022   6.367  0.2263 -0.3542 -0.9593
   81MOL   H25630816   2.179   4.991   6.211 -0.4059  1.8849  0.6055
   81MOL   H25730817   2.069   4.813   6.121  1.5675 -2.5089 -0.0942
   81MOL   H25830818   2.053   4.718   6.271  0.9707 -0.0497 -2.4461
   81MOL   H25930819   1.889   4.798   6.355  0.0799 -1.6685 -1.1804
   81MOL   H26030820   1.824   4.829   6.196 -2.1752 -0.1999  2.4748
   81MOL   H26130821   1.815   5.021   6.352 -0.3500  0.3799  0.7884
   81MOL   H26230822   1.991   5.084   6.097  0.4032  1.6685 -0.1477
   81MOL   H26330823   1.910   5.195   6.186 -1.7987  1.1856 -2.1373
   81MOL   H26430824   1.674   5.102   6.140 -0.0284 -1.0250  0.6164
   81MOL   H26530825   1.738   4.979   6.053 -0.9388 -0.8669  2.0520
   81MOL   H26630826   2.011   4.978   6.464 -2.7126 -0.1128 -1.5432
   81MOL   H26730827   2.061   5.126   6.383 -0.4288 -0.7155  2.9510
   81MOL   C26830828   1.754   5.182   5.957  0.3195  0.2782 -0.3485
   81MOL   C26930829   1.638   5.151   5.865  0.5420  0.0073 -0.2547
   81MOL   C27030830   1.697   5.151   5.722  0.1391 -0.2675  0.4406
   81MOL   C27130831   1.834   5.216   5.737 -0.3881  0.4445  0.1894
   81MOL   C27230832   1.930   5.187   5.617  0.5187 -0.2300  0.9978
   81MOL   C27330833   2.068   5.250   5.647  0.0078  0.1270  0.5436
   81MOL   C27430834   1.882   5.163   5.872 -0.2820 -0.3904  0.2440
   81MOL   H27530835   1.752   5.286   5.989 -1.8250  0.3562 -0.6763
   81MOL   H27630836   1.576   5.064   5.885 -0.4909  1.2209  1.9769
   81MOL   H27730837   1.569   5.235   5.876  0.0761 -0.3325 -0.5641
   81MOL   H27830838   1.703   5.047   5.688  1.3454 -0.3381  0.8420
   81MOL   H27930839   1.626   5.203   5.658  0.5542 -0.1394  0.0830
   81MOL   H28030840   1.828   5.324   5.751  1.5666  0.5769  0.1354
   81MOL   H28130841   1.883   5.229   5.528  1.4620  2.5802  1.7630
   81MOL   H28230842   1.941   5.083   5.588  2.2725  0.2535 -0.1616
   81MOL   H28330843   2.048   5.351   5.682  1.2525  0.9454 -0.9897
   81MOL   H28430844   2.119   5.184   5.717 -1.7383 -1.1074  0.6719
   81MOL   H28530845   1.913   5.061   5.846  2.2200  0.7069 -1.2287
   81MOL   H28630846   1.969   5.220   5.904  1.5355 -3.9179  1.8264
   81MOL   C28730847   2.154   5.273   5.520  1.1434  0.7304 -0.6603
   81MOL   C28830848   2.121   5.388   5.421 -0.0985 -0.5736  0.0414
   81MOL   C28930849   2.251   5.433   5.362 -0.4015  0.2124  0.3847
   81MOL   C29030850   2.366   5.355   5.436  0.7060 -0.6688  0.0733
   81MOL   C29130851   2.498   5.439   5.459 -0.4278 -0.6837 -0.6404
   81MOL   C29230852   2.624   5.367   5.498 -0.6507  0.4018  0.0023
   81MOL   C29330853   2.294   5.305   5.564 -0.9503 -0.0317  0.4483
   81MOL   H29430854   2.159   5.180   5.463  0.0870  0.8244 -0.9059
   81MOL   H29530855   2.046   5.347   5.353  0.8200 -0.2590 -1.1885
   81MOL   H29630856   2.073   5.465   5.482  0.2357 -0.8394  0.6337
   81MOL   H29730857   2.269   5.538   5.384  0.8913 -0.3794  2.2045
   81MOL   H29830858   2.257   5.416   5.254  2.2441 -1.8067  0.7893
   81MOL   H29930859   2.390   5.265   5.380  0.2856 -1.7349  1.5536
   81MOL   H30030860   2.480   5.523   5.526  2.3702  0.2447 -0.9992
   81MOL   H30130861   2.516   5.488   5.364 -2.7066 -0.4785 -0.9959
   81MOL   H30230862   2.631   5.286   5.426  0.2112 -0.1958  0.7414
   81MOL   H30330863   2.606   5.316   5.593  3.5238 -0.0116  0.6384
   81MOL   H30430864   2.280   5.384   5.638 -0.8167 -1.0380  1.5582
   81MOL   H30530865   2.346   5.220   5.610 -0.8117 -1.5991 -2.5308
   81MOL   C30630866   2.750   5.449   5.511 -0.2552 -0.2472 -0.1474
   81MOL   C30730867   2.867   5.358   5.581  0.8962 -0.7742 -0.4110
   81MOL   C30830868   2.999   5.431   5.547 -0.3379 -0.1374 -0.7028
   81MOL   C30930869   2.957   5.534   5.441 -0.7401  0.0144 -0.3691
   81MOL   C31030870   3.065   5.572   5.338 -0.4090 -0.2465  0.1320
   81MOL   C31130871   3.122   5.721   5.346 -0.1173  0.5172  0.0259
   81MOL   C31230872   2.818   5.506   5.386  0.2698  0.3825 -0.1070
   81MOL   H31330873   2.728   5.532   5.578 -1.2348 -1.1252  0.6426
   81MOL   H31430874   2.851   5.354   5.689  2.6600 -0.0303 -0.1102
   81MOL   H31530875   2.861   5.252   5.555  0.0458 -1.9147  4.0951
   81MOL   H31630876   3.039   5.491   5.629 -0.5162  1.0050 -1.4420
   81MOL   H31730877   3.072   5.358   5.513 -1.2261 -1.3117 -0.1144
   81MOL   H31830878   2.951   5.632   5.489  1.1580  0.3417 -0.7680
   81MOL   H31930879   3.159   5.518   5.356  0.8881  1.4388 -1.4109
   81MOL   H32030880   3.030   5.552   5.237 -0.0286 -0.2359 -0.0028
   81MOL   H32130881   3.219   5.723   5.296 -0.7403  0.0779 -1.2412
   81MOL   H32230882   3.148   5.731   5.451 -1.9179 -1.3964  0.6851
   81MOL   H32330883   2.825   5.431   5.307 -2.6238 -0.6436  0.5626
   81MOL   H32430884   2.764   5.595   5.356 -1.6193 -0.7956 -0.3024
   81MOL   C32530885   3.027   5.829   5.295 -0.0868  0.6521  1.3175
   81MOL   C32630886   3.059   5.977   5.307 -0.3305 -0.1427 -0.0635
   81MOL   C32730887   3.051   6.041   5.159  0.9521  0.3741  0.0415
   81MOL   C32830888   3.086   5.925   5.071  0.2530  0.0899 -0.8754
   81MOL   C32930889   3.031   5.946   4.929  0.0029  0.0102  0.8079
   81MOL   C33030890   3.055   5.830   4.820 -0.4252 -0.4031 -0.1651
   81MOL   C33130891   3.019   5.802   5.140  0.5260  0.0225  0.4906
   81MOL   H33230892   2.927   5.808   5.334 -1.2748 -0.6307 -2.2477
   81MOL   H33330893   3.154   6.005   5.352 -0.1144 -0.9339 -0.0281
   81MOL   H33430894   2.982   6.027   5.367  1.4617  0.9758  1.3386
   81MOL   H33530895   2.951   6.076   5.130  1.6814  0.9059 -1.8793
   81MOL   H33630896   3.126   6.118   5.141 -0.3255  1.5993 -0.2064
   81MOL   H33730897   3.195   5.923   5.067  0.2683  1.8356 -1.3217
   81MOL   H33830898   2.923   5.963   4.935  0.2114  1.6753 -0.0200
   81MOL   H33930899   3.080   6.036   4.895 -1.5907  1.4306  2.1955
   81MOL   H34030900   3.164   5.826   4.813 -0.2910 -2.0493  2.0059
   81MOL   H34130901   3.034   5.728   4.854  0.6687 -0.9721 -1.1587
   81MOL   H34230902   3.071   5.715   5.101 -0.0868  0.9699 -2.5463
   81MOL   H34330903   2.916   5.791   5.105  0.9313 -4.6915  0.4957
   81MOL   C34430904   2.998   5.861   4.688 -0.5476  0.2684  0.3938
   81MOL   C34530905   2.846   5.855   4.669 -0.8983  0.1998 -0.1009
   81MOL   C34630906   2.823   5.844   4.518  0.1416  0.1720  0.1621
   81MOL   C34730907   2.933   5.742   4.477  0.4735  0.1640  0.3522
   81MOL   C34830908   2.971   5.728   4.326  0.1311  0.8514  0.4787
   81MOL   C34930909   2.863   5.732   4.217 -0.5031  0.4693  0.2050
   81MOL   C35030910   3.049   5.770   4.578  0.2057  0.3190 -0.2784
   81MOL   H35130911   3.050   5.957   4.675  2.4867 -1.0248  2.3328
   81MOL   H35230912   2.804   5.939   4.724  2.6848  1.4919  0.7881
   81MOL   H35330913   2.803   5.768   4.719  0.3813 -0.2401  0.2539
   81MOL   H35430914   2.723   5.812   4.488 -1.1255  2.1798  2.0302
   81MOL   H35530915   2.846   5.941   4.472  2.3688 -0.3261  0.1686
   81MOL   H35630916   2.897   5.645   4.511 -1.0702  0.3013 -0.7952
   81MOL   H35730917   3.041   5.805   4.294 -0.0896  0.6676 -0.4533
   81MOL   H35830918   3.025   5.634   4.309 -0.2675  0.5784  0.7321
   81MOL   H35930919   2.911   5.752   4.121  1.4516 -2.2620  0.5595
   81MOL   H36030920   2.799   5.818   4.236 -0.2243  0.2507  2.1640
   81MOL   H36130921   3.090   5.682   4.627 -1.0844 -0.2119 -0.1476
   81MOL   H36230922   3.140   5.811   4.535  1.1589 -2.0527 -0.6018
   81MOL   C36330923   2.783   5.606   4.202 -0.1118  0.0343  0.0971
   81MOL   C36430924   2.849   5.493   4.117  0.1566 -0.1645  0.3392
   81MOL   C36530925   2.743   5.425   4.034  0.6165 -0.3674  0.4488
   81MOL   C36630926   2.606   5.491   4.077 -1.2498 -0.0973 -0.3541
   81MOL   C36730927   2.497   5.501   3.969  0.4383 -0.0394 -0.1255
   81MOL   C36830928   2.444   5.366   3.918 -0.0047 -0.5277  0.3013
   81MOL   C36930929   2.647   5.628   4.132 -0.1767  0.6096  0.0963
   81MOL   H37030930   2.770   5.565   4.302 -1.7861 -1.6885 -0.7915
   81MOL   H37130931   2.923   5.530   4.045  1.0946 -1.2627  0.7282
   81MOL   H37230932   2.905   5.425   4.181 -0.4617  1.9184  3.2034
   81MOL   H37330933   2.759   5.427   3.926 -0.9469 -1.5993  0.1771
   81MOL   H37430934   2.743   5.319   4.058 -0.5077 -0.6302 -0.6308
   81MOL   H37530935   2.563   5.426   4.154  1.1984 -1.7676 -0.3141
   81MOL   H37630936   2.422   5.560   4.022 -0.4423 -2.0902  0.9615
   81MOL   H37730937   2.523   5.557   3.880 -0.7997  0.5189 -0.1475
   81MOL   H37830938   2.362   5.385   3.848 -0.0303 -0.1387  0.4321
   81MOL   H37930939   2.397   5.299   3.990 -0.3850 -0.6395 -0.0432
   81MOL   H38030940   2.657   5.690   4.043  0.8206 -0.7092 -0.7337
   81MOL   H38130941   2.562   5.655   4.195 -0.4731 -0.6977  0.2678
   81MOL   H38230942   2.523   5.314   3.864 -2.4707 -3.1084 -0.9544
   82MOL     C130943   0.805   6.448   6.182  0.4941  0.3502 -0.1113
   82MOL     C230944   0.728   6.328   6.250 -0.5147  0.8727  0.8523
   82MOL     C330945   0.786   6.321   6.393 -0.0449 -0.2943 -0.0666
   82MOL     C430946   0.807   6.469   6.430 -0.2229  0.4464 -0.6916
   82MOL     C530947   0.908   6.493   6.540 -0.7331  0.4532  0.2822
   82MOL     C630948   0.882   6.425   6.672 -0.1879 -0.1736 -0.5269
   82MOL     C730949   0.846   6.543   6.298  0.1660  0.0499  0.5497
   82MOL     H830950   0.892   6.418   6.123 -0.3456 -1.6380 -0.3967
   82MOL     H930951   0.732   6.238   6.190  1.9162  1.9211 -0.6437
   82MOL    H1030952   0.624   6.358   6.265 -0.5890  1.2810 -0.4238
   82MOL    H1130953   0.732   6.279   6.478  0.5807 -0.2278  0.3715
   82MOL    H1230954   0.876   6.260   6.381 -0.4117 -0.3213 -2.8913
   82MOL    H1330955   0.710   6.507   6.463 -0.2252 -0.8438  0.8524
   82MOL    H1430956   1.006   6.468   6.501 -1.4906  0.6435 -1.7921
   82MOL    H1530957   0.913   6.601   6.545  0.9857  0.3675  0.5611
   82MOL    H1630958   0.891   6.317   6.670  0.5505 -0.1094 -1.0152
   82MOL    H1730959   0.959   6.453   6.744 -0.6582  1.0068 -0.4706
   82MOL    H1830960   0.805   6.644   6.291 -1.0158 -0.4031  0.7300
   82MOL    H1930961   0.953   6.556   6.286 -0.0289 -1.1435 -2.9643
   82MOL    H2030962   0.737   6.498   6.114 -1.2817 -2.4290 -0.4855
   82MOL    C2130963   0.746   6.473   6.736  0.0232 -0.5494 -0.1169
   82MOL    C2230964   0.736   6.435   6.891  0.0088 -0.5413  0.3340
   82MOL    C2330965   0.682   6.558   6.968 -0.5973 -0.0265 -0.2979
   82MOL    C2430966   0.637   6.655   6.858 -0.0507 -0.5904 -0.2165
   82MOL    C2530967   0.636   6.806   6.896  0.6017 -0.5779  0.2418
   82MOL    C2630968   0.518   6.830   6.987 -0.2622 -0.5001 -0.0131
   82MOL    C2730969   0.730   6.624   6.740  0.5193 -0.1064  0.1456
   82MOL    H2830970   0.669   6.424   6.677 -0.5194 -0.8292  0.8091
   82MOL    H2930971   0.667   6.352   6.899 -0.8505 -0.0238 -1.5328
   82MOL    H3030972   0.828   6.399   6.938  0.7760  0.6999 -0.1739
   82MOL    H3130973   0.608   6.535   7.044 -0.7794 -1.8594 -1.0191
   82MOL    H3230974   0.770   6.605   7.012 -0.3718 -0.6394 -0.0862
   82MOL    H3330975   0.537   6.629   6.824 -0.5294  0.7443  0.1439
   82MOL    H3430976   0.631   6.868   6.806  2.8586  0.0820  0.5359
   82MOL    H3530977   0.732   6.822   6.945  0.0440 -1.1840  1.5555
   82MOL    H3630978   0.517   6.745   7.055  0.4310  0.4874  1.2391
   82MOL    H3730979   0.422   6.823   6.936  0.5593 -3.3444 -1.2874
   82MOL    H3830980   0.700   6.660   6.641  1.2693  1.6155  0.5292
   82MOL    H3930981   0.829   6.667   6.751  0.9735 -0.8820 -0.7702
   82MOL    C4030982   0.534   6.954   7.072  0.2318 -0.2907 -0.2003
   82MOL    C4130983   0.514   7.086   6.997 -0.1094  0.3983  0.0166
   82MOL    C4230984   0.420   7.169   7.081  0.0133 -0.1080 -0.0955
   82MOL    C4330985   0.326   7.065   7.148 -0.4980  0.2804  0.5180
   82MOL    C4430986   0.248   7.129   7.259 -0.7486  0.2806 -0.2534
   82MOL    C4530987   0.135   7.227   7.220 -0.3767 -0.1268  0.1330
   82MOL    C4630988   0.426   6.965   7.184 -0.6463  0.7771 -0.3313
   82MOL    H4730989   0.636   6.962   7.111  0.2355  1.4140 -0.5214
   82MOL    H4830990   0.459   7.072   6.904 -0.2541 -1.9351  0.4208
   82MOL    H4930991   0.608   7.130   6.964 -0.8027  2.2868  0.4908
   82MOL    H5030992   0.472   7.226   7.159  0.9260 -2.0887  0.7988
   82MOL    H5130993   0.360   7.239   7.024 -0.0841  0.2326  0.4172
   82MOL    H5230994   0.258   7.025   7.073  1.4529  0.9244 -1.6561
   82MOL    H5330995   0.202   7.045   7.311  1.1461 -0.5123  0.1712
   82MOL    H5430996   0.317   7.174   7.329 -2.2560 -0.3150  1.6703
   82MOL    H5530997   0.080   7.196   7.131 -2.0414  1.3525  0.6089
   82MOL    H5630998   0.186   7.313   7.176  1.3960 -0.8163  0.7815
   82MOL    H5730999   0.465   7.009   7.275  0.0603 -0.0870 -0.2057
   82MOL    H5831000   0.380   6.869   7.204 -1.5903  0.8884 -1.8848
   82MOL    C5931001   0.053   7.271   7.340  0.2106 -0.9603  0.3145
   82MOL    C6031002   7.608   7.396   7.315 -0.4443  0.1589 -0.5230
   82MOL    C6131003   7.487   7.368   7.397  0.7019  0.0770 -0.0935
   82MOL    C6231004   7.468   7.214   7.401 -0.3924 -0.2484  0.2682
   82MOL    C6331005   7.383   7.166   7.518  0.3184 -0.0640  0.5159
   82MOL    C6431006   7.357   7.025   7.522 -0.4748  0.2189  0.3211
   82MOL    C6531007   7.609   7.159   7.395 -0.3243  0.2776  0.7420
   82MOL    H6631008   0.117   7.321   7.413 -0.7677  0.6630  0.0905
   82MOL    H6731009   0.015   7.489   7.330 -0.0979  0.6212 -4.2939
   82MOL    H6831010   7.577   7.402   7.211  1.2886  0.5619 -1.0186
   82MOL    H6931011   7.510   7.397   7.500  0.2470  0.6561 -0.1560
   82MOL    H7031012   7.398   7.428   7.380  1.9134  2.1638  0.6676
   82MOL    H7131013   7.423   7.176   7.310  2.8693 -0.4488 -1.3406
   82MOL    H7231014   7.289   7.222   7.513 -2.1186 -3.9971  0.4219
   82MOL    H7331015   7.439   7.192   7.608  0.0597 -0.2207  0.7206
   82MOL    H7431016   7.351   6.979   7.423 -0.3423  1.8361 -0.4605
   82MOL    H7531017   7.444   6.978   7.568  0.9700  1.1454 -1.3806
   82MOL    H7631018   7.641   7.126   7.494  2.0002  0.8263  0.2045
   82MOL    H7731019   7.607   7.068   7.334  1.4019  1.7881 -1.6949
   82MOL    C7831020   7.222   6.986   7.586 -0.2093 -0.6562  0.0325
   82MOL    C7931021   7.101   7.009   7.490 -0.4548 -1.2481  0.0290
   82MOL    C8031022   7.083   6.872   7.419 -0.2460  0.4331 -0.1375
   82MOL    C8131023   7.106   6.766   7.536 -1.0861  0.2442 -0.2500
   82MOL    C8231024   7.133   6.622   7.481 -0.0711  0.1831 -0.9355
   82MOL    C8331025   7.175   6.521   7.588  0.5978 -0.2417 -0.3959
   82MOL    C8431026   7.210   6.833   7.619 -0.1532 -0.3045  0.0907
   82MOL    H8531027   7.204   7.042   0.031 -1.3951  0.1981 -0.6897
   82MOL    H8631028   7.011   7.016   7.550 -0.1351 -2.7348  0.7048
   82MOL    H8731029   7.108   7.087   7.415  1.0282 -0.4749  0.9553
   82MOL    H8831030   6.978   6.865   7.393 -0.3618  1.4177  0.0573
   82MOL    H8931031   7.141   6.860   7.327  1.0842  0.6503  0.6565
   82MOL    H9031032   7.024   6.756   7.608 -0.4100 -1.2841  0.3336
   82MOL    H9131033   7.202   6.637   7.398  0.7971  0.1653 -0.2155
   82MOL    H9231034   7.039   6.582   7.442  0.2625 -3.4132  1.6154
   82MOL    H9331035   7.094   6.525   0.013 -0.5369  3.0145 -1.7877
   82MOL    H9431036   7.268   6.559   7.630  0.0701  1.0212 -0.3786
   82MOL    H9531037   7.308   6.787   7.621 -0.0078 -0.0945 -1.3716
   82MOL    H9631038   7.178   6.837   0.076 -1.2476 -1.4689 -0.1917
   82MOL    C9731039   7.193   6.374   7.532  0.9897 -0.5933 -0.4960
   82MOL    C9831040   7.063   6.311   7.489 -0.0862 -0.0793  0.2193
   82MOL    C9931041   7.063   6.165   7.531 -0.2006  0.3845  0.0786
   82MOL   C10031042   7.143   6.174   0.020  0.1014 -0.3789  0.3937
   82MOL   C10131043   7.052   6.198   0.136  0.5164 -0.6732  0.1961
   82MOL   C10231044   6.984   6.064   0.168  0.2408  0.3889 -0.5079
   82MOL   C10331045   7.251   6.281   7.643  0.1541  0.8137  0.1834
   82MOL   H10431046   7.267   6.367   7.451  0.5280  0.8360 -1.0489
   82MOL   H10531047   6.982   6.366   7.538  0.0524  0.4769 -0.1661
   82MOL   H10631048   7.048   6.325   7.382  2.3365 -1.9471 -0.4014
   82MOL   H10731049   6.959   6.134   7.538 -0.3758  0.9432 -0.0156
   82MOL   H10831050   7.107   6.097   7.457 -3.1743 -1.7078  0.1588
   82MOL   H10931051   7.192   6.079   0.039 -0.2021 -0.7924 -0.8464
   82MOL   H11031052   7.120   6.215   0.219  1.3725 -1.0812 -0.4093
   82MOL   H11131053   6.973   6.268   0.111  2.1481  1.0036 -0.3582
   82MOL   H11231054   6.913   6.026   0.095 -0.9009  0.3476  0.6017
   82MOL   H11331055   7.050   5.977   0.170  0.3080  0.4452 -0.0339
   82MOL   H11431056   7.291   6.333   0.082 -0.4605 -1.2755  1.7901
   82MOL   H11531057   7.347   6.243   7.608  0.3424  0.2710  1.2754
   82MOL   C11631058   6.905   6.069   0.302 -0.1469 -0.4976 -0.5181
   82MOL   C11731059   6.774   6.139   0.302 -0.0203 -1.1650  0.1822
   82MOL   C11831060   6.713   6.101   0.429  0.5747 -0.2050  0.0926
   82MOL   C11931061   6.782   5.968   0.483  0.1774  0.9183  0.0292
   82MOL   C12031062   6.675   5.866   0.517  0.2719  0.4651  0.6194
   82MOL   C12131063   6.729   5.749   0.600 -0.0205 -0.2330 -0.5179
   82MOL   C12231064   6.875   5.925   0.364  0.9767  0.6991  0.0935
   82MOL   H12331065   6.966   6.130   0.368 -0.0432 -0.6095 -0.5107
   82MOL   H12431066   6.712   6.095   0.224 -1.7195  2.9957 -0.9654
   82MOL   H12531067   6.776   6.244   0.273  0.5424 -0.8680  1.2605
   82MOL   H12631068   6.607   6.108   0.407  0.4984  1.6906  0.9040
   82MOL   H12731069   6.722   6.172   0.512 -1.1488 -2.2928  2.1460
   82MOL   H12831070   6.840   5.991   0.572 -0.4009  0.0891  0.6261
   82MOL   H12931071   6.630   5.830   0.425  0.4800  0.2239  0.6109
   82MOL   H13031072   6.593   5.909   0.576 -0.5905  1.5186 -1.3030
   82MOL   H13131073   6.747   5.787   0.701 -0.2457 -0.2004 -0.4899
   82MOL   H13231074   6.826   5.716   0.563  1.0407  1.2173  0.9166
   82MOL   H13331075   6.967   5.867   0.378 -0.5205 -1.7784 -0.0611
   82MOL   H13431076   6.812   5.877   0.289 -0.5008  1.6245  0.7228
   82MOL   C13531077   6.624   5.633   0.609  0.3117 -0.2663 -0.3970
   82MOL   C13631078   6.658   5.524   0.701 -0.4664  0.0556  0.1143
   82MOL   C13731079   6.525   5.465   0.735  0.8053  0.1509  0.6158
   82MOL   C13831080   6.403   5.566   0.703 -0.4347 -0.5523 -0.2705
   82MOL   C13931081   6.309   5.498   0.603  0.1564 -0.6168  0.7210
   82MOL   C14031082   6.375   5.461   0.463  0.1478  0.1246  0.1649
   82MOL   C14131083   6.480   5.680   0.651  0.5323  0.6608  0.0303
   82MOL   H14231084   6.624   5.585   0.511 -1.6477  1.9320 -1.5478
   82MOL   H14331085   6.720   5.444   0.660  0.3588  1.1153 -0.7340
   82MOL   H14431086   6.706   5.566   0.789  1.0202 -0.7530 -0.2990
   82MOL   H14531087   6.511   5.363   0.699  1.7866 -0.7825  2.8242
   82MOL   H14631088   6.525   5.445   0.842 -0.0695  0.2399  0.6342
   82MOL   H14731089   6.354   5.595   0.796  1.0795 -1.0944  0.7098
   82MOL   H14831090   6.233   5.571   0.575 -0.4200 -0.9994  1.2754
   82MOL   H14931091   6.259   5.421   0.661  2.6399 -1.8691  1.2621
   82MOL   H15031092   6.428   5.542   0.412  0.7904 -0.3104  0.1301
   82MOL   H15131093   6.445   5.377   0.469 -2.4928 -1.9809  2.3300
   82MOL   H15231094   6.476   5.771   0.711  1.8222  0.8642 -0.1703
   82MOL   H15331095   6.442   5.711   0.553  0.4019  0.1483 -0.0798
   82MOL   C15431096   6.270   5.405   0.362 -0.1995  0.0643  0.2856
   82MOL   C15531097   6.339   5.340   0.240 -0.0927  0.5864 -0.1130
   82MOL   C15631098   6.232   5.354   0.123 -0.2032 -0.3942 -0.1620
   82MOL   C15731099   6.115   5.438   0.179 -1.0758  0.1094 -0.5717
   82MOL   C15831100   6.055   5.526   0.072 -0.7688  0.4403 -0.1178
   82MOL   C15931101   5.908   5.542   0.083  0.4166  0.2864  0.2349
   82MOL   C16031102   6.170   5.503   0.307  0.4951 -0.2060 -0.0044
   82MOL   H16131103   6.216   5.326   0.416 -0.9814 -0.1055 -0.7353
   82MOL   H16231104   6.428   5.399   0.217  1.6425 -1.4052  1.3346
   82MOL   H16331105   6.381   5.240   0.243 -1.3210  0.0882  0.9952
   82MOL   H16431106   6.272   5.398   0.031  0.7374 -0.3068  0.2821
   82MOL   H16531107   6.207   5.249   0.104 -1.2167  0.0345 -1.2898
   82MOL   H16631108   6.043   5.362   0.210 -1.3237  0.1071 -1.1571
   82MOL   H16731109   6.082   5.484   7.622 -1.4566 -0.5591  0.1242
   82MOL   H16831110   6.105   5.623   0.076  2.6660 -1.2747  0.4509
   82MOL   H16931111   5.863   5.444   0.070  0.7595  0.3768 -1.7342
   82MOL   H17031112   5.901   5.556   0.191  0.7406 -1.8589  0.5550
   82MOL   H17131113   6.083   5.517   0.372 -0.0322 -0.1107 -0.7279
   82MOL   H17231114   6.219   5.601   0.300 -0.6893  0.4400  0.5577
   82MOL   C17331115   5.852   5.657   0.011 -0.4940  0.2903  0.6721
   82MOL   C17431116   5.699   5.660   0.005 -0.4668  0.3394  0.2681
   82MOL   C17531117   5.654   5.757   0.119 -0.5150  0.3251  0.0518
   82MOL   C17631118   5.762   5.866   0.114  0.0358  0.4528 -0.6539
   82MOL   C17731119   5.769   5.935   0.247 -0.4909 -0.0647 -0.3458
   82MOL   C17831120   5.640   6.012   0.278 -0.6554  0.5140  0.3671
   82MOL   C17931121   5.891   5.789   0.074  0.0910 -0.0239 -0.0197
   82MOL   H18031122   5.902   5.659   7.562 -0.2897  1.1154  0.7899
   82MOL   H18131123   5.646   5.564   0.000  0.0485  0.0492  0.3400
   82MOL   H18231124   5.673   5.707   7.557  1.4095  1.3379  0.2386
   82MOL   H18331125   5.552   5.794   0.106 -1.1093 -0.2945  2.6891
   82MOL   H18431126   5.665   5.709   0.216  1.2674  3.3374  1.3982
   82MOL   H18531127   5.730   5.932   0.034  0.0537  1.5886  0.2619
   82MOL   H18631128   5.846   6.012   0.249  1.2257 -1.6297 -2.5469
   82MOL   H18731129   5.800   5.870   0.329  0.9317 -0.9525 -1.5537
   82MOL   H18831130   5.553   5.948   0.287 -0.1339  0.0524  2.4539
   82MOL   H18931131   5.615   6.079   0.196 -0.5908  1.6535  1.2465
   82MOL   H19031132   5.938   5.767   0.169  0.7251 -0.2468 -0.3838
   82MOL   H19131133   5.961   5.853   0.020 -0.7897  2.5441  1.7931
   82MOL   C19231134   5.655   6.086   0.412 -0.0093 -0.6810  0.0147
   82MOL   C19331135   5.663   5.998   0.543 -0.8718  0.2305  0.9915
   82MOL   C19431136   5.570   6.071   0.643  0.2037 -0.0658 -0.0089
   82MOL   C19531137   5.467   6.138   0.549 -0.5096  0.3441 -0.1372
   82MOL   C19631138   5.398   6.260   0.610 -0.1054 -0.2033  0.2541
   82MOL   C19731139   5.339   6.223   0.743  0.3580  0.3751  0.6181
   82MOL   C19831140   5.543   6.184   0.425 -0.3306 -0.0666 -0.1587
   82MOL   H19931141   5.743   6.149   0.398 -0.5503  0.3189  1.1029
   82MOL   H20031142   5.602   5.913   0.514 -1.9026  1.2908 -0.0561
   82MOL   H20131143   5.758   5.958   0.577 -0.6093 -1.3374 -1.4763
   82MOL   H20231144   5.637   6.144   0.689 -0.8528  0.2390  1.0628
   82MOL   H20331145   5.537   6.009   0.726 -0.6096 -1.2874 -1.2089
   82MOL   H20431146   5.388   6.072   0.513  0.7050 -0.7795 -0.7745
   82MOL   H20531147   5.315   6.303   0.554  0.0302 -0.4723 -0.1609
   82MOL   H20631148   5.483   6.328   0.620 -0.4328  0.5926 -1.9597
   82MOL   H20731149   5.418   6.206   0.817  1.3670 -1.2324 -0.8014
   82MOL   H20831150   5.284   6.130   0.729  0.7377 -0.0255  1.7313
   82MOL   H20931151   5.598   6.275   0.446  0.0719 -0.1134 -0.9758
   82MOL   H21031152   5.479   6.192   0.337  1.0138  0.3922 -1.0943
   82MOL   C21131153   5.237   6.331   0.792 -0.2257  0.6942  0.6044
   82MOL   C21231154   5.297   6.469   0.813 -0.0568 -0.7352  0.7521
   82MOL   C21331155   5.203   6.525   0.912  0.1998 -0.7641 -0.3640
   82MOL   C21431156   5.109   6.416   0.964 -0.1473 -0.0079 -0.0430
   82MOL   C21531157   5.076   6.420   1.115  0.2512  0.3718  0.6871
   82MOL   C21631158   4.985   6.541   1.129  0.6905 -0.2754 -0.1621
   82MOL   C21731159   5.179   6.292   0.924  0.2442 -0.4012 -0.4461
   82MOL   H21831160   5.153   6.329   0.723  0.5987 -0.1720 -0.3881
   82MOL   H21931161   5.400   6.466   0.849  0.3765 -0.0589 -0.3747
   82MOL   H22031162   5.310   6.518   0.716 -0.6584 -2.9895 -0.5213
   82MOL   H22131163   5.245   6.575   0.999  1.0716 -2.9567  0.4932
   82MOL   H22231164   5.138   6.600   0.866  0.0574  0.3447  1.5893
   82MOL   H22331165   5.015   6.401   0.912  1.2450 -0.0630 -2.6372
   82MOL   H22431166   5.162   6.412   1.181 -0.4625 -0.9784  1.4669
   82MOL   H22531167   5.016   6.331   1.132 -0.1934  0.2818 -1.1919
   82MOL   H22631168   5.039   6.632   1.103 -2.1715  1.8853  1.0505
   82MOL   H22731169   4.902   6.525   1.061  0.0781 -1.1866  0.7857
   82MOL   H22831170   5.109   6.209   0.925 -0.6158  0.3177  0.4473
   82MOL   H22931171   5.260   6.271   0.994 -1.2029 -1.5712  0.9145
   82MOL   C23031172   4.942   6.562   1.274  0.5993  0.5630  0.3471
   82MOL   C23131173   4.918   6.447   1.368  0.0252  0.1156 -0.2821
   82MOL   C23231174   4.839   6.508   1.480  0.3836  0.7700 -0.6326
   82MOL   C23331175   4.755   6.624   1.421  0.2414  0.7599 -0.6416
   82MOL   C23431176   4.754   6.756   1.501  0.1432  0.8825 -0.2339
   82MOL   C23531177   4.649   6.868   1.466 -0.0707 -0.6778  0.6339
   82MOL   C23631178   4.807   6.637   1.275 -0.1897 -0.1266  0.6063
   82MOL   H23731179   5.002   6.636   1.327  1.5874 -1.5829  2.3302
   82MOL   H23831180   4.852   6.375   1.319  0.5897 -0.1100 -0.7302
   82MOL   H23931181   5.006   6.392   1.403 -0.9602 -1.3888 -0.0845
   82MOL   H24031182   4.905   6.550   1.555  1.6715 -2.3381  0.0597
   82MOL   H24131183   4.781   6.430   1.530 -0.2776  0.4384 -1.8938
   82MOL   H24231184   4.649   6.596   1.420 -0.1776  2.1417  1.2180
   82MOL   H24331185   4.860   6.781   1.503 -0.0625  1.8940 -1.4589
   82MOL   H24431186   4.731   6.740   1.606  0.0355  0.1066 -0.3775
   82MOL   H24531187   4.660   6.961   1.522  0.0128 -0.0806 -0.3570
   82MOL   H24631188   4.665   6.884   1.359 -2.5396 -0.2299  0.2993
   82MOL   H24731189   4.824   6.742   1.251 -0.6019  0.2238  1.8113
   82MOL   H24831190   4.736   6.590   1.207 -0.1406  0.2636  0.2828
   82MOL   C24931191   4.504   6.829   1.490  0.1267 -0.6428 -0.8470
   82MOL   C25031192   4.467   6.824   1.641 -0.0061  0.1105  1.3390
   82MOL   C25131193   4.358   6.919   1.667 -0.4929 -0.0194  0.7663
   82MOL   C25231194   4.301   6.969   1.529  0.1565  0.3206  0.5263
   82MOL   C25331195   4.167   6.918   1.484 -0.3056  0.7202 -0.4352
   82MOL   C25431196   4.076   7.008   1.400  0.3267 -0.7495  0.1398
   82MOL   C25531197   4.411   6.937   1.432  0.1795 -0.5385 -0.5132
   82MOL   H25631198   4.479   6.728   1.456  0.9486 -1.4322  0.8025
   82MOL   H25731199   4.432   6.726   1.674 -0.0648 -0.2700  0.1612
   82MOL   H25831200   4.557   6.856   1.694 -0.0601  1.7424  0.4718
   82MOL   H25931201   4.383   7.008   1.724  0.2568  1.3673 -1.6563
   82MOL   H26031202   4.282   6.873   1.731 -1.4940 -2.0215 -1.7591
   82MOL   H26131203   4.297   7.075   1.555  0.5505  0.7335 -1.0027
   82MOL   H26231204   4.115   6.907   1.579  1.5642 -1.1452  0.4206
   82MOL   H26331205   4.171   6.817   1.444  0.9920  0.6044 -0.0421
   82MOL   H26431206   4.125   7.033   1.306  2.2349 -0.6389  1.1442
   82MOL   H26531207   4.055   7.103   1.450 -0.0425 -0.5796 -0.3295
   82MOL   H26631208   4.460   7.034   1.420 -3.5381  1.4222 -0.7067
   82MOL   H26731209   4.365   6.903   1.339  0.0696  1.0886 -1.0673
   82MOL   C26831210   3.944   6.934   1.368 -0.0602  0.5108 -0.5129
   82MOL   C26931211   3.870   7.007   1.253  0.0959 -0.2640 -0.0329
   82MOL   C27031212   3.717   6.994   1.278  0.5711 -0.1010 -0.3065
   82MOL   C27131213   3.698   6.950   1.428 -0.1184 -0.2765 -0.6841
   82MOL   C27231214   3.620   7.054   1.511 -0.1849  0.4165 -0.0350
   82MOL   C27331215   3.462   7.056   1.485  0.6683 -0.0075  0.0577
   82MOL   C27431216   3.844   6.929   1.486  0.7162 -0.3198  0.0543
   82MOL   H27531217   3.961   6.834   1.329  1.8035  0.0158  1.4487
   82MOL   H27631218   3.897   7.112   1.246 -3.6763  0.7440 -0.8250
   82MOL   H27731219   3.897   6.962   1.157 -1.3562  0.3769 -0.7534
   82MOL   H27831220   3.661   7.086   1.264  0.7129  0.4952  2.6354
   82MOL   H27931221   3.664   6.930   1.207  0.5386 -0.2371 -0.1609
   82MOL   H28031222   3.637   6.860   1.421 -0.8382  0.0871  0.7668
   82MOL   H28131223   3.646   7.154   1.476 -0.3317  0.6255  0.4523
   82MOL   H28231224   3.649   7.052   1.616 -2.3909 -0.1704  0.5956
   82MOL   H28331225   3.436   7.075   1.381  3.3023 -4.0832 -1.4862
   82MOL   H28431226   3.420   6.957   1.499 -1.2462  0.6344 -1.0498
   82MOL   H28531227   3.866   7.010   1.556  0.5236 -0.2483  0.0326
   82MOL   H28631228   3.855   6.841   1.550  3.0516  0.4224  0.7258
   82MOL   C28731229   3.392   7.162   1.569  0.2080  0.2475  0.4035
   82MOL   C28831230   3.241   7.177   1.533 -0.5363  0.1936  0.1404
   82MOL   C28931231   3.192   7.271   1.642 -0.0979  0.2537  0.2467
   82MOL   C29031232   3.253   7.228   1.775 -0.2347  0.4247  0.9736
   82MOL   C29131233   3.154   7.150   1.864 -0.2783 -0.2546 -0.3510
   82MOL   C29231234   3.219   7.113   1.997  0.4244  0.2232  0.8445
   82MOL   C29331235   3.381   7.146   1.723  0.7565 -0.4135  0.2354
   82MOL   H29431236   3.433   7.259   1.540 -0.7129  0.5012 -0.1046
   82MOL   H29531237   3.229   7.225   1.436 -1.7616 -0.4372 -0.0305
   82MOL   H29631238   3.183   7.085   1.534  0.7132 -0.6105  1.0591
   82MOL   H29731239   3.085   7.252   1.648  0.0791 -0.5025  1.0358
   82MOL   H29831240   3.205   7.377   1.619 -0.3925 -0.2345 -2.3299
   82MOL   H29931241   3.286   7.315   1.831  0.7902 -0.8808  2.4448
   82MOL   H30031242   3.133   7.058   1.809  0.4766  0.2695 -1.5099
   82MOL   H30131243   3.065   7.209   1.890  0.8808  1.8548 -1.0971
   82MOL   H30231244   3.252   7.197   2.059  0.8593  1.2753 -0.7736
   82MOL   H30331245   3.309   7.051   1.988  1.9093  1.9593  2.9565
   82MOL   H30431246   3.381   7.042   1.754  0.0296 -0.0503  1.4836
   82MOL   H30531247   3.463   7.184   1.784  0.1118  1.0189  0.2316
   82MOL   C30631248   3.130   7.018   2.082 -0.4476 -0.7348  0.0150
   82MOL   C30731249   3.134   6.867   2.045  0.2043 -0.1883 -0.3482
   82MOL   C30831250   3.141   6.795   2.179 -0.5359 -0.8135  0.0989
   82MOL   C30931251   3.129   6.902   2.289 -0.4241  0.1517 -0.3657
   82MOL   C31031252   3.201   6.871   2.421  0.1747 -0.5302  0.5444
   82MOL   C31131253   3.157   6.742   2.487 -0.3104 -0.5035  0.4357
   82MOL   C31231254   3.173   7.029   2.223 -0.5885 -0.1448 -0.3659
   82MOL   H31331255   3.028   7.056   2.080 -0.5205 -1.0248 -1.9800
   82MOL   H31431256   3.044   6.842   1.989  1.3750 -2.7055 -1.2060
   82MOL   H31531257   3.217   6.843   1.978  0.6577  0.8235 -0.1662
   82MOL   H31631258   3.065   6.718   2.192 -1.2850  0.0159  0.6178
   82MOL   H31731259   3.241   6.750   2.181 -0.1502  0.0002 -0.6815
   82MOL   H31831260   3.023   6.909   2.310 -0.5103  0.6019 -0.9218
   82MOL   H31931261   3.309   6.874   2.405 -0.0139 -0.1201 -0.6638
   82MOL   H32031262   3.171   6.947   2.493  0.0715  0.9983 -1.0916
   82MOL   H32131263   3.100   6.674   2.423 -0.9995  1.1412 -0.7336
   82MOL   H32231264   3.089   6.763   2.569  2.3300 -1.4711  2.9558
   82MOL   H32331265   3.281   7.028   2.230 -0.7033  0.1104  1.6465
   82MOL   H32431266   3.144   7.121   2.273 -2.3884 -0.8117 -0.1186
   82MOL   C32531267   3.280   6.679   2.556 -0.3870  0.0404 -0.2473
   82MOL   C32631268   3.232   6.545   2.623 -0.3810 -0.3905  0.3626
   82MOL   C32731269   3.354   6.449   2.623  0.8411 -0.1391 -0.0184
   82MOL   C32831270   3.397   6.470   2.483 -0.0438  0.7757  0.9921
   82MOL   C32931271   3.534   6.413   2.473  0.9992 -0.1922  0.3897
   82MOL   C33031272   3.586   6.428   2.330 -0.1512  0.7142  0.2599
   82MOL   C33131273   3.378   6.623   2.452 -0.2707 -0.5501  0.0704
   82MOL   H33231274   3.316   6.757   2.624  1.3167 -0.3414 -0.6785
   82MOL   H33331275   3.151   6.491   2.574 -1.4342 -0.3309  2.0168
   82MOL   H33431276   3.193   6.565   2.722 -0.2828 -3.5740  1.0918
   82MOL   H33531277   3.426   6.500   2.686 -0.5735 -0.5176  1.9472
   82MOL   H33631278   3.345   6.345   2.653 -1.7731  0.2999  0.8382
   82MOL   H33731279   3.333   6.405   2.423 -0.7620  1.2450  1.2451
   82MOL   H33831280   3.604   6.452   2.548  2.3787  0.2503 -1.1016
   82MOL   H33931281   3.535   6.307   2.498  0.2639 -0.0351  1.1013
   82MOL   H34031282   3.516   6.402   2.251  0.1750  1.3982 -0.2644
   82MOL   H34131283   3.603   6.534   2.311  1.9449  0.8092  2.4877
   82MOL   H34231284   3.343   6.653   2.354 -0.2925  2.0963  0.8385
   82MOL   H34331285   3.473   6.669   2.481 -0.1630  0.3897 -1.7394
   82MOL   C34431286   3.714   6.353   2.303  0.0234 -0.1624  0.1484
   82MOL   C34531287   3.764   6.373   2.154  0.5382  0.1258  0.0689
   82MOL   C34631288   3.786   6.234   2.092  0.0862 -0.6167  0.5287
   82MOL   C34731289   3.715   6.134   2.183 -0.2168 -0.5741 -0.0563
   82MOL   C34831290   3.784   5.999   2.191 -0.4214 -0.3627 -0.7834
   82MOL   C34931291   3.819   5.936   2.062  0.3469 -0.2722 -0.3125
   82MOL   C35031292   3.701   6.200   2.321  0.7820 -0.2331  0.3565
   82MOL   H35131293   3.790   6.392   2.370 -0.9054  2.1116 -0.0493
   82MOL   H35231294   3.848   6.442   2.153  0.9117 -0.3184  0.9717
   82MOL   H35331295   3.681   6.416   2.097 -0.8310  0.4840  2.2697
   82MOL   H35431296   3.746   6.219   1.992  1.1944  2.5868 -0.4515
   82MOL   H35531297   3.894   6.217   2.089 -0.0037 -1.0513 -0.3574
   82MOL   H35631298   3.616   6.116   2.142 -0.5243 -0.5472  0.6576
   82MOL   H35731299   3.874   6.013   2.250 -1.4641 -1.6161  1.1618
   82MOL   H35831300   3.720   5.928   2.242  1.2694 -1.2775  0.1012
   82MOL   H35931301   3.889   6.006   2.017  1.2511  0.1494  1.7032
   82MOL   H36031302   3.727   5.925   2.004  0.6036  0.7539 -0.9207
   82MOL   H36131303   3.611   6.168   2.374  0.5701  1.8420  1.3000
   82MOL   H36231304   3.786   6.164   2.379  0.9127  0.7186  0.7708
   82MOL   C36331305   3.896   5.806   2.064 -0.0526 -0.7922 -0.6692
   82MOL   C36431306   3.982   5.789   1.948 -0.8885  0.0061  0.1825
   82MOL   C36531307   3.987   5.634   1.921  0.0377 -0.0236  0.2471
   82MOL   C36631308   3.916   5.572   2.037  0.1355 -0.6564 -0.0430
   82MOL   C36731309   3.872   5.425   2.007  0.1325  1.3915 -0.7341
   82MOL   C36831310   3.821   5.354   2.128 -0.1389 -0.1079 -0.2653
   82MOL   C36931311   3.815   5.674   2.085  0.1386 -0.2294 -0.0112
   82MOL   H37031312   3.956   5.831   2.151 -0.7581  0.2425 -0.4678
   82MOL   H37131313   3.943   5.841   1.861  0.2880 -0.0334 -0.3855
   82MOL   H37231314   4.083   5.822   1.972 -1.4418  1.7319  0.2025
   82MOL   H37331315   3.942   5.608   1.826 -0.7788 -1.1823  0.9405
   82MOL   H37431316   4.090   5.603   1.909  0.5736  1.5417  0.6136
   82MOL   H37531317   3.991   5.562   2.116  0.5820 -0.5304 -0.4522
   82MOL   H37631318   3.799   5.409   1.927  0.0663 -2.9963  0.0475
   82MOL   H37731319   3.957   5.365   1.976  0.5368  1.3191  0.4671
   82MOL   H37831320   3.735   5.397   2.179  0.3938 -1.4952  1.8787
   82MOL   H37931321   3.899   5.349   2.204  0.6861 -1.4417 -1.1786
   82MOL   H38031322   3.734   5.665   2.012  1.6067  1.9591 -1.9879
   82MOL   H38131323   3.777   5.653   2.185 -0.5420  2.0694  0.2461
   82MOL   H38231324   3.796   5.252   2.099  1.0067 -1.0480  1.8723
   83MOL     C131325   5.253   7.220   5.835  0.3320  0.2638 -0.2678
   83MOL     C231326   5.313   7.277   5.709  0.7483  0.2100 -0.0801
   83MOL     C331327   5.215   7.244   5.591 -0.2860  0.8950  0.0021
   83MOL     C431328   5.106   7.148   5.643 -0.3459  1.0051 -0.3299
   83MOL     C531329   5.142   6.997   5.630  0.3048  0.6309 -0.1342
   83MOL     C631330   5.137   6.947   5.483 -0.9010 -0.8375 -0.6961
   83MOL     C731331   5.105   7.177   5.797  0.4517  0.1750  0.1839
   83MOL     H831332   5.311   7.128   5.840 -1.3829 -0.8547 -0.6756
   83MOL     H931333   5.406   7.221   5.698  0.6563 -0.2399  1.2869
   83MOL    H1031334   5.327   7.384   5.715 -0.6920  0.3099  2.5842
   83MOL    H1131335   5.180   7.335   5.543 -0.0142  0.8376 -0.3017
   83MOL    H1231336   5.286   7.195   5.525  2.3488  0.1621  3.2344
   83MOL    H1331337   5.006   7.169   5.605 -0.4563  0.8387 -0.1349
   83MOL    H1431338   5.235   6.973   5.681 -1.5491 -2.3333  2.0618
   83MOL    H1531339   5.063   6.940   5.681 -0.4031 -0.0121 -1.8815
   83MOL    H1631340   5.040   6.968   5.438 -0.1582 -1.4349 -2.6010
   83MOL    H1731341   5.215   7.003   5.432 -1.3111  0.4577  0.0713
   83MOL    H1831342   5.038   7.257   5.829 -1.1360 -0.4429 -1.4868
   83MOL    H1931343   5.074   7.098   5.866 -0.8553  0.4509 -0.0825
   83MOL    H2031344   5.262   7.277   5.928  0.4641 -1.1072  0.5870
   83MOL    C2131345   5.171   6.796   5.475 -0.3792 -0.0775  0.2238
   83MOL    C2231346   5.072   6.708   5.551  0.0759 -0.6388 -0.2746
   83MOL    C2331347   5.030   6.593   5.455  0.0868 -0.0387 -0.1258
   83MOL    C2431348   5.142   6.587   5.342  0.1826 -0.6100 -0.8253
   83MOL    C2531349   5.103   6.533   5.207  0.0671  0.0495  0.4199
   83MOL    C2631350   5.136   6.385   5.192 -0.3655  0.8281  0.0561
   83MOL    C2731351   5.183   6.736   5.332 -0.1553  0.3131  0.1395
   83MOL    H2831352   5.265   6.788   5.529  0.6876 -0.2552 -1.6102
   83MOL    H2931353   5.127   6.668   5.636 -0.7117 -1.4417 -0.1249
   83MOL    H3031354   4.982   6.755   5.591 -0.2418  0.3878 -2.1464
   83MOL    H3131355   5.020   6.496   5.503 -0.1906 -0.2761 -0.6580
   83MOL    H3231356   4.933   6.613   5.410 -0.8913 -1.2689  1.3886
   83MOL    H3331357   5.219   6.529   5.392  0.4340 -0.3597 -0.9209
   83MOL    H3431358   5.147   6.599   5.132 -0.5268  0.0315  0.0531
   83MOL    H3531359   4.997   6.540   5.181 -0.0349 -0.7787  0.6003
   83MOL    H3631360   5.245   6.382   5.190 -0.3981 -0.5745 -0.8216
   83MOL    H3731361   5.118   6.345   5.092  0.5560  0.2903  0.1003
   83MOL    H3831362   5.282   6.762   5.295  0.1748 -1.8396 -0.5432
   83MOL    H3931363   5.109   6.793   5.276 -1.3270  1.1433  2.4420
   83MOL    C4031364   5.052   6.287   5.276 -0.2513  0.4371  0.0424
   83MOL    C4131365   4.906   6.261   5.233  0.1378  0.6537  0.0279
   83MOL    C4231366   4.893   6.108   5.247 -0.1751 -0.4372  0.3752
   83MOL    C4331367   5.032   6.062   5.202  0.9311 -0.2712 -0.5365
   83MOL    C4431368   5.059   5.917   5.226  0.1497  0.0206 -0.4239
   83MOL    C4531369   4.978   5.844   5.120  1.0494  0.5991 -0.5503
   83MOL    C4631370   5.116   6.150   5.286  0.7639  0.5813  0.1457
   83MOL    H4731371   5.047   6.329   5.376 -0.1066  0.3725  0.0770
   83MOL    H4831372   4.897   6.276   5.125 -0.5922 -1.2580 -0.2042
   83MOL    H4931373   4.833   6.325   5.283 -1.1185 -0.4156 -0.4017
   83MOL    H5031374   4.870   6.076   5.348 -0.6721 -2.7439 -0.4418
   83MOL    H5131375   4.807   6.068   5.193  1.1656 -1.4388 -1.1078
   83MOL    H5231376   5.037   6.096   5.098  0.6408 -3.6086 -1.7158
   83MOL    H5331377   5.164   5.894   5.208  1.0328  1.3329  2.8188
   83MOL    H5431378   5.044   5.891   5.330 -1.6111  0.2686 -0.6070
   83MOL    H5531379   5.011   5.873   5.021 -0.7714  3.0530 -0.5030
   83MOL    H5631380   4.873   5.874   5.123  1.4895  2.3188 -1.6207
   83MOL    H5731381   5.128   6.111   5.387 -2.6298 -1.3807 -0.1389
   83MOL    H5831382   5.214   6.133   5.242  1.5820  0.6088  1.8829
   83MOL    C5931383   5.004   5.695   5.130 -0.2477  0.0997  0.1604
   83MOL    C6031384   4.907   5.608   5.051 -0.5251  0.1481 -0.1879
   83MOL    C6131385   4.977   5.474   5.057  0.0229 -0.1924 -0.4796
   83MOL    C6231386   5.126   5.500   5.031  0.0995 -0.2592  0.0791
   83MOL    C6331387   5.206   5.396   5.095 -0.0093  0.2301  0.1684
   83MOL    C6431388   5.358   5.407   5.061 -0.0050 -0.1463 -1.1083
   83MOL    C6531389   5.140   5.648   5.077 -0.1624  0.4735  0.7256
   83MOL    H6631390   4.997   5.670   5.236  0.7537 -0.5188  0.0817
   83MOL    H6731391   4.807   5.610   5.094  0.4529 -2.3734  2.3518
   83MOL    H6831392   4.902   5.640   4.947 -0.6139  0.1431 -0.1856
   83MOL    H6931393   4.959   5.431   5.156 -2.9783 -1.3533 -1.4961
   83MOL    H7031394   4.952   5.394   4.988 -1.0815 -1.4270  1.3136
   83MOL    H7131395   5.132   5.479   4.924  1.2681  1.1267 -0.1428
   83MOL    H7231396   5.166   5.297   5.077  0.6145 -0.2877  1.5623
   83MOL    H7331397   5.191   5.406   5.202  0.7595 -1.9054  0.4845
   83MOL    H7431398   5.386   5.425   4.957  3.4797  0.7091 -0.0957
   83MOL    H7531399   5.399   5.485   5.126 -1.1044  0.1457 -0.7642
   83MOL    H7631400   5.219   5.664   5.151 -1.8136 -0.0604  2.6714
   83MOL    H7731401   5.172   5.696   4.985 -2.3528 -1.9708 -1.4262
   83MOL    C7831402   5.427   5.275   5.111  0.0415  0.8923 -0.2078
   83MOL    C7931403   5.574   5.267   5.059  0.2056 -0.1617  0.0273
   83MOL    C8031404   5.655   5.332   5.173  0.1417 -0.5788  0.7517
   83MOL    C8131405   5.588   5.290   5.296 -0.7200  0.0909 -0.0792
   83MOL    C8231406   5.607   5.402   5.406 -0.3188  0.1069  0.0534
   83MOL    C8331407   5.758   5.411   5.440  0.5254 -0.4378  0.6270
   83MOL    C8431408   5.438   5.277   5.262  0.5037 -0.5765 -0.2270
   83MOL    H8531409   5.373   5.184   5.085  0.7104  0.1202  1.0713
   83MOL    H8631410   5.596   5.161   5.049  0.3991 -0.1705  0.5347
   83MOL    H8731411   5.594   5.320   4.966 -0.9005  1.3329  0.6137
   83MOL    H8831412   5.758   5.294   5.167  0.7310  0.8324  1.6534
   83MOL    H8931413   5.648   5.439   5.157 -0.8489 -0.8230 -0.5044
   83MOL    H9031414   5.625   5.191   5.324  2.4344  1.5111  0.9891
   83MOL    H9131415   5.548   5.373   5.493  0.0027 -1.7687 -0.3449
   83MOL    H9231416   5.573   5.503   5.384 -0.8076 -0.7028 -3.0604
   83MOL    H9331417   5.811   5.421   5.346 -1.1318  2.6911 -0.0537
   83MOL    H9431418   5.806   5.320   5.478  1.1126  0.0949  1.1823
   83MOL    H9531419   5.387   5.364   5.302 -1.5361 -2.5219  1.5172
   83MOL    H9631420   5.385   5.194   5.308 -1.7426  2.5253  2.9903
   83MOL    C9731421   5.794   5.521   5.537  0.5759  0.5248 -0.2126
   83MOL    C9831422   5.942   5.562   5.554  0.3867 -1.1102  0.2343
   83MOL    C9931423   5.946   5.646   5.677 -0.5292 -0.1682  0.8807
   83MOL   C10031424   5.835   5.585   5.768  0.6248 -0.3176 -0.3348
   83MOL   C10131425   5.882   5.528   5.897  0.4004  0.1421 -0.6633
   83MOL   C10231426   5.771   5.527   6.004 -0.2097  0.1320  0.8124
   83MOL   C10331427   5.751   5.491   5.677  0.2198 -0.7158 -0.6186
   83MOL   H10431428   5.747   5.613   5.502 -1.5672 -0.7740 -0.8119
   83MOL   H10531429   6.006   5.474   5.563  0.4591 -1.1412 -0.5547
   83MOL   H10631430   5.980   5.615   5.467 -1.5542 -0.1871 -0.0723
   83MOL   H10731431   6.049   5.646   5.714 -0.3607  1.9172  0.4628
   83MOL   H10831432   5.908   5.747   5.662  0.1371  0.1167  1.0732
   83MOL   H10931433   5.763   5.665   5.786  0.0203 -1.1290  0.9604
   83MOL   H11031434   5.925   5.431   5.872  3.9274  2.0080 -1.9874
   83MOL   H11131435   5.965   5.582   5.940  0.7775 -1.6017  0.8846
   83MOL   H11231436   5.754   5.634   6.014 -2.3716  0.0158 -1.0575
   83MOL   H11331437   5.679   5.482   5.966 -1.1806 -0.2835  3.5369
   83MOL   H11431438   5.788   5.390   5.696 -1.9990 -1.0726  1.9400
   83MOL   H11531439   5.645   5.500   5.699  0.1624 -0.1147 -1.1439
   83MOL   C11631440   5.803   5.470   6.140 -0.2690  0.5755 -0.7466
   83MOL   C11731441   5.706   5.483   6.257  0.9172 -0.3139  0.7181
   83MOL   C11831442   5.749   5.367   6.354 -0.1742  0.3274  0.4138
   83MOL   C11931443   5.846   5.268   6.280  0.3314  0.3933  0.3023
   83MOL   C12031444   5.819   5.112   6.305 -0.9741 -0.4711 -0.1829
   83MOL   C12131445   5.946   5.033   6.270  0.2447  0.2651 -0.8742
   83MOL   C12231446   5.840   5.313   6.141  1.0260  0.1528 -0.1410
   83MOL   H12331447   5.899   5.510   6.173  0.4197 -1.4952 -0.1824
   83MOL   H12431448   5.607   5.461   6.217  0.0347  2.1977  1.4341
   83MOL   H12531449   5.720   5.584   6.295  0.2858 -0.1407  0.5023
   83MOL   H12631450   5.669   5.305   6.395 -1.3690  2.3933  1.2676
   83MOL   H12731451   5.808   5.417   6.431  2.3541  0.2071 -1.4127
   83MOL   H12831452   5.947   5.287   6.318 -0.0959  3.3924  0.1033
   83MOL   H12931453   5.730   5.083   6.249 -2.9622  1.0394  2.0723
   83MOL   H13031454   5.797   5.113   6.412 -0.6559  1.2697 -0.1129
   83MOL   H13131455   5.981   5.080   6.179 -1.1861 -0.5258 -1.8599
   83MOL   H13231456   5.917   4.931   6.243  1.7947 -0.6858  0.9074
   83MOL   H13331457   5.933   5.288   6.089  1.9324 -1.3604  2.1256
   83MOL   H13431458   5.760   5.259   6.090 -0.6320  2.7718 -0.3844
   83MOL   C13531459   6.050   5.030   6.383 -0.4927  0.0624  0.2322
   83MOL   C13631460   6.019   4.931   6.499  0.6192  0.0817 -0.3066
   83MOL   C13731461   6.127   4.826   6.492  0.0507 -0.8329  0.1732
   83MOL   C13831462   6.202   4.844   6.354  0.4242 -0.2671  0.0751
   83MOL   C13931463   6.339   4.785   6.344 -0.3103  0.1750 -0.0450
   83MOL   C14031464   6.394   4.751   6.206 -0.4936 -0.4083  0.2798
   83MOL   C14131465   6.188   4.993   6.316 -0.2282  0.3527 -0.2581
   83MOL   H14231466   6.055   5.130   6.428 -1.3432 -0.0516  0.5902
   83MOL   H14331467   6.026   4.984   6.594  2.1612  2.3059 -1.6032
   83MOL   H14431468   5.922   4.886   6.476  0.3424  1.7471 -2.6068
   83MOL   H14531469   6.192   4.828   6.580  0.8174  0.2273 -0.3961
   83MOL   H14631470   6.080   4.728   6.487 -1.6514 -0.1112  1.5854
   83MOL   H14731471   6.134   4.807   6.278  1.9365  0.0573 -1.4529
   83MOL   H14831472   6.357   4.712   6.423  0.4898 -2.0692 -2.2436
   83MOL   H14931473   6.410   4.862   6.376  0.4235 -1.7841  3.2535
   83MOL   H15031474   6.332   4.675   6.159 -0.3594  0.6043 -1.5926
   83MOL   H15131475   6.380   4.840   6.144 -0.9222 -0.6042  0.0970
   83MOL   H15231476   6.199   5.003   6.208 -0.8156  2.1163 -0.1627
   83MOL   H15331477   6.270   5.051   6.359 -0.9365  0.1839  1.3390
   83MOL   C15431478   6.543   4.723   6.202 -0.3104  0.4269 -0.2403
   83MOL   C15531479   6.597   4.695   6.063 -0.2152  0.4242  0.4040
   83MOL   C15631480   6.724   4.610   6.083 -0.0333  0.1649 -0.2214
   83MOL   C15731481   6.689   4.529   6.214  0.2176 -0.1806 -0.4892
   83MOL   C15831482   6.655   4.381   6.177  0.0095  1.3287 -0.5154
   83MOL   C15931483   6.638   4.285   6.299  0.1626 -0.2215  0.0360
   83MOL   C16031484   6.583   4.603   6.294  0.3349 -0.0980 -0.6425
   83MOL   H16131485   6.599   4.799   6.257 -1.5441  0.8928  0.4018
   83MOL   H16231486   6.532   4.632   6.003  0.9138 -0.5863  0.2452
   83MOL   H16331487   6.626   4.795   6.029 -0.0460  0.8141  1.6746
   83MOL   H16431488   6.750   4.539   6.005 -2.1602  2.8239 -3.4669
   83MOL   H16531489   6.805   4.675   6.118  0.8589 -1.8533  1.5220
   83MOL   H16631490   6.776   4.528   6.280  0.6057 -2.9086 -0.9618
   83MOL   H16731491   6.741   4.349   6.118  0.3128  0.1125  0.5580
   83MOL   H16831492   6.568   4.391   6.113  0.3212  0.3014 -1.1155
   83MOL   H16931493   6.725   4.298   6.362 -0.7691  0.1911  1.2508
   83MOL   H17031494   6.561   4.323   6.366  0.8284  3.4817 -1.1930
   83MOL   H17131495   6.622   4.639   6.389  2.3245 -0.3328 -1.3336
   83MOL   H17231496   6.498   4.541   6.322  0.4977 -0.3114 -0.6285
   83MOL   C17331497   6.611   4.134   6.268 -0.2347 -0.6652 -0.2725
   83MOL   C17431498   6.737   4.070   6.208  0.2005 -0.7088 -0.1511
   83MOL   C17531499   6.741   3.923   6.249  1.0146  0.1341  0.3463
   83MOL   C17631500   6.606   3.901   6.329  0.4585  0.2658 -0.5593
   83MOL   C17731501   6.625   3.809   6.451 -0.2312 -0.1526 -0.1289
   83MOL   C17831502   6.494   3.753   6.505 -0.1305  0.1538 -0.4270
   83MOL   C17931503   6.554   4.039   6.369 -0.4512 -0.3579 -0.5272
   83MOL   H18031504   6.536   4.140   6.189  0.9189  1.8281 -1.2123
   83MOL   H18131505   6.825   4.131   6.228  0.2223 -1.0542  0.8112
   83MOL   H18231506   6.729   4.078   6.099 -0.0447 -2.2308 -0.2659
   83MOL   H18331507   6.762   3.852   6.169 -0.5486  0.5492 -0.4396
   83MOL   H18431508   6.820   3.906   6.323 -2.5152 -3.3408  3.5104
   83MOL   H18531509   6.535   3.859   6.259  0.1663 -1.3819  0.7036
   83MOL   H18631510   6.673   3.870   6.527 -0.6388  0.3008 -0.2332
   83MOL   H18731511   6.698   3.731   6.429  0.3585  0.9854 -2.3830
   83MOL   H18831512   6.506   3.656   6.552  1.0441 -1.4793 -3.9466
   83MOL   H18931513   6.425   3.750   6.421  0.2518 -0.2089 -0.7273
   83MOL   H19031514   6.588   4.070   6.468  0.1475  0.2689 -0.9261
   83MOL   H19131515   6.446   4.046   6.354 -0.5198  1.9092  0.7502
   83MOL   C19231516   6.433   3.840   6.617 -0.0672 -0.1546  0.6297
   83MOL   C19331517   6.514   3.849   6.757  0.1057  0.1517  0.4987
   83MOL   C19431518   6.401   3.844   6.860 -0.1755  0.0596 -0.7139
   83MOL   C19531519   6.262   3.875   6.793  0.0790  1.1000 -0.4439
   83MOL   C19631520   6.234   4.018   6.768  0.0200  0.1227  0.7428
   83MOL   C19731521   6.181   4.081   6.894  0.7926 -0.0898 -0.7549
   83MOL   C19831522   6.285   3.807   6.654 -0.0682 -0.2892 -0.1780
   83MOL   H19931523   6.425   3.942   6.578  1.5460 -0.4016 -0.4370
   83MOL   H20031524   6.583   3.765   6.759 -0.8783 -0.7305 -1.1527
   83MOL   H20131525   6.567   3.944   6.752  0.7098 -0.2322 -0.9402
   83MOL   H20231526   6.427   3.902   6.949  2.1595 -1.0375 -0.6469
   83MOL   H20331527   6.389   3.742   6.896 -2.9409  0.1229 -1.3658
   83MOL   H20431528   6.176   3.822   6.835 -0.0500  1.4016 -0.3236
   83MOL   H20531529   6.173   4.033   6.679  1.2510  0.3974 -0.0546
   83MOL   H20631530   6.326   4.067   6.737 -0.3456 -0.4611 -1.3510
   83MOL   H20731531   6.234   4.058   6.986 -3.6391 -3.5753  1.1213
   83MOL   H20831532   6.085   4.029   6.904  2.0131 -2.0813  1.0478
   83MOL   H20931533   6.220   3.830   6.570 -1.0948 -2.7891 -0.1025
   83MOL   H21031534   6.286   3.699   6.668  0.9548 -0.1142  1.2644
   83MOL   C21131535   6.163   4.237   6.889  0.2949  0.1279 -0.3435
   83MOL   C21231536   6.293   4.316   6.889 -0.6182  0.4652  0.3291
   83MOL   C21331537   6.259   4.448   6.952  0.2972 -0.1453  0.0386
   83MOL   C21431538   6.140   4.427   7.051  0.5862  0.5463 -0.0153
   83MOL   C21531539   6.165   4.437   7.199  0.6298 -0.6281  0.4442
   83MOL   C21631540   6.042   4.441   7.283  0.1825 -0.3028 -0.0460
   83MOL   C21731541   6.075   4.293   7.001  0.2733  0.6539 -0.3154
   83MOL   H21831542   6.116   4.258   6.793  0.4940 -3.6854 -1.3266
   83MOL   H21931543   6.369   4.268   6.951 -0.8030 -0.7287 -0.3507
   83MOL   H22031544   6.345   4.326   6.794 -1.7910  1.0154 -0.2603
   83MOL   H22131545   6.344   4.502   6.995 -0.7358  0.2895  1.5888
   83MOL   H22231546   6.223   4.511   6.871 -2.4831  1.9318  2.7218
   83MOL   H22331547   6.075   4.510   7.026  0.7611  0.7119  0.0792
   83MOL   H22431548   6.221   4.529   7.212 -3.0182  1.7807 -0.3022
   83MOL   H22531549   6.243   4.364   7.223  0.9154 -1.3064 -2.3607
   83MOL   H22631550   6.019   4.545   7.262 -2.2764 -1.2798 -2.6021
   83MOL   H22731551   5.967   4.376   7.236  1.0806 -0.7359 -0.8829
   83MOL   H22831552   5.970   4.301   6.972  0.4818  2.0163 -0.7138
   83MOL   H22931553   6.072   4.227   7.088 -0.4545  1.1001  0.0028
   83MOL   C23031554   6.059   4.402   7.433  0.1552  0.1600 -0.0742
   83MOL   C23131555   6.077   4.244   7.444 -0.1768  0.0775  0.1371
   83MOL   C23231556   5.964   4.172   7.518 -0.4103  0.0330 -0.7325
   83MOL   C23331557   5.856   4.286   7.508  0.1378  0.6139  0.0364
   83MOL   C23431558   5.734   4.266   7.600 -1.1461 -0.6858 -0.8646
   83MOL   C23531559   5.758   4.294   0.106 -0.6692  0.2668 -0.8857
   83MOL   C23631560   5.937   4.418   7.516  0.0584 -0.7652 -0.1328
   83MOL   H23731561   6.143   4.462   7.468  0.8709  0.8648 -2.9078
   83MOL   H23831562   6.087   4.203   7.343  0.6696 -0.4639  0.4392
   83MOL   H23931563   6.172   4.226   7.494 -0.8102 -1.8319  0.6922
   83MOL   H24031564   5.991   4.150   7.621 -2.1349 -1.3552 -0.5631
   83MOL   H24131565   5.943   4.075   7.473  0.5623 -0.5938  0.1404
   83MOL   H24231566   5.818   4.273   7.406  0.3769  0.6507 -0.0560
   83MOL   H24331567   5.690   4.167   7.584 -0.2426 -1.0155 -1.3037
   83MOL   H24431568   5.650   4.329   7.571 -1.3455  0.0717  1.2162
   83MOL   H24531569   5.832   4.227   0.150  1.0649  2.1725 -0.8562
   83MOL   H24631570   5.790   4.397   0.118 -2.6158  0.8470 -0.6269
   83MOL   H24731571   5.964   4.454   7.615 -1.2248  0.1257 -0.0979
   83MOL   H24831572   5.882   4.503   7.477  0.0868 -0.8076 -0.2648
   83MOL   C24931573   5.633   4.291   0.190 -0.0480 -0.1383 -0.8539
   83MOL   C25031574   5.558   4.163   0.188  0.0953 -0.2495 -0.0584
   83MOL   C25131575   5.498   4.141   0.327 -0.2333  0.0196 -0.2754
   83MOL   C25231576   5.607   4.189   0.419 -0.3050  0.5780 -0.2350
   83MOL   C25331577   5.582   4.208   0.567  0.6879 -0.5758 -0.4543
   83MOL   C25431578   5.706   4.244   0.650 -0.2813  0.0131  0.3794
   83MOL   C25531579   5.663   4.310   0.343 -0.3443 -0.0531  0.2959
   83MOL   H25631580   5.556   4.362   0.163 -3.1415 -0.8901  5.1291
   83MOL   H25731581   5.487   4.168   0.106  0.9034  0.4088 -0.7246
   83MOL   H25831582   5.629   4.082   0.168  0.6017  0.3066 -0.5637
   83MOL   H25931583   5.477   4.035   0.344  1.7189 -0.3038  0.3299
   83MOL   H26031584   5.404   4.190   0.350 -1.4443 -1.3017 -2.2402
   83MOL   H26131585   5.673   4.102   0.420 -1.9569 -0.6882  1.7342
   83MOL   H26231586   5.530   4.129   0.621  0.2952 -0.1072 -0.1479
   83MOL   H26331587   5.522   4.298   0.575  0.0144 -0.9944 -0.7979
   83MOL   H26431588   5.764   4.328   0.612 -1.7808  0.1767 -1.6579
   83MOL   H26531589   5.778   4.162   0.645  0.6974  0.8860  0.0073
   83MOL   H26631590   5.767   4.325   0.371  0.3694  1.8921 -3.0757
   83MOL   H26731591   5.614   4.401   0.378 -0.0248  0.8108 -1.4266
   83MOL   C26831592   5.675   4.261   0.797 -0.9212  0.3283 -0.0479
   83MOL   C26931593   5.577   4.376   0.815  0.5399  0.0546  0.5797
   83MOL   C27031594   5.600   4.430   0.958 -0.4394  0.0808  0.0350
   83MOL   C27131595   5.722   4.354   1.010 -0.4443  0.3552 -0.6289
   83MOL   C27231596   5.807   4.444   1.107 -0.0151 -0.3152 -0.9644
   83MOL   C27331597   5.735   4.457   1.248 -0.1541 -0.2700 -0.0574
   83MOL   C27431598   5.800   4.292   0.889  0.6297 -0.0674 -0.1527
   83MOL   H27531599   5.624   4.170   0.829 -0.8970  0.3722  0.1152
   83MOL   H27631600   5.601   4.456   0.744 -0.4345  1.1117  1.4241
   83MOL   H27731601   5.472   4.349   0.807  0.6056  0.0437 -0.3821
   83MOL   H27831602   5.632   4.534   0.952  0.4221 -0.2519 -1.5928
   83MOL   H27931603   5.512   4.423   1.022  0.5894  0.3809  1.5013
   83MOL   H28031604   5.696   4.274   1.078  0.7343 -0.2391 -0.8598
   83MOL   H28131605   5.806   4.543   1.062  0.7299 -0.1630 -0.6436
   83MOL   H28231606   5.909   4.406   1.119 -0.0533  0.5188  2.6895
   83MOL   H28331607   5.633   4.494   1.235  0.0704  0.7267  0.9614
   83MOL   H28431608   5.741   4.360   1.296  1.1624 -0.6606 -0.9800
   83MOL   H28531609   5.848   4.364   0.823  0.5082  1.4353  1.3665
   83MOL   H28631610   5.860   4.208   0.924  0.4818 -0.0443  0.1563
   83MOL   C28731611   5.811   4.560   1.326  0.1648 -0.7150  0.2058
   83MOL   C28831612   5.730   4.614   1.442 -0.1256 -0.2443 -0.0729
   83MOL   C28931613   5.834   4.676   1.531  0.0323  0.1968  0.8155
   83MOL   C29031614   5.949   4.571   1.535 -0.2832 -0.3757  0.1243
   83MOL   C29131615   5.935   4.482   1.669  0.5142  0.1159 -0.1797
   83MOL   C29231616   6.042   4.369   1.678  0.3406  0.1678  0.0179
   83MOL   C29331617   5.935   4.505   1.398 -0.4267  0.1730 -0.5140
   83MOL   H29431618   5.846   4.646   1.268 -2.0344  0.0659 -0.0179
   83MOL   H29531619   5.669   4.695   1.401  0.2019 -0.5628 -1.1913
   83MOL   H29631620   5.664   4.546   1.496  0.8996 -1.3814 -0.2291
   83MOL   H29731621   5.795   4.708   1.627  0.8887 -0.6291  1.4362
   83MOL   H29831622   5.870   4.765   1.478 -0.5631 -0.9703 -1.6315
   83MOL   H29931623   6.046   4.620   1.534 -0.4345 -0.0517  0.7262
   83MOL   H30031624   5.831   4.449   1.667  0.6699 -0.3214 -1.9123
   83MOL   H30131625   5.942   4.544   1.759 -0.4611 -1.2076  0.8321
   83MOL   H30231626   6.140   4.415   1.672  0.1198  0.6182 -0.1466
   83MOL   H30331627   6.044   4.312   1.585 -1.5732  0.4740 -0.2314
   83MOL   H30431628   5.929   4.396   1.398 -2.0416  0.2535  0.2130
   83MOL   H30531629   6.025   4.528   1.342 -0.2139 -1.0545 -0.6944
   83MOL   C30631630   6.028   4.274   1.794 -1.2480  0.4980  0.3973
   83MOL   C30731631   5.905   4.179   1.797  0.6691  0.1092  0.2725
   83MOL   C30831632   5.941   4.061   1.877  0.2919  0.6798 -0.5489
   83MOL   C30931633   6.099   4.063   1.887 -0.4399 -0.1829  0.1104
   83MOL   C31031634   6.143   3.927   1.838 -0.1661  0.0434  0.3000
   83MOL   C31131635   6.115   3.813   1.933 -0.4254  0.7175  0.1375
   83MOL   C31231636   6.150   4.183   1.805  0.3486 -0.4488  0.0095
   83MOL   H31331637   6.027   4.338   1.882 -1.4151 -1.2516  1.6852
   83MOL   H31431638   5.818   4.232   1.835  1.0126  1.8731 -1.3133
   83MOL   H31531639   5.888   4.160   1.691 -2.9956  0.0994  0.8005
   83MOL   H31631640   5.909   4.064   1.981  0.2670 -3.2014 -0.3712
   83MOL   H31731641   5.911   3.978   1.813  1.1647  1.6162 -2.1982
   83MOL   H31831642   6.132   4.090   1.987  1.4871  0.4934 -0.7035
   83MOL   H31931643   6.105   3.914   1.737 -2.0781  0.1273  0.9861
   83MOL   H32031644   6.252   3.926   1.829 -0.3040 -0.1055 -1.4595
   83MOL   H32131645   6.009   3.810   1.958  0.3450 -0.2667  3.5424
   83MOL   H32231646   6.163   3.822   2.031  0.4655 -2.8278  0.0726
   83MOL   H32331647   6.193   4.145   1.713 -0.4148 -2.2923  0.3906
   83MOL   H32431648   6.226   4.237   1.861 -0.3898  1.2781 -0.6028
   83MOL   C32531649   6.152   3.674   1.870 -0.6153  0.1901 -0.0746
   83MOL   C32631650   6.107   3.553   1.949 -0.0659 -0.8702  0.8011
   83MOL   C32731651   6.133   3.443   1.850 -0.0666 -0.1866  0.3639
   83MOL   C32831652   6.099   3.498   1.706  0.5254 -0.3341 -0.3961
   83MOL   C32931653   6.205   3.452   1.603 -0.4465  0.1654  0.1889
   83MOL   C33031654   6.193   3.308   1.565  0.2626  0.1688  0.1702
   83MOL   C33131655   6.100   3.646   1.726  0.1184  0.3419  0.4824
   83MOL   H33231656   6.260   3.658   1.869 -0.7351 -0.5989 -0.1397
   83MOL   H33331657   6.002   3.566   1.976  0.0526 -1.4015  1.5259
   83MOL   H33431658   6.155   3.533   2.045  1.9402 -1.0889 -0.2313
   83MOL   H33531659   6.239   3.420   1.861  0.5736  1.6234 -1.5430
   83MOL   H33631660   6.072   3.355   1.873 -2.8842  1.7052  0.3900
   83MOL   H33731661   6.005   3.459   1.668 -0.4108  0.6667  0.8620
   83MOL   H33831662   6.203   3.521   1.519 -0.5934  2.5996  2.1450
   83MOL   H33931663   6.306   3.463   1.643 -0.1568 -0.4182 -0.3701
   83MOL   H34031664   6.202   3.251   1.657  2.6503 -1.0596 -0.7812
   83MOL   H34131665   6.096   3.294   1.516  0.0413 -0.5228  0.8088
   83MOL   H34231666   5.994   3.672   1.721  0.2789  0.9433  0.1054
   83MOL   H34331667   6.139   3.702   1.640 -0.9537 -0.8848 -0.8175
   83MOL   C34431668   6.301   3.266   1.462  0.0952  0.0003 -0.6008
   83MOL   C34531669   6.301   3.340   1.334 -0.3066 -0.2908  0.0445
   83MOL   C34631670   6.367   3.246   1.235  0.0369 -0.1046  0.1579
   83MOL   C34731671   6.327   3.108   1.272  0.1122 -0.2381 -0.9118
   83MOL   C34831672   6.432   3.000   1.227  0.2279 -0.0275  0.3519
   83MOL   C34931673   6.410   2.860   1.286 -0.4786  0.1478 -0.0527
   83MOL   C35031674   6.302   3.117   1.427  0.6881 -0.2925 -0.4258
   83MOL   H35131675   6.402   3.287   1.496  0.5809 -0.0391 -1.9532
   83MOL   H35231676   6.353   3.435   1.321  0.6107 -0.3421  2.9949
   83MOL   H35331677   6.202   3.363   1.295 -0.2790 -1.2418 -0.6217
   83MOL   H35431678   6.330   3.258   1.133 -0.3873  0.1264  0.3381
   83MOL   H35531679   6.475   3.260   1.230  0.2338 -1.3793  0.7894
   83MOL   H35631680   6.236   3.085   1.215  0.8269 -2.7481 -1.1217
   83MOL   H35731681   6.448   2.996   1.120  2.0835 -1.4740  0.6475
   83MOL   H35831682   6.524   3.035   1.274 -0.2865 -0.2656  1.5820
   83MOL   H35931683   6.320   2.817   1.243 -0.3006  0.7482 -1.0472
   83MOL   H36031684   6.391   2.875   1.393  0.0559  0.8590 -0.0518
   83MOL   H36131685   6.205   3.069   1.443  0.4352  0.4524  0.3653
   83MOL   H36231686   6.378   3.070   1.489 -0.3462 -1.4034  0.0344
   83MOL   C36331687   6.529   2.765   1.258 -0.3964  0.1692 -0.5692
   83MOL   C36431688   6.560   2.734   1.104 -0.0421 -1.2053  0.2616
   83MOL   C36531689   6.548   2.577   1.096 -1.2206  0.0268  0.7528
   83MOL   C36631690   6.567   2.519   1.232 -0.9684  0.6188 -0.3612
   83MOL   C36731691   6.495   2.382   1.235 -0.3017  0.5106 -0.4169
   83MOL   C36831692   6.554   2.279   1.138  0.1887  0.1615  0.1358
   83MOL   C36931693   6.510   2.625   1.333  0.4547 -0.6537  0.1182
   83MOL   H37031694   6.614   2.813   1.306  0.3363 -0.9165 -0.7650
   83MOL   H37131695   6.490   2.778   1.032 -0.3957  1.2925  2.0442
   83MOL   H37231696   6.662   2.759   1.073 -0.6086 -1.2609 -1.7103
   83MOL   H37331697   6.446   2.555   1.064 -0.8190 -1.5068  0.5094
   83MOL   H37431698   6.626   2.538   1.031 -0.0814 -1.2333  2.8213
   83MOL   H37531699   6.674   2.518   1.252 -1.1522  2.0504  0.7614
   83MOL   H37631700   6.490   2.342   1.336 -0.2398  2.5788  0.4434
   83MOL   H37731701   6.394   2.406   1.201 -0.7900 -1.0119 -0.0760
   83MOL   H37831702   6.660   2.271   1.163  0.3108  1.2483 -0.0043
   83MOL   H37931703   6.536   2.295   1.032 -1.2226  1.7060  0.5781
   83MOL   H38031704   6.408   2.591   1.349  1.0390 -0.9170  3.5874
   83MOL   H38131705   6.565   2.626   1.427  2.5350 -1.6781 -1.0466
   83MOL   H38231706   6.495   2.191   1.163 -0.2680  0.8837  1.7323
   84MOL     C131707   3.450   1.163   5.728 -0.0566  0.0257  0.1312
   84MOL     C231708   3.584   1.226   5.760 -0.0332  0.2409  0.3632
   84MOL     C331709   3.684   1.163   5.661  0.0011 -0.5951 -0.7846
   84MOL     C431710   3.605   1.113   5.546 -1.0918 -0.7610  0.3740
   84MOL     C531711   3.675   1.003   5.464  0.0055 -0.2846  0.1031
   84MOL     C631712   3.589   0.962   5.348 -0.2144  0.1225 -0.0841
   84MOL     C731713   3.458   1.083   5.594  0.2731  0.0013  0.3473
   84MOL     H831714   3.420   1.108   5.817 -1.1896  1.7999  0.8733
   84MOL     H931715   3.606   1.202   5.864 -1.4958  0.8167  0.8117
   84MOL    H1031716   3.581   1.334   5.746 -1.2551 -0.0500 -1.9925
   84MOL    H1131717   3.753   1.230   5.610 -1.9976 -0.5738 -3.5819
   84MOL    H1231718   3.736   1.082   5.713 -0.3305 -0.6172 -0.4784
   84MOL    H1331719   3.596   1.206   5.490 -0.7008 -0.2543  1.1473
   84MOL    H1431720   3.775   1.031   5.431 -0.1604  2.9348  2.1014
   84MOL    H1531721   3.691   0.917   5.529 -0.6674 -0.8084 -0.4175
   84MOL    H1631722   3.487   0.935   5.372 -0.0362 -2.1233 -1.6696
   84MOL    H1731723   3.586   1.054   5.289  0.0669 -1.0000 -1.9138
   84MOL    H1831724   3.384   1.099   5.516  0.1861  0.9362  0.6228
   84MOL    H1931725   3.446   0.976   5.612  1.5539 -0.5546 -1.9179
   84MOL    H2031726   3.373   1.239   5.717 -0.7822 -0.7028  0.0768
   84MOL    C2131727   3.661   0.843   5.280 -0.3488 -0.4347  0.3987
   84MOL    C2231728   3.617   0.709   5.342 -0.1670 -0.3264 -0.1971
   84MOL    C2331729   3.556   0.630   5.226 -0.1255 -0.1801 -1.0204
   84MOL    C2431730   3.621   0.681   5.099 -0.3351 -0.1763  1.1985
   84MOL    C2531731   3.547   0.655   4.969  1.0116 -0.4579  0.2085
   84MOL    C2631732   3.640   0.676   4.847 -0.6637  0.3717 -1.1091
   84MOL    C2731733   3.638   0.831   5.125  0.0388 -0.3899  0.3429
   84MOL    H2831734   3.767   0.854   5.304  0.0211  0.0317 -1.3652
   84MOL    H2931735   3.705   0.652   5.373  0.8507  2.1987  1.7773
   84MOL    H3031736   3.544   0.709   5.422 -0.5096  0.0941 -0.5081
   84MOL    H3131737   3.583   0.525   5.231 -2.0796 -0.6281  1.1837
   84MOL    H3231738   3.447   0.628   5.217 -0.1162  0.4203 -1.3128
   84MOL    H3331739   3.717   0.629   5.091  1.0756  2.4556  0.3104
   84MOL    H3431740   3.453   0.709   4.972  1.1989 -0.1424  0.4182
   84MOL    H3531741   3.533   0.547   4.972  1.6835 -0.5210  2.6075
   84MOL    H3631742   3.728   0.612   4.857 -0.0455  1.7927  3.7236
   84MOL    H3731743   3.670   0.780   4.838  1.2188 -0.2031 -1.6181
   84MOL    H3831744   3.721   0.884   5.079  1.6676 -3.6606 -0.6663
   84MOL    H3931745   3.546   0.878   5.090 -1.5701 -3.4900  0.1903
   84MOL    C4031746   3.564   0.648   4.718  0.6619  0.2417 -0.0335
   84MOL    C4131747   3.646   0.661   4.590 -0.1774 -0.3638  0.2107
   84MOL    C4231748   3.544   0.603   4.493 -0.5103  0.0392  0.1767
   84MOL    C4331749   3.474   0.479   4.562 -0.3227  0.6414  0.1204
   84MOL    C4431750   3.330   0.458   4.506 -0.2340 -0.0206 -0.1807
   84MOL    C4531751   3.330   0.398   4.364 -0.3223 -0.1938 -0.0034
   84MOL    C4631752   3.485   0.516   4.712  0.2961 -0.5202  0.2884
   84MOL    H4731753   3.488   0.726   4.714 -1.0323 -1.2231  2.0473
   84MOL    H4831754   3.726   0.588   4.595 -0.4912 -0.8001 -1.0325
   84MOL    H4931755   3.683   0.758   4.556  1.2994 -1.4100 -1.2676
   84MOL    H5031756   3.474   0.680   4.459  1.9895  1.3187 -2.1867
   84MOL    H5131757   3.591   0.563   4.404 -1.5387 -0.2185 -0.2560
   84MOL    H5231758   3.531   0.387   4.548  1.2008  1.4178  1.0818
   84MOL    H5331759   3.275   0.389   4.570  1.1887 -0.5288  0.5141
   84MOL    H5431760   3.278   0.554   4.505 -0.6457 -0.2381 -2.2313
   84MOL    H5531761   3.376   0.299   4.372  1.1356  0.4909  0.1865
   84MOL    H5631762   3.394   0.459   4.299  1.5772 -0.3683  1.6608
   84MOL    H5731763   3.388   0.522   4.761  0.3225 -1.3749  0.4509
   84MOL    H5831764   3.536   0.433   4.761  0.3115 -1.6429 -1.5787
   84MOL    C5931765   3.194   0.378   4.310  0.8387  0.4828  0.2740
   84MOL    C6031766   3.137   0.514   4.267 -0.1691 -0.6918 -0.5011
   84MOL    C6131767   3.101   0.503   4.111 -0.3309 -0.2542 -0.9512
   84MOL    C6231768   3.183   0.387   4.065 -0.7325  0.3054  0.0256
   84MOL    C6331769   3.114   0.323   3.944 -0.2441  0.5850  0.1948
   84MOL    C6431770   3.181   0.212   3.872 -0.4394 -0.3869 -0.5795
   84MOL    C6531771   3.186   0.288   4.182 -0.8153 -0.6866  0.4918
   84MOL    H6631772   3.135   0.335   4.391  1.4973  2.1635  1.6896
   84MOL    H6731773   3.052   0.545   4.327 -0.1836 -1.4770 -0.1048
   84MOL    H6831774   3.215   0.587   4.289  0.6605 -1.5619 -0.5241
   84MOL    H6931775   2.994   0.485   4.097 -0.2508 -1.6185  0.0215
   84MOL    H7031776   3.140   0.589   4.057  2.1975  0.0067  1.1836
   84MOL    H7131777   3.288   0.415   4.053 -0.2912 -0.3619  2.1630
   84MOL    H7231778   3.093   0.405   3.875 -0.6054 -0.6449 -1.1837
   84MOL    H7331779   3.017   0.282   3.973  0.1339 -0.3501  0.1745
   84MOL    H7431780   3.270   0.259   3.831 -2.1238  2.5739 -1.0060
   84MOL    H7531781   3.222   0.136   3.939 -1.6499  0.9551  1.7406
   84MOL    H7631782   3.092   0.233   4.171 -0.5479 -1.3420  1.4512
   84MOL    H7731783   3.265   0.215   4.172  0.1590  0.3136  0.7966
   84MOL    C7831784   3.107   0.126   3.764  0.0023  0.0603  0.4893
   84MOL    C7931785   3.201   0.022   3.705 -0.4404 -0.4721  0.5769
   84MOL    C8031786   3.116   7.557   3.645 -0.3830 -0.0505 -0.5654
   84MOL    C8131787   2.974   7.588   3.691 -1.0283  0.3998  0.7242
   84MOL    C8231788   2.898   7.470   3.748  0.1106 -0.0005  0.7370
   84MOL    C8331789   2.840   7.368   3.652 -0.3973  0.2689  0.3172
   84MOL    C8431790   2.988   0.047   3.809  0.3250  0.0362 -0.0360
   84MOL    H8531791   3.076   0.196   3.686 -3.9427  0.2347  2.0987
   84MOL    H8631792   3.268   0.064   3.630 -0.3352 -0.8638  0.4500
   84MOL    H8731793   3.270   7.625   3.777  0.3514 -0.3181 -0.0898
   84MOL    H8831794   3.135   7.554   3.538  1.1132 -0.2251 -0.2992
   84MOL    H8931795   3.145   7.458   3.679 -0.6203  0.0059 -0.1873
   84MOL    H9031796   2.922   7.641   3.611  1.6104  0.0268 -1.2942
   84MOL    H9131797   2.809   7.510   3.797 -0.8054  1.0523 -1.6901
   84MOL    H9231798   2.954   7.417   3.825  0.6393 -1.2381 -0.4645
   84MOL    H9331799   2.928   7.310   3.624  0.6868  1.5462  1.0588
   84MOL    H9431800   2.795   7.407   3.561  1.6535 -0.6831 -1.1358
   84MOL    H9531801   3.026   7.642   3.897 -2.0150  0.2271  1.1256
   84MOL    H9631802   2.899   0.102   3.840  0.6939  2.1188 -2.4624
   84MOL    C9731803   2.737   7.268   3.718  0.4268 -0.0478 -0.3900
   84MOL    C9831804   2.786   7.182   3.832 -0.2101 -0.2130 -0.0215
   84MOL    C9931805   2.708   7.044   3.824  0.3336 -0.4882  0.2092
   84MOL   C10031806   2.625   7.044   3.691 -0.2281  0.3661 -0.5994
   84MOL   C10131807   2.629   6.911   3.611 -0.3083  0.5446 -0.5176
   84MOL   C10231808   2.516   6.889   3.510 -0.2446 -0.0458 -0.0756
   84MOL   C10331809   2.684   7.163   3.616 -0.5571  0.3816  0.3496
   84MOL   H10431810   2.647   7.324   3.743  0.2551  0.0701 -1.2556
   84MOL   H10531811   2.892   7.157   3.826 -0.2910 -0.5754  0.0565
   84MOL   H10631812   2.775   7.239   3.924  1.3368 -1.0426  0.7075
   84MOL   H10731813   2.782   6.964   3.827 -0.9068 -1.5985  1.7991
   84MOL   H10831814   2.648   7.014   3.910  0.1077  1.5281  0.7902
   84MOL   H10931815   2.521   7.073   3.706 -0.3152 -0.7951  1.2313
   84MOL   H11031816   2.732   6.896   3.579  0.6569 -0.4556  2.7838
   84MOL   H11131817   2.613   6.834   3.687  0.2943  1.8831  0.9909
   84MOL   H11231818   2.423   6.849   3.551 -0.7640  0.8189 -0.3952
   84MOL   H11331819   2.492   6.986   3.467  1.2530  1.0339  1.4713
   84MOL   H11431820   2.758   7.122   3.548 -1.6522  0.5014 -0.9366
   84MOL   H11531821   2.609   7.200   3.545 -0.7394 -1.1702 -0.2907
   84MOL   C11631822   2.569   6.801   3.391 -0.0188  0.6395 -0.5855
   84MOL   C11731823   2.590   6.654   3.436 -0.1134  0.1311 -0.2122
   84MOL   C11831824   2.522   6.564   3.340 -0.4844 -0.4161  0.8290
   84MOL   C11931825   2.410   6.656   3.285  0.1041 -0.7230 -0.7308
   84MOL   C12031826   2.283   6.645   3.365  0.3320  0.2734 -0.0943
   84MOL   C12131827   2.184   6.754   3.345  0.4265 -0.2955  0.0195
   84MOL   C12231828   2.474   6.792   3.275  0.1740 -0.6408 -0.2024
   84MOL   H12331829   2.663   6.836   3.349  0.2166  2.5198  1.3981
   84MOL   H12431830   2.562   6.636   3.540  1.7403 -0.1671  0.2483
   84MOL   H12531831   2.695   6.626   3.438  0.3502  1.6925 -1.4720
   84MOL   H12631832   2.489   6.469   3.382 -0.6153 -0.9294 -0.4074
   84MOL   H12731833   2.593   6.537   3.262 -0.4274  0.7709  0.4560
   84MOL   H12831834   2.377   6.634   3.183 -1.7263 -1.4521 -0.0136
   84MOL   H12931835   2.305   6.643   3.472  0.2555 -1.1371 -0.0890
   84MOL   H13031836   2.234   6.548   3.363 -1.8956  1.3165  1.4104
   84MOL   H13131837   2.152   6.734   3.242 -0.9109  1.1164  0.1220
   84MOL   H13231838   2.213   6.858   3.357  0.8945 -0.1583 -2.0636
   84MOL   H13331839   2.525   6.796   3.179 -1.0360 -1.5142 -0.8923
   84MOL   H13431840   2.397   6.868   3.265 -0.1852 -1.1185 -1.1281
   84MOL   C13531841   2.070   6.748   3.454 -0.3874 -0.1459  0.4911
   84MOL   C13631842   1.984   6.878   3.457 -0.2374  0.0753 -1.0781
   84MOL   C13731843   1.859   6.840   3.532 -0.5019  0.2480  0.5981
   84MOL   C13831844   1.828   6.700   3.484 -0.1123 -0.1288 -0.3359
   84MOL   C13931845   1.780   6.620   3.600 -0.0361 -0.8760  1.0111
   84MOL   C14031846   1.634   6.653   3.647 -0.3411  0.6047  0.4049
   84MOL   C14131847   1.963   6.645   3.429  0.9991  0.3847 -0.0600
   84MOL   H14231848   2.123   6.735   3.549 -1.5854 -1.2584  1.0135
   84MOL   H14331849   2.037   6.954   3.515  1.4638 -1.8405 -0.0858
   84MOL   H14431850   1.962   6.916   3.357  2.5689 -0.1390 -1.8056
   84MOL   H14531851   1.881   6.835   3.639 -0.7743  0.4294  0.6652
   84MOL   H14631852   1.775   6.909   3.517 -1.3994 -0.6386  1.4176
   84MOL   H14731853   1.749   6.700   3.410 -2.0690 -0.2850  1.6939
   84MOL   H14831854   1.847   6.624   3.686  0.8522  0.4690  0.2593
   84MOL   H14931855   1.770   6.519   3.560 -4.4659 -0.4331  0.7573
   84MOL   H15031856   1.574   6.683   3.561 -0.8957 -0.5874  0.3748
   84MOL   H15131857   1.598   6.555   3.676  1.8876 -0.8207 -1.4655
   84MOL   H15231858   1.951   6.648   3.321  1.8622 -3.3699 -0.3229
   84MOL   H15331859   1.986   6.540   3.449 -1.8047 -0.1360  0.6790
   84MOL   C15431860   1.619   6.758   3.763  0.2842 -0.4181  0.2449
   84MOL   C15531861   1.685   6.711   3.894  0.1189 -0.3544  0.1455
   84MOL   C15631862   1.603   6.792   3.999 -0.2149  0.1161  0.0325
   84MOL   C15731863   1.482   6.855   3.929 -0.2397  0.0550 -0.1732
   84MOL   C15831864   1.365   6.847   4.024 -0.8123  0.3736  1.1636
   84MOL   C15931865   1.392   6.940   4.144 -0.5540  0.1016  0.5034
   84MOL   C16031866   1.474   6.775   3.799 -0.5651  0.1261 -0.7240
   84MOL   H16131867   1.656   6.857   3.738  2.0353 -1.3634 -1.0019
   84MOL   H16231868   1.674   6.603   3.907 -1.3477 -0.3130 -0.6195
   84MOL   H16331869   1.793   6.729   3.892  0.2460 -1.1890 -0.9603
   84MOL   H16431870   1.577   6.715   4.071  0.8109 -0.0824  0.2075
   84MOL   H16531871   1.670   6.862   4.048  0.6045  1.2725 -2.6397
   84MOL   H16631872   1.509   6.957   3.904 -2.9634  0.5968 -1.0474
   84MOL   H16731873   1.345   6.742   4.045 -2.3273  0.1095 -1.3443
   84MOL   H16831874   1.278   6.877   3.965  0.0024  0.9700  0.2524
   84MOL   H16931875   1.479   6.910   4.202  0.2994  0.2196 -0.7018
   84MOL   H17031876   1.423   7.034   4.098  1.8176 -0.4844  0.8576
   84MOL   H17131877   1.413   6.825   3.725 -0.9994 -0.8490 -1.0208
   84MOL   H17231878   1.433   6.677   3.822  0.2591  0.0715  0.5910
   84MOL   C17331879   1.269   6.962   4.238  0.2866  0.1784 -0.2469
   84MOL   C17431880   1.290   7.066   4.352  0.5677  0.2172 -0.3920
   84MOL   C17531881   1.148   7.137   4.367 -0.0364  0.4766 -0.7551
   84MOL   C17631882   1.054   7.081   4.258  0.1121 -0.1781 -0.2525
   84MOL   C17731883   0.961   7.193   4.198 -0.5462 -0.1219  0.1411
   84MOL   C17831884   0.882   7.161   4.076 -0.7629 -0.1829  0.1516
   84MOL   C17931885   1.149   7.014   4.157  1.2912  0.6290 -0.5521
   84MOL   H18031886   1.252   6.867   4.289 -0.9083 -0.9496 -2.6584
   84MOL   H18131887   1.361   7.142   4.320 -1.3393  1.8794 -0.7539
   84MOL   H18231888   1.336   7.013   4.436  0.3893  2.3338  1.0675
   84MOL   H18331889   1.107   7.106   4.463 -1.1761  0.1576 -1.3393
   84MOL   H18431890   1.157   7.245   4.357 -2.3239  0.9248  1.4372
   84MOL   H18531891   0.988   7.009   4.308  0.6081 -0.0382  0.6221
   84MOL   H18631892   1.029   7.272   4.168 -1.6749  1.2049  1.0031
   84MOL   H18731893   0.899   7.242   4.273  0.7057  1.4471  0.1958
   84MOL   H18831894   0.804   7.090   4.102 -0.2208 -1.1465 -0.7943
   84MOL   H18931895   0.936   7.115   3.993 -0.3484 -1.3839  1.0814
   84MOL   H19031896   1.188   7.096   4.096  1.5933 -0.0965 -1.3556
   84MOL   H19131897   1.109   6.933   4.096 -0.7412 -0.4517  2.1149
   84MOL   C19231898   0.804   7.283   4.016 -0.3417  0.1612 -0.7069
   84MOL   C19331899   0.696   7.249   3.912 -0.1307 -0.0612  0.1955
   84MOL   C19431900   0.667   7.379   3.838  0.8242  0.1444 -0.0628
   84MOL   C19531901   0.794   7.453   3.843  0.3082 -0.2163 -0.4380
   84MOL   C19631902   0.784   7.608   3.857  0.3434 -0.9166  0.4189
   84MOL   C19731903   0.689   0.024   3.759  0.0362 -0.0392  0.0745
   84MOL   C19831904   0.886   7.392   3.952  0.2719  0.0968  0.0008
   84MOL   H19931905   0.739   7.320   4.095  1.7860  0.2573  1.0482
   84MOL   H20031906   0.741   7.173   3.849  0.0178  0.2006 -0.0139
   84MOL   H20131907   0.598   7.225   3.953 -0.1618  0.1225  0.2309
   84MOL   H20231908   0.596   7.438   3.896  0.0282 -2.0920  1.3050
   84MOL   H20331909   0.627   7.359   3.738 -1.6364  0.0427  0.8962
   84MOL   H20431910   0.846   7.439   3.748 -2.0871  0.1691 -1.8657
   84MOL   H20531911   0.885   0.004   3.858 -0.1004  0.1885 -1.2012
   84MOL   H20631912   0.756   7.635   3.959 -1.5193 -0.9509 -0.0789
   84MOL   H20731913   0.593   7.620   3.764  0.5916 -1.1188 -0.1206
   84MOL   H20831914   0.728   0.009   3.658  2.1822  3.0318  0.3900
   84MOL   H20931915   0.908   7.463   4.032  1.1811 -0.4825  0.2614
   84MOL   H21031916   0.978   7.349   3.913  1.4273  2.4136  0.0833
   84MOL   C21131917   0.653   0.165   3.792 -0.1947 -0.1130  0.0409
   84MOL   C21231918   0.542   0.225   3.711 -0.3907  0.1570 -0.1372
   84MOL   C21331919   0.579   0.377   3.693 -0.4093  0.3788 -0.5052
   84MOL   C21431920   0.722   0.402   3.748 -0.3616  0.0357  0.5290
   84MOL   C21531921   0.810   0.505   3.667  0.7461  0.6922 -0.4106
   84MOL   C21631922   0.758   0.647   3.674 -0.3026 -0.3028 -0.0335
   84MOL   C21731923   0.772   0.257   3.768 -0.1737  0.4608  0.2767
   84MOL   H21831924   0.622   0.172   3.897  0.0956  0.5200  0.0840
   84MOL   H21931925   0.534   0.182   3.611  1.4157 -1.7709  0.5216
   84MOL   H22031926   0.450   0.221   3.769  0.1960 -1.1435  0.7337
   84MOL   H22131927   0.574   0.405   3.587 -1.2847 -0.6929 -0.7466
   84MOL   H22231928   0.503   0.435   3.744 -0.0769  0.0472  0.3735
   84MOL   H22331929   0.714   0.451   3.845  2.7894  3.7028 -0.9177
   84MOL   H22431930   0.808   0.475   3.563 -1.4566  0.0755 -0.2263
   84MOL   H22531931   0.910   0.488   3.706 -0.4774  0.5106  2.8451
   84MOL   H22631932   0.676   0.655   3.602 -0.6612 -2.1684  0.1365
   84MOL   H22731933   0.710   0.660   3.771  0.2244  3.5046 -0.2059
   84MOL   H22831934   0.850   0.249   3.844 -0.5186  0.0637  0.5895
   84MOL   H22931935   0.824   0.221   3.679  1.1814 -0.4843  1.4325
   84MOL   C23031936   0.864   0.757   3.654  0.0936  0.7587  0.1753
   84MOL   C23131937   0.825   0.897   3.683 -0.2699  0.2008  0.3489
   84MOL   C23231938   0.907   0.983   3.589  0.2782  0.3906 -0.0676
   84MOL   C23331939   0.898   0.905   3.460 -0.4790 -0.1070  0.7837
   84MOL   C23431940   1.002   0.944   3.351 -0.0844  0.1340 -0.0738
   84MOL   C23531941   0.977   0.887   3.212  1.2139 -0.4312  0.1395
   84MOL   C23631942   0.909   0.763   3.506  0.4078 -0.5211 -0.4731
   84MOL   H23731943   0.950   0.724   3.712  0.0982 -0.2247 -0.3651
   84MOL   H23831944   0.718   0.902   3.660 -0.3803  0.4273  0.9040
   84MOL   H23931945   0.829   0.927   3.788 -0.3170  1.2662  0.0531
   84MOL   H24031946   1.009   1.006   3.619  0.2506 -0.5914  0.7922
   84MOL   H24131947   0.861   1.082   3.595  0.6628  0.5543  0.2217
   84MOL   H24231948   0.797   0.923   3.422 -0.8204  0.6881  2.0010
   84MOL   H24331949   1.102   0.918   3.385 -0.9282 -2.0502  0.8006
   84MOL   H24431950   1.007   1.051   3.331 -0.9778  0.3430  0.7469
   84MOL   H24531951   0.952   0.781   3.220  0.4821 -0.3401 -0.8506
   84MOL   H24631952   0.886   0.930   3.171  0.0018  1.0842  4.2169
   84MOL   H24731953   1.011   0.723   3.498  0.2941 -1.2844  1.5039
   84MOL   H24831954   0.848   0.701   3.441  2.0325 -1.4960 -1.1082
   84MOL   C24931955   1.095   0.905   3.116  0.3941  0.8500 -0.0588
   84MOL   C25031956   1.231   0.864   3.163 -0.6877 -0.1893  0.1070
   84MOL   C25131957   1.312   0.840   3.035  0.4452  0.6207 -0.1612
   84MOL   C25231958   1.219   0.819   2.914  0.0664 -0.2437  0.6662
   84MOL   C25331959   1.249   0.920   2.794 -0.2734 -0.0863  0.6688
   84MOL   C25431960   1.177   0.883   2.666 -0.1841  0.2245  0.4118
   84MOL   C25531961   1.082   0.836   2.981  0.3892  0.1234 -0.2011
   84MOL   H25631962   1.097   1.011   3.091  2.5080  0.8082 -0.1502
   84MOL   H25731963   1.273   0.939   3.230 -2.4896  0.1233  0.8989
   84MOL   H25831964   1.217   0.773   3.221 -0.0505 -1.0343 -1.0560
   84MOL   H25931965   1.382   0.757   3.045 -0.7070 -0.1338  1.8074
   84MOL   H26031966   1.364   0.932   3.012  0.3760  0.6769 -0.0915
   84MOL   H26131967   1.215   0.719   2.871 -0.5759 -0.1357  0.4604
   84MOL   H26231968   1.355   0.904   2.775 -0.7552  1.3671 -3.7060
   84MOL   H26331969   1.257   1.024   2.823 -1.7082  0.6277 -1.3793
   84MOL   H26431970   1.069   0.889   2.683 -0.3611 -1.5748  0.0624
   84MOL   H26531971   1.190   0.776   2.647 -0.5478  0.3318 -0.4827
   84MOL   H26631972   1.032   0.740   2.994 -0.1427  0.5695  1.1476
   84MOL   H26731973   1.013   0.886   2.914 -0.3246 -2.5951 -1.5527
   84MOL   C26831974   1.215   0.967   2.545  0.1742  0.9236  0.0338
   84MOL   C26931975   1.174   1.111   2.553 -0.3893 -0.4516 -0.2478
   84MOL   C27031976   1.063   1.137   2.449  0.2542 -0.3496 -0.1152
   84MOL   C27131977   1.095   1.043   2.337  0.3535 -1.0285  0.2153
   84MOL   C27231978   0.980   1.011   2.245  0.2047 -0.2408  0.1076
   84MOL   C27331979   1.012   0.923   2.129  0.1911  0.1202 -0.3660
   84MOL   C27431980   1.148   0.916   2.421  0.4440  0.4479  0.7969
   84MOL   H27531981   1.323   0.951   2.542 -0.0164 -0.3393 -0.2085
   84MOL   H27631982   1.140   1.135   2.654 -0.0517 -1.7361  0.1853
   84MOL   H27731983   1.258   1.177   2.534 -0.1678 -0.3231  1.0961
   84MOL   H27831984   0.971   1.110   2.501 -0.1564 -1.2654 -1.3070
   84MOL   H27931985   1.059   1.243   2.424 -0.2953 -0.5328 -0.8025
   84MOL   H28031986   1.171   1.096   2.281  0.3940 -1.5717 -0.2477
   84MOL   H28131987   0.920   1.100   2.226 -0.3601 -0.5230  0.5289
   84MOL   H28231988   0.915   0.947   2.305 -0.5456  0.8937  0.5231
   84MOL   H28331989   1.071   0.984   2.060  3.5138 -0.1713  2.1181
   84MOL   H28431990   1.075   0.845   2.172 -1.2281 -0.7023  0.2670
   84MOL   H28531991   1.057   0.862   2.446  0.3747  0.0085 -0.3700
   84MOL   H28631992   1.207   0.841   2.369 -0.9629  0.5658 -1.0276
   84MOL   C28731993   0.883   0.852   2.070  0.1261  0.2836  0.2396
   84MOL   C28831994   0.911   0.777   1.937  0.5433 -0.7013  0.0459
   84MOL   C28931995   0.879   0.631   1.961  0.1046 -0.2920  0.3067
   84MOL   C29031996   0.775   0.634   2.075 -0.3680  0.0151  0.2320
   84MOL   C29131997   0.756   0.502   2.146 -0.4217 -0.4280  0.3982
   84MOL   C29231998   0.648   0.413   2.080  0.0286 -0.2879  0.1488
   84MOL   C29331999   0.826   0.752   2.163  0.6131 -0.4173 -0.0119
   84MOL   H29432000   0.813   0.933   2.050  1.8518  1.2186 -2.4420
   84MOL   H29532001   0.857   0.818   1.852  0.9180 -0.0191  0.1331
   84MOL   H29632002   1.012   0.785   1.899  0.7890 -2.3157  0.3355
   84MOL   H29732003   0.978   0.594   1.985  0.2457  0.2066  0.5029
   84MOL   H29832004   0.848   0.569   1.877 -0.3245 -2.8737  2.3146
   84MOL   H29932005   0.686   0.669   2.023  0.5292 -0.1685 -1.4834
   84MOL   H30032006   0.730   0.518   2.251 -0.1551 -0.1294  0.4186
   84MOL   H30132007   0.849   0.447   2.149  0.5134  1.1859  2.0047
   84MOL   H30232008   0.661   0.416   1.972 -0.3666 -0.5617  0.0919
   84MOL   H30332009   0.550   0.457   2.099 -0.2829 -1.1192  0.4907
   84MOL   H30432010   0.885   0.727   2.251 -0.7178 -0.8089  0.7930
   84MOL   H30532011   0.745   0.798   2.220  1.4339 -0.1653  0.9527
   84MOL   C30632012   0.645   0.262   2.120 -0.3630  0.1822  1.1392
   84MOL   C30732013   0.740   0.181   2.032 -0.6246 -0.3511 -0.1230
   84MOL   C30832014   0.830   0.093   2.121 -0.5375 -0.5402  0.3483
   84MOL   C30932015   0.753   0.079   2.248 -0.3936  0.2900  0.0593
   84MOL   C31032016   0.835   0.053   2.372 -0.1981  0.3577 -0.2995
   84MOL   C31132017   0.742   0.036   2.496  0.0620  0.1233  0.7240
   84MOL   C31232018   0.685   0.217   2.262 -0.2560  0.2055  0.3567
   84MOL   H31332019   0.545   0.227   2.094 -0.9576  1.9182  1.0369
   84MOL   H31432020   0.675   0.120   1.969  3.0993 -0.4232 -4.1340
   84MOL   H31532021   0.794   0.236   1.955 -1.0872 -1.6198 -1.3864
   84MOL   H31632022   0.860   7.643   2.083  3.0788  0.4250  0.5358
   84MOL   H31732023   0.927   0.143   2.131 -0.6064 -0.8197  2.8745
   84MOL   H31832024   0.679   7.647   2.245 -1.3342  1.1155  0.8358
   84MOL   H31932025   0.888   7.605   2.364  1.9340  1.4696  0.2426
   84MOL   H32032026   0.919   0.121   2.386  0.8588 -1.0583  0.2851
   84MOL   H32132027   0.669   7.603   2.481 -0.6272  0.6745  1.1133
   84MOL   H32232028   0.691   0.131   2.511  1.1465  0.8076  0.1332
   84MOL   H32332029   0.756   0.293   2.295 -1.3036  0.9521  0.9425
   84MOL   H32432030   0.595   0.206   2.323 -1.1741 -3.2077 -1.5322
   84MOL   C32532031   0.818   0.012   2.631  0.5541 -0.5821 -0.3845
   84MOL   C32632032   0.706   0.004   2.736  1.0410  0.7365 -0.0518
   84MOL   C32732033   0.733   7.527   2.823  0.0418  0.4359 -0.3028
   84MOL   C32832034   0.823   7.440   2.733 -0.4594  0.4725 -0.3903
   84MOL   C32932035   0.919   7.351   2.814 -0.0326 -0.0048  0.0364
   84MOL   C33032036   0.997   7.255   2.726 -0.6417 -0.3935  0.4136
   84MOL   C33132037   0.899   7.526   2.641 -0.1246  0.2074 -0.0792
   84MOL   H33232038   0.878   0.101   2.654  0.7500 -0.6568 -0.6145
   84MOL   H33332039   0.609   7.641   2.687  2.2630 -0.5472 -2.2947
   84MOL   H33432040   0.702   0.097   2.793 -0.9729  1.1992 -0.8843
   84MOL   H33532041   0.781   7.566   2.913 -0.4615 -0.0064  0.1631
   84MOL   H33632042   0.646   7.478   2.867  1.2429 -1.4736 -0.0057
   84MOL   H33732043   0.755   7.375   2.678 -0.7112  0.6949 -0.3429
   84MOL   H33832044   0.992   7.411   2.869 -0.1624  0.2235 -0.0388
   84MOL   H33932045   0.856   7.298   2.886  0.4109 -0.5370  0.0359
   84MOL   H34032046   0.938   7.225   2.639  0.5000 -1.2888 -0.0749
   84MOL   H34132047   1.082   7.306   2.679  2.9313 -3.0357  3.6983
   84MOL   H34232048   0.911   7.474   2.546  1.9717 -2.2485  1.4621
   84MOL   H34332049   0.997   7.547   2.684 -0.2098 -0.3671  0.4080
   84MOL   C34432050   1.059   7.140   2.794 -0.2190 -0.5060 -0.0976
   84MOL   C34532051   1.169   7.169   2.892 -0.6155 -0.0892  0.3930
   84MOL   C34632052   1.236   7.037   2.916 -0.8914 -0.4135 -0.2543
   84MOL   C34732053   1.242   6.978   2.774 -0.4926 -0.4530  0.2180
   84MOL   C34832054   1.268   6.829   2.758 -0.7282  0.0430 -0.3840
   84MOL   C34932055   1.283   6.777   2.614 -0.0379 -0.1932  0.3992
   84MOL   C35032056   1.127   7.041   2.697  0.1044  0.4067  0.2879
   84MOL   H35132057   0.996   7.079   2.858 -0.7994 -1.3404 -1.4366
   84MOL   H35232058   1.145   7.212   2.989  1.4028  3.9804 -0.8426
   84MOL   H35332059   1.239   7.241   2.849 -0.5097 -1.6883 -2.2389
   84MOL   H35432060   1.326   7.056   2.975 -1.7945  1.8359  0.4336
   84MOL   H35532061   1.185   6.970   2.985  0.3053 -1.1893 -0.1008
   84MOL   H35632062   1.334   7.023   2.734  2.0618 -1.4369  4.7259
   84MOL   H35732063   1.358   6.802   2.812 -0.9141 -0.9409 -0.5632
   84MOL   H35832064   1.187   6.780   2.812  0.6535 -0.4002  1.3141
   84MOL   H35932065   1.371   6.815   2.562  0.6436 -2.9911 -0.5334
   84MOL   H36032066   1.196   6.806   2.556 -0.3202  0.9346  1.3637
   84MOL   H36132067   1.171   7.099   2.616 -1.9224  2.6528  0.7539
   84MOL   H36232068   1.050   6.975   2.657  0.3975  0.5248 -0.4847
   84MOL   C36332069   1.286   6.623   2.626  0.1754 -0.9344  0.4965
   84MOL   C36432070   1.306   6.550   2.501 -0.5342  0.0770  0.5606
   84MOL   C36532071   1.200   6.443   2.495 -0.0172  0.2643 -0.3909
   84MOL   C36632072   1.150   6.420   2.640 -0.2452 -0.5434  0.1672
   84MOL   C36732073   1.007   6.368   2.659  0.4617 -0.3957 -0.5762
   84MOL   C36832074   0.989   6.304   2.792 -0.6102  0.5547  0.1091
   84MOL   C36932075   1.163   6.563   2.695  0.1260 -0.0665  0.8672
   84MOL   H37032076   1.373   6.588   2.681  0.5734  0.0323  0.4942
   84MOL   H37132077   1.282   6.617   2.419 -1.6725 -2.0403 -0.9049
   84MOL   H37232078   1.406   6.512   2.482 -0.4165  0.6379  0.0831
   84MOL   H37332079   1.115   6.472   2.434 -1.8214  0.6148  2.1819
   84MOL   H37432080   1.238   6.351   2.451 -0.2310 -0.3844  0.7347
   84MOL   H37532081   1.221   6.358   2.694 -1.6003 -1.2290  1.1865
   84MOL   H37632082   0.924   6.437   2.650 -1.5022 -2.7477 -1.0807
   84MOL   H37732083   0.990   6.291   2.583  1.2633 -0.1898 -0.9635
   84MOL   H37832084   1.016   6.199   2.798 -1.0537  0.4562  0.3577
   84MOL   H37932085   0.887   6.318   2.828 -0.9526  1.4580 -1.1761
   84MOL   H38032086   1.073   6.619   2.666 -1.2452 -2.4608  0.3249
   84MOL   H38132087   1.177   6.557   2.803  1.3142  0.5400  0.7502
   84MOL   H38232088   1.041   6.347   2.879 -1.1323 -2.9065  2.2219
   85MOL     C132089   0.919   4.356   6.502  0.1547  0.2494  0.7607
   85MOL     C232090   1.069   4.385   6.508  0.1530  0.3970 -0.0439
   85MOL     C332091   1.119   4.280   6.603  0.1044  0.2071  0.1495
   85MOL     C432092   1.027   4.162   6.576 -0.0762 -0.1406  0.4511
   85MOL     C532093   1.027   4.064   6.698  0.6517  0.2687 -0.1646
   85MOL     C632094   0.963   3.931   6.660  0.0580  0.0204 -0.0104
   85MOL     C732095   0.892   4.221   6.539  0.6230  0.6112  0.0624
   85MOL     H832096   0.876   4.429   6.570  0.8602  0.7664  0.6511
   85MOL     H932097   1.083   4.490   6.529 -0.3624  0.1149  1.7585
   85MOL    H1032098   1.110   4.368   6.408 -0.9879 -1.6503 -0.2032
   85MOL    H1132099   1.225   4.262   6.588 -0.1758  0.0165 -1.7900
   85MOL    H1232100   1.098   4.316   6.704 -0.9139  2.2787 -0.7550
   85MOL    H1332101   1.083   4.122   6.491 -0.6536  1.0080 -0.4734
   85MOL    H1432102   1.126   4.043   6.737  0.8317  2.1954  0.4584
   85MOL    H1532103   0.979   4.094   6.791  1.1250  2.1254 -0.5057
   85MOL    H1632104   0.855   3.938   6.667  0.0755 -0.5081  0.9056
   85MOL    H1732105   0.988   3.904   6.558 -2.3112 -1.4632 -0.2309
   85MOL    H1832106   0.858   4.164   6.453  0.3939 -0.4769  0.8637
   85MOL    H1932107   0.815   4.215   6.615 -1.1621 -0.5434 -1.7862
   85MOL    H2032108   0.878   4.372   6.403 -2.6135 -1.0960  1.6094
   85MOL    C2132109   1.000   3.814   6.742  0.2387  0.5316  0.0207
   85MOL    C2232110   0.915   3.692   6.706 -0.1224 -0.3554  0.8843
   85MOL    C2332111   1.002   3.568   6.696 -0.0931  0.1306  0.6856
   85MOL    C2432112   1.142   3.609   6.726 -0.5606 -0.1991 -0.5027
   85MOL    C2532113   1.249   3.546   6.628 -0.9277 -0.5737 -0.1629
   85MOL    C2632114   1.260   3.394   6.637 -0.1093 -0.0416 -1.0834
   85MOL    C2732115   1.143   3.760   6.724  1.2842 -0.5711 -0.2223
   85MOL    H2832116   0.995   3.836   6.848 -0.5133 -0.9340  0.2995
   85MOL    H2932117   0.850   3.671   6.792  0.6208 -1.4836  1.1678
   85MOL    H3032118   0.843   3.709   6.626  0.3578 -1.3212  0.2524
   85MOL    H3132119   0.977   3.492   6.770 -2.2057  0.2842  0.1651
   85MOL    H3232120   0.983   3.516   6.601 -2.1741 -2.0992  2.2526
   85MOL    H3332121   1.175   3.585   6.827  0.3260 -0.5264 -0.8681
   85MOL    H3432122   1.353   3.580   6.632 -0.4935 -2.0308  1.6905
   85MOL    H3532123   1.224   3.571   6.525  0.8572 -0.1060 -0.5082
   85MOL    H3632124   1.168   3.355   6.594  0.3520 -2.6309  0.1895
   85MOL    H3732125   1.260   3.366   6.743  0.2296  1.6242 -0.6235
   85MOL    H3832126   1.214   3.802   6.795  1.2844 -0.7667 -0.1060
   85MOL    H3932127   1.194   3.806   6.640  1.9783  2.2939  1.6913
   85MOL    C4032128   1.373   3.329   6.565 -0.0463  0.7346  0.0269
   85MOL    C4132129   1.418   3.193   6.621 -0.1423 -0.2910  0.5201
   85MOL    C4232130   1.421   3.099   6.496 -0.0079 -0.0325  0.0929
   85MOL    C4332131   1.330   3.159   6.396  0.4851  0.0667  0.0227
   85MOL    C4432132   1.354   3.112   6.249  0.6771  0.0352 -0.8960
   85MOL    C4532133   1.322   2.961   6.232  0.1410 -0.0623  0.4196
   85MOL    C4632134   1.347   3.308   6.413  0.4151  0.0826 -0.2018
   85MOL    H4732135   1.464   3.391   6.561  2.5680 -2.9269  0.4012
   85MOL    H4832136   1.345   3.154   6.692  0.4723 -3.3727 -0.4871
   85MOL    H4932137   1.515   3.196   6.671 -0.5908 -0.5715  1.4186
   85MOL    H5032138   1.524   3.081   6.464 -0.5143 -0.3891 -1.4017
   85MOL    H5132139   1.391   3.001   6.533  0.3729  0.5876  2.1086
   85MOL    H5232140   1.230   3.126   6.422 -0.0354  2.5841  1.3686
   85MOL    H5332141   1.304   3.175   6.175 -0.0822  0.4914 -0.0091
   85MOL    H5432142   1.460   3.126   6.229  0.9032 -0.0234  0.2505
   85MOL    H5532143   1.216   2.939   6.242 -0.1293 -0.0704 -2.1487
   85MOL    H5632144   1.380   2.897   6.299 -2.2553 -1.0863  1.5865
   85MOL    H5732145   1.429   3.341   6.350  1.1033 -3.2566 -1.1821
   85MOL    H5832146   1.250   3.345   6.380 -0.4972 -0.6556  1.5475
   85MOL    C5932147   1.337   2.913   6.081  0.1699 -0.5269  0.3122
   85MOL    C6032148   1.484   2.916   6.048 -0.3500 -0.7241 -0.0725
   85MOL    C6132149   1.509   2.782   5.977 -0.2833  0.2464 -0.5342
   85MOL    C6232150   1.405   2.683   6.035 -0.1488  0.3179 -0.7628
   85MOL    C6332151   1.370   2.554   5.955 -0.3178 -0.6766 -0.4472
   85MOL    C6432152   1.298   2.455   6.047 -0.2084 -0.2162  0.4866
   85MOL    C6532153   1.283   2.767   6.056  0.4337 -0.3760 -0.5896
   85MOL    H6632154   1.276   2.975   6.016 -2.0516 -2.8931  0.0469
   85MOL    H6732155   1.507   2.999   5.982 -2.4445 -0.8325 -0.9978
   85MOL    H6832156   1.539   2.929   6.141  0.5762  1.0747 -0.8560
   85MOL    H6932157   1.495   2.800   5.870 -0.3875  0.5778 -0.4661
   85MOL    H7032158   1.613   2.751   5.988 -0.6620  0.5083  5.2121
   85MOL    H7132159   1.454   2.656   6.129  2.1115 -1.2213 -2.3146
   85MOL    H7232160   1.461   2.501   5.927 -0.4159 -0.8191 -0.4956
   85MOL    H7332161   1.321   2.574   5.860  0.4565  2.8587 -0.1965
   85MOL    H7432162   1.386   2.412   6.095  0.2263 -1.0226 -1.0005
   85MOL    H7532163   1.238   2.508   6.122  0.6420  0.8915  0.3920
   85MOL    H7632164   1.228   2.783   5.963 -1.7823  0.1418  0.7493
   85MOL    H7732165   1.218   2.742   6.140  0.6590  1.9871  0.3375
   85MOL    C7832166   1.210   2.350   5.988 -0.4333 -0.9682 -0.1531
   85MOL    C7932167   1.169   2.238   6.078 -0.8799 -0.7801  0.1538
   85MOL    C8032168   1.053   2.173   6.006 -0.6590 -0.5535 -0.1871
   85MOL    C8132169   0.999   2.280   5.909  0.5461  1.0314 -0.1620
   85MOL    C8232170   0.847   2.277   5.889  0.6127 -0.7627 -0.6818
   85MOL    C8332171   0.802   2.409   5.815 -0.0940 -0.6017  0.0008
   85MOL    C8432172   1.073   2.413   5.941 -0.5717  0.0411  0.0747
   85MOL    H8532173   1.243   2.318   5.890  0.0810  1.9893 -0.9873
   85MOL    H8632174   1.259   2.178   6.094  0.7840  1.7475  0.5707
   85MOL    H8732175   1.134   2.271   6.175  0.6010 -2.9885  1.4966
   85MOL    H8832176   1.069   2.079   5.954  0.5333 -2.6621  3.8005
   85MOL    H8932177   0.978   2.146   6.080  0.8381 -3.3321  0.3969
   85MOL    H9032178   1.032   2.260   5.807  0.7164  0.9134 -0.0824
   85MOL    H9132179   0.791   2.291   5.981 -0.6687  1.7676 -1.7706
   85MOL    H9232180   0.817   2.182   5.846 -1.3475 -1.3843  1.9952
   85MOL    H9332181   0.871   2.444   5.738 -0.0969  0.6477  0.5621
   85MOL    H9432182   0.809   2.492   5.885 -0.8878  1.4659 -2.2618
   85MOL    H9532183   1.028   2.471   6.022 -0.1744  1.7001 -0.8701
   85MOL    H9632184   1.091   2.477   5.855 -0.9457 -0.3046 -0.2591
   85MOL    C9732185   0.664   2.391   5.745  0.4218 -0.6337  0.2189
   85MOL    C9832186   0.663   2.278   5.648  0.1828  0.1984  0.3084
   85MOL    C9932187   0.581   2.318   5.525  0.5598  0.2605 -0.1060
   85MOL   C10032188   0.525   2.459   5.558 -0.6235 -0.0358 -0.4386
   85MOL   C10132189   0.500   2.541   5.430  0.0562  0.0682 -0.4758
   85MOL   C10232190   0.434   2.675   5.448  0.2589  0.8849 -0.0191
   85MOL   C10332191   0.620   2.517   5.660 -0.1171 -0.5221 -0.0121
   85MOL   H10432192   0.584   2.382   5.819  0.9430  0.4992  0.9481
   85MOL   H10532193   0.762   2.260   5.608  0.9844  1.6694  1.5935
   85MOL   H10632194   0.628   2.180   5.680 -0.0511  1.2879  3.5322
   85MOL   H10732195   0.639   2.316   5.433  0.9856  0.2180  0.1637
   85MOL   H10832196   0.487   2.267   5.504  0.4320  1.3707 -2.3595
   85MOL   H10932197   0.427   2.457   5.605 -1.2033  0.7839 -1.5664
   85MOL   H11032198   0.603   2.552   5.394  0.2171 -0.1546 -0.0766
   85MOL   H11132199   0.436   2.485   5.362  0.3510 -0.5584 -0.2384
   85MOL   H11232200   0.386   2.692   5.544  1.9174 -0.3355  1.0521
   85MOL   H11332201   0.519   2.743   5.451  1.4957 -0.5687 -0.9297
   85MOL   H11432202   0.712   2.554   5.614  0.2632 -3.0407 -1.4002
   85MOL   H11532203   0.579   2.599   5.719 -0.4436  0.4946 -1.6255
   85MOL   C11632204   0.330   2.722   5.338 -0.3540 -0.3750 -0.2058
   85MOL   C11732205   0.187   2.648   5.341  0.5763  0.4602  0.1242
   85MOL   C11832206   0.091   2.753   5.270 -0.2385  0.4056  0.0337
   85MOL   C11932207   0.151   2.897   5.296  0.4815 -0.0428 -0.2390
   85MOL   C12032208   0.055   2.989   5.375  0.4742  0.5554 -0.1670
   85MOL   C12132209   7.594   3.057   5.288  0.2083 -0.3050  0.2190
   85MOL   C12232210   0.284   2.867   5.367 -0.2722 -1.3809  0.3052
   85MOL   H12332211   0.384   2.719   5.244  0.6680  2.0533  0.2627
   85MOL   H12432212   0.159   2.631   5.445  0.6611 -0.7511 -0.0412
   85MOL   H12532213   0.177   2.555   5.285  1.0731 -0.1774  1.0824
   85MOL   H12632214   7.640   2.727   5.310  0.6500  0.3141  2.2631
   85MOL   H12732215   0.099   2.740   5.162 -0.5917  1.4368 -0.1245
   85MOL   H12832216   0.169   2.930   5.194 -0.2321  1.2559  0.0499
   85MOL   H12932217   0.117   3.068   5.417  0.4188  0.4052  0.2043
   85MOL   H13032218   0.005   2.936   5.456 -0.4156  0.0922 -1.0017
   85MOL   H13132219   7.537   2.978   5.239  2.1702  0.0606 -2.8642
   85MOL   H13232220   7.642   3.112   5.206 -2.3171 -1.5942 -2.2367
   85MOL   H13332221   0.367   2.937   5.357 -0.9782 -0.2886  1.9308
   85MOL   H13432222   0.254   2.859   5.471 -0.2183  0.7205  0.5057
   85MOL   C13532223   7.505   3.157   5.360  0.5390  0.3960  0.0155
   85MOL   C13632224   7.421   3.250   5.273 -0.2998 -0.2270  0.0246
   85MOL   C13732225   7.270   3.195   5.289  0.0720 -0.1673  0.6870
   85MOL   C13832226   7.287   3.067   5.373  0.8520 -0.2883 -0.3917
   85MOL   C13932227   7.162   3.042   5.447 -0.0132 -0.1351  0.0942
   85MOL   C14032228   7.141   2.897   5.494 -0.2458  0.1278  0.1749
   85MOL   C14132229   7.408   3.096   5.461 -0.4258  0.2161 -0.2389
   85MOL   H14232230   7.568   3.223   5.420  2.9038 -2.2883  0.6696
   85MOL   H14332231   7.417   3.354   5.306  0.0353  0.6008 -2.4235
   85MOL   H14432232   7.460   3.244   5.171 -0.2836 -0.2989  0.0357
   85MOL   H14532233   7.215   3.274   5.341  1.1870  1.6045 -0.7465
   85MOL   H14632234   7.206   3.193   5.201 -2.2201 -1.8560  2.3611
   85MOL   H14732235   7.323   2.985   5.311  0.9188 -0.9622  0.5287
   85MOL   H14832236   7.072   3.060   5.388  0.8283 -1.4524 -1.6372
   85MOL   H14932237   7.153   3.119   5.524  0.5735 -1.3103  1.3732
   85MOL   H15032238   7.081   2.851   5.415  0.1113  2.7393 -1.7051
   85MOL   H15132239   7.237   2.846   5.492  0.3836  1.2619  1.4016
   85MOL   H15232240   7.447   3.005   5.506  1.5024  0.0457 -2.1838
   85MOL   H15332241   7.364   3.161   5.538 -0.9800  0.6675 -0.9273
   85MOL   C15432242   7.068   2.867   5.627 -0.6506 -0.2822  0.4013
   85MOL   C15532243   6.932   2.938   5.639 -0.1980 -0.4636  0.3432
   85MOL   C15632244   6.952   3.055   5.732 -0.6577  0.0046 -0.2877
   85MOL   C15732245   7.048   2.989   5.832 -0.2065  0.0367 -0.1108
   85MOL   C15832246   7.137   3.097   5.901  0.6921 -0.1412 -0.4793
   85MOL   C15932247   7.068   3.172   6.010  0.4437 -1.2074 -0.1402
   85MOL   C16032248   7.148   2.905   5.747  0.5964  0.1488  0.3593
   85MOL   H16132249   7.042   2.761   5.635  2.4471 -1.3200 -2.1750
   85MOL   H16232250   6.896   2.973   5.542 -0.5477 -1.1139  0.2417
   85MOL   H16332251   6.855   2.875   5.683 -1.0293 -1.1078 -1.9392
   85MOL   H16432252   7.000   3.139   5.680  1.1747 -1.1000 -0.4521
   85MOL   H16532253   6.859   3.087   5.778  0.2333 -0.1081  1.6411
   85MOL   H16632254   6.995   2.929   5.907  1.1189 -1.5452 -0.4117
   85MOL   H16732255   7.161   3.161   5.816  0.6828 -0.6440 -0.8658
   85MOL   H16832256   7.232   3.056   5.935  1.1903  1.1450 -0.2843
   85MOL   H16932257   6.971   3.208   5.977 -0.0823 -0.7446  1.8466
   85MOL   H17032258   7.043   3.112   6.097  1.5556 -0.2356  0.8760
   85MOL   H17132259   7.176   2.810   5.793 -2.2377  0.1991  2.3217
   85MOL   H17232260   7.243   2.949   5.716 -0.3263  0.3806 -2.2548
   85MOL   C17332261   7.149   3.288   6.060 -0.6631 -0.7705 -0.3017
   85MOL   C17432262   7.194   3.404   5.978 -0.2349 -1.1397 -0.3671
   85MOL   C17532263   7.241   3.514   6.080 -0.5426 -0.2522 -0.3811
   85MOL   C17632264   7.175   3.476   6.215  0.3088  0.1495  0.7137
   85MOL   C17732265   7.093   3.585   6.288 -0.8920 -0.7115 -0.1546
   85MOL   C17832266   7.192   3.700   6.334 -0.5463 -0.2084 -0.6979
   85MOL   C17932267   7.095   3.356   6.185 -0.4282 -0.0223  0.2916
   85MOL   H18032268   7.245   3.247   6.092 -0.3657  0.1588  0.0179
   85MOL   H18132269   7.099   3.436   5.936  0.1586  0.0851 -0.3395
   85MOL   H18232270   7.270   3.377   5.904  2.0129  1.9433  0.7126
   85MOL   H18332271   7.349   3.517   6.091 -0.7041 -0.0652  1.1639
   85MOL   H18432272   7.217   3.614   6.044 -1.5700 -0.9201 -1.6299
   85MOL   H18532273   7.258   3.439   6.275  1.7915  1.0235 -0.7471
   85MOL   H18632274   7.038   3.553   6.377 -1.7684  3.0879  0.7807
   85MOL   H18732275   7.026   3.638   6.220  1.1397  0.5648 -1.2224
   85MOL   H18832276   7.263   3.732   6.258  0.2924 -0.7128 -0.1344
   85MOL   H18932277   7.257   3.662   6.413 -0.3604  0.4287 -0.5446
   85MOL   H19032278   6.989   3.381   6.175 -0.0503  1.2871 -0.6403
   85MOL   H19132279   7.105   3.292   6.273  2.2293  0.6826  0.5332
   85MOL   C19232280   7.116   3.823   6.382 -0.2651 -0.5399  0.2256
   85MOL   C19332281   7.197   3.953   6.365  0.1696  0.3479  0.7397
   85MOL   C19432282   7.143   4.050   6.471 -0.0142 -0.1188  0.5365
   85MOL   C19532283   7.093   3.971   6.582 -0.3938  0.1556 -0.3705
   85MOL   C19632284   6.957   4.028   6.638  0.6567 -0.2759  0.2299
   85MOL   C19732285   6.965   4.150   6.733  0.4932  0.2516  0.4114
   85MOL   C19832286   7.074   3.823   6.528  0.4829  0.0106 -0.3696
   85MOL   H19932287   7.024   3.828   6.324 -0.1978 -0.9037  0.0883
   85MOL   H20032288   7.302   3.939   6.390  0.4953  2.3068  0.5106
   85MOL   H20132289   7.187   3.987   6.262  2.2135 -1.7625 -0.1940
   85MOL   H20232290   7.064   4.113   6.429  1.1466 -0.1835 -1.8505
   85MOL   H20332291   7.226   4.116   6.498  0.3632 -0.3362 -0.0779
   85MOL   H20432292   7.169   3.984   6.659 -0.1020  1.1769 -0.8311
   85MOL   H20532293   6.903   3.954   6.697  1.5137  0.0890  1.4903
   85MOL   H20632294   6.890   4.056   6.556 -0.0731 -1.9362  0.2283
   85MOL   H20732295   7.007   4.226   6.668 -1.5332  1.7786  0.8232
   85MOL   H20832296   7.034   4.132   6.815 -1.5350 -1.2075  1.8752
   85MOL   H20932297   6.971   3.788   6.525  0.2906  0.6353 -1.1284
   85MOL   H21032298   7.130   3.743   6.577  0.9948  0.3057 -0.4753
   85MOL   C21132299   6.830   4.186   6.793 -0.2749  0.1152 -0.0249
   85MOL   C21232300   6.732   4.245   6.688 -0.0195  1.1895  0.2177
   85MOL   C21332301   6.654   4.363   6.744 -0.1702 -0.7032  0.1465
   85MOL   C21432302   6.695   4.354   6.893  0.5440 -0.1471  0.1934
   85MOL   C21532303   6.685   4.485   6.964  0.9807 -0.3045 -0.0993
   85MOL   C21632304   6.707   4.479   7.121 -0.2809  0.7321  0.2791
   85MOL   C21732305   6.839   4.292   6.894  0.4206 -0.6910  0.0760
   85MOL   H21832306   6.790   4.097   6.841 -1.0942  0.4877  0.0021
   85MOL   H21932307   6.790   4.285   6.605  2.6357 -0.7533  1.0661
   85MOL   H22032308   6.662   4.167   6.657  0.9264  0.7229 -0.7976
   85MOL   H22132309   6.669   4.462   6.701 -0.5434  0.4087  2.4837
   85MOL   H22232310   6.547   4.342   6.740  0.2142 -2.8187  0.6841
   85MOL   H22332311   6.621   4.299   6.951 -2.2346  1.7607 -1.3931
   85MOL   H22432312   6.585   4.524   6.945  1.3396  0.6852 -0.0040
   85MOL   H22532313   6.757   4.556   6.925 -0.4107  1.4943  0.4912
   85MOL   H22632314   6.811   4.451   7.140 -0.2170  0.4463 -0.4492
   85MOL   H22732315   6.691   4.580   7.157 -0.7600  0.8608 -0.2914
   85MOL   H22832316   6.856   4.247   6.992  1.4283  0.2646  0.3448
   85MOL   H22932317   6.912   4.367   6.866 -1.6646  0.6739 -1.8470
   85MOL   C23032318   6.605   4.390   7.210  0.0159  0.1126  0.2543
   85MOL   C23132319   6.628   4.428   7.359  0.0594 -0.6957  0.8112
   85MOL   C23232320   6.558   4.319   7.431 -0.1318  0.0505 -0.4752
   85MOL   C23332321   6.568   4.196   7.341 -0.7715 -0.1230  0.4471
   85MOL   C23432322   6.429   4.136   7.329 -0.0479  0.8960 -0.0585
   85MOL   C23532323   6.422   3.994   7.266  0.2676  0.2784 -0.5518
   85MOL   C23632324   6.630   4.242   7.211  0.0745 -0.0878  0.4579
   85MOL   H23732325   6.505   4.421   7.180  0.6538  0.2713 -1.8271
   85MOL   H23832326   6.733   4.435   7.386  0.4568 -0.1911 -0.8368
   85MOL   H23932327   6.584   4.526   7.380  0.3442 -0.2333 -0.7214
   85MOL   H24032328   6.455   4.351   7.444  0.9465  2.8515  1.6514
   85MOL   H24132329   6.603   4.315   7.530 -0.9477 -0.6899 -0.1234
   85MOL   H24232330   6.630   4.120   7.390 -1.5791 -0.9461  0.2023
   85MOL   H24332331   6.367   4.196   7.262 -0.8696  0.7325  0.5606
   85MOL   H24432332   6.379   4.122   7.424 -0.5600 -2.0019 -0.7057
   85MOL   H24532333   6.455   3.999   7.163  1.6555 -0.2494 -0.1367
   85MOL   H24632334   6.495   3.934   7.320 -0.6755 -0.0369  0.4014
   85MOL   H24732335   6.598   4.182   7.126  0.5708  0.3719 -0.0511
   85MOL   H24832336   6.735   4.216   7.226 -0.2486 -0.4779  2.2308
   85MOL   C24932337   6.275   3.930   7.269  0.8478  0.2115 -0.1808
   85MOL   C25032338   6.266   3.796   7.197  0.6736  0.8008  0.3915
   85MOL   C25132339   6.131   3.742   7.256  0.1494  0.7070 -0.4969
   85MOL   C25232340   6.138   3.782   7.403 -0.4995  0.0200 -0.4707
   85MOL   C25332341   5.996   3.797   7.456  0.2195 -0.2355  0.4138
   85MOL   C25432342   5.923   3.668   7.500 -0.0865 -0.0987  0.0999
   85MOL   C25532343   6.229   3.903   7.408  0.1788  0.2775  0.1970
   85MOL   H25632344   6.206   4.003   7.228 -1.5741 -0.3984  2.6457
   85MOL   H25732345   6.252   3.807   7.090  0.0627  0.1746  0.4038
   85MOL   H25832346   6.360   3.741   7.212  1.1095  1.0382 -1.3704
   85MOL   H25932347   6.114   3.638   7.228 -0.4498  1.0335 -1.3811
   85MOL   H26032348   6.046   3.794   7.211  1.6030  3.1785 -0.4762
   85MOL   H26132349   6.182   3.697   7.456  0.3309 -0.8157 -2.4495
   85MOL   H26232350   5.934   3.855   7.387 -0.3541  0.7813  1.7642
   85MOL   H26332351   6.005   3.869   7.538 -0.6264  1.0589 -0.6020
   85MOL   H26432352   5.963   3.631   7.595 -1.2095  0.8237  0.9407
   85MOL   H26532353   5.944   3.582   7.436  2.7310 -0.0276  0.8679
   85MOL   H26632354   6.311   3.892   7.478 -0.0019 -0.7875  0.2520
   85MOL   H26732355   6.175   3.992   7.441  0.2473  0.5131 -0.3214
   85MOL   C26832356   5.769   3.694   7.510 -0.2986  0.2884 -0.0737
   85MOL   C26932357   5.723   3.817   7.593 -0.8880 -0.2971  0.0071
   85MOL   C27032358   5.579   3.779   0.005 -0.3370  0.4216 -0.2960
   85MOL   C27132359   5.540   3.647   7.579 -0.1451  0.3094 -0.4653
   85MOL   C27232360   5.445   3.552   0.013  0.0922  0.5692  0.5316
   85MOL   C27332361   5.310   3.611   0.033  0.1689 -0.0925 -0.4738
   85MOL   C27432362   5.674   3.586   7.553  0.2129  0.2687 -0.4644
   85MOL   H27532363   5.736   3.716   7.408 -0.9194 -3.1579 -0.6605
   85MOL   H27632364   5.799   3.833   0.022 -0.3610  0.2180 -0.6242
   85MOL   H27732365   5.709   3.910   7.538 -1.8411  0.0807  0.8557
   85MOL   H27832366   5.581   3.763   0.113 -2.6361  1.0667 -0.1416
   85MOL   H27932367   5.518   3.866   7.631 -1.6087 -0.6397 -1.0820
   85MOL   H28032368   5.492   3.670   7.484 -1.7289 -0.2786  0.1690
   85MOL   H28132369   5.497   3.518   0.103 -0.6215 -0.2367  0.6441
   85MOL   H28232370   5.438   3.467   7.593  1.7260  0.2723  0.7088
   85MOL   H28332371   5.318   3.704   0.090 -2.1119 -0.7122  0.9289
   85MOL   H28432372   5.264   3.649   7.589 -1.0481 -1.2060 -0.3369
   85MOL   H28532373   5.715   3.542   7.644 -1.3456 -0.5537 -0.1500
   85MOL   H28632374   5.671   3.502   7.484  0.5754 -0.5694  0.5226
   85MOL   C28732375   5.210   3.509   0.087  0.2249 -0.6919  0.7478
   85MOL   C28832376   5.203   3.477   0.239  0.4067 -0.2332  0.2227
   85MOL   C28932377   5.058   3.453   0.281  1.1966 -0.6670  0.1600
   85MOL   C29032378   4.975   3.457   0.156 -0.6558 -1.0615  0.3977
   85MOL   C29132379   4.832   3.509   0.166 -0.8600 -0.2762 -0.4584
   85MOL   C29232380   4.754   3.452   0.285  0.1629  0.0639  0.1269
   85MOL   C29332381   5.061   3.538   0.054  0.5716 -0.3966 -0.2859
   85MOL   H29432382   5.213   3.415   0.031 -0.0335 -0.1494 -0.2005
   85MOL   H29532383   5.269   3.396   0.270  0.0147 -1.3767 -1.8764
   85MOL   H29632384   5.246   3.566   0.285 -0.2894  1.0108 -1.4667
   85MOL   H29732385   5.020   3.536   0.341 -0.2091 -1.1180 -0.0794
   85MOL   H29832386   5.052   3.364   0.343 -0.1524 -1.4677 -1.0774
   85MOL   H29932387   4.972   3.351   0.130 -0.7947 -0.7794 -0.7375
   85MOL   H30032388   4.787   3.491   0.068 -0.9329  1.5913 -0.7843
   85MOL   H30132389   4.830   3.618   0.171  1.3384 -0.2250 -0.0601
   85MOL   H30232390   4.815   3.459   0.375 -0.7040  1.9278  0.5989
   85MOL   H30332391   4.732   3.350   0.254  0.6580  0.0771 -0.2630
   85MOL   H30432392   5.050   3.644   0.077  1.3067 -0.3606 -0.0808
   85MOL   H30532393   5.028   3.526   7.598  0.1255 -2.1912  0.0430
   85MOL   C30632394   4.627   3.535   0.312  0.0986 -0.7083 -0.5434
   85MOL   C30732395   4.529   3.558   0.204 -0.7971 -0.1731 -0.0681
   85MOL   C30832396   4.391   3.534   0.255 -0.2956  0.2103  0.1951
   85MOL   C30932397   4.407   3.544   0.407  0.1098 -0.5649 -0.2498
   85MOL   C31032398   4.292   3.465   0.474 -0.2781  0.4042 -0.1616
   85MOL   C31132399   4.161   3.527   0.470  0.0597 -0.1687 -0.1395
   85MOL   C31232400   4.546   3.485   0.431  0.5192 -0.3915  0.0458
   85MOL   H31332401   4.667   3.634   0.333  1.0967 -1.3030  0.4300
   85MOL   H31432402   4.535   3.662   0.172 -0.1016 -0.4266 -0.7546
   85MOL   H31532403   4.556   3.503   0.114  3.1984 -1.5774  1.8930
   85MOL   H31632404   4.311   3.601   0.222  0.5410  1.6490  1.0280
   85MOL   H31732405   4.354   3.433   0.235 -1.5608  0.3104  1.8807
   85MOL   H31832406   4.415   3.649   0.435  2.2401 -0.4940 -1.0368
   85MOL   H31932407   4.284   3.365   0.431 -2.7897  0.8522 -0.8224
   85MOL   H32032408   4.328   3.436   0.573  1.6606 -2.1056 -1.5576
   85MOL   H32132409   4.086   3.453   0.444 -0.2352  0.5965 -1.5190
   85MOL   H32232410   4.156   3.611   0.400  0.4850  0.7273  0.8901
   85MOL   H32332411   4.543   3.376   0.426 -3.8916 -0.4439  1.6672
   85MOL   H32432412   4.586   3.515   0.528 -1.2458 -0.6608  0.8711
   85MOL   C32532413   4.112   3.593   0.602  0.0411  0.5955  0.2174
   85MOL   C32632414   3.995   3.694   0.582 -0.1535  0.6642 -0.4976
   85MOL   C32732415   3.926   3.688   0.717 -0.3416  0.8277  0.4788
   85MOL   C32832416   3.954   3.551   0.787 -1.1192  0.8567  0.3957
   85MOL   C32932417   3.986   3.558   0.939  0.6710  0.3876  0.4099
   85MOL   C33032418   3.871   3.603   1.032  0.5315 -0.4636  0.1782
   85MOL   C33132419   4.064   3.478   0.695  0.0319  0.1798  0.4757
   85MOL   H33232420   4.197   3.642   0.649  0.1739  0.4334  0.1484
   85MOL   H33332421   3.923   3.669   0.505 -2.3410  3.2168  0.6456
   85MOL   H33432422   4.024   3.799   0.575  1.0446  0.3498 -0.3892
   85MOL   H33532423   3.953   3.771   0.781 -0.1950 -0.2839  1.8794
   85MOL   H33632424   3.818   3.700   0.707 -0.5998 -1.6341 -0.1603
   85MOL   H33732425   3.870   3.483   0.768 -0.1369 -0.1352 -0.4999
   85MOL   H33832426   3.997   3.455   0.974  0.5895 -0.0728 -0.9001
   85MOL   H33932427   4.080   3.611   0.955  0.6538  0.6868 -0.4680
   85MOL   H34032428   3.831   3.702   1.011  0.6399 -0.2296  1.0776
   85MOL   H34132429   3.791   3.529   1.022  0.2119 -0.2534  1.1101
   85MOL   H34232430   4.019   3.399   0.635 -0.1707 -1.1358  2.3232
   85MOL   H34332431   4.146   3.445   0.758  1.3437  3.7435  0.7402
   85MOL   C34432432   3.905   3.611   1.181  0.3221  0.2005 -0.6058
   85MOL   C34532433   3.785   3.653   1.267  0.9726 -0.3602  0.4564
   85MOL   C34632434   3.848   3.721   1.383 -0.4016  1.2297 -0.4667
   85MOL   C34732435   3.968   3.799   1.322  0.6792  0.6234  1.3652
   85MOL   C34832436   4.070   3.832   1.434 -0.7753  0.2519 -0.0312
   85MOL   C34932437   4.052   3.981   1.488 -0.4412 -1.0594 -0.1116
   85MOL   C35032438   4.025   3.698   1.218  0.2023  1.1324  0.7027
   85MOL   H35132439   3.925   3.512   1.223 -1.2866  0.0361 -0.1860
   85MOL   H35232440   3.727   3.567   1.300 -0.5630  0.7137  0.5866
   85MOL   H35332441   3.715   3.715   1.213  2.0957  1.0869  0.6316
   85MOL   H35432442   3.776   3.778   1.441  0.7346  0.3258  1.9119
   85MOL   H35532443   3.868   3.637   1.449  2.0386  1.9749 -0.1977
   85MOL   H35632444   3.921   3.883   1.270 -2.0736 -2.3699 -1.2800
   85MOL   H35732445   4.062   3.773   1.526  2.8313  2.7095  1.9885
   85MOL   H35832446   4.174   3.824   1.402 -0.7559  1.7009 -0.3399
   85MOL   H35932447   3.957   3.993   1.540 -0.1798 -0.1874  0.1740
   85MOL   H36032448   4.053   4.042   1.398  0.3298 -0.6957  0.1395
   85MOL   H36132449   4.058   3.755   1.131 -0.0389  4.0234  2.4525
   85MOL   H36232450   4.109   3.640   1.258 -0.4542  0.3850  1.0036
   85MOL   C36332451   4.156   4.044   1.586  0.4993  0.0048  0.0502
   85MOL   C36432452   4.168   3.955   1.714 -0.2357 -0.3349 -0.3914
   85MOL   C36532453   4.178   4.059   1.831 -0.0980  0.4902  0.3359
   85MOL   C36632454   4.189   4.196   1.772  1.0085 -0.8590  0.1808
   85MOL   C36732455   4.142   4.306   1.866  0.1687  0.0425 -0.7566
   85MOL   C36832456   4.172   4.442   1.810 -0.2982 -0.1446  0.6256
   85MOL   C36932457   4.118   4.185   1.636  0.4938  0.4715 -0.4415
   85MOL   H37032458   4.257   4.047   1.545  0.4986  1.5099  0.1420
   85MOL   H37132459   4.085   3.884   1.714  0.3921 -1.1244  2.0134
   85MOL   H37232460   4.259   3.895   1.711 -1.5447 -2.4246  0.1473
   85MOL   H37332461   4.082   4.061   1.882 -0.0708  1.0471  0.3600
   85MOL   H37432462   4.258   4.042   1.904  0.4617 -2.1244 -0.8180
   85MOL   H37532463   4.295   4.205   1.748  0.4233  1.5059 -1.7652
   85MOL   H37632464   4.037   4.287   1.890  0.3113 -1.2239 -1.0975
   85MOL   H37732465   4.193   4.302   1.962 -1.8028  0.6965  0.3398
   85MOL   H37832466   4.122   4.522   1.864  1.2778  0.4297  1.2901
   85MOL   H37932467   4.136   4.441   1.707  0.3366 -0.8681  0.4032
   85MOL   H38032468   4.010   4.188   1.650  0.4698  0.0808 -0.5201
   85MOL   H38132469   4.141   4.259   1.560  1.4042  0.3579 -0.2918
   85MOL   H38232470   4.279   4.461   1.801 -0.6534  1.8025  0.2394
   86MOL     C132471   0.336   5.215   0.702 -0.5610 -0.1553 -0.1436
   86MOL     C232472   0.395   5.350   0.647  0.2510 -0.2034 -0.2325
   86MOL     C332473   0.436   5.316   0.499  0.3955  0.1496  0.1421
   86MOL     C432474   0.369   5.182   0.468  0.1294  0.5182  0.1522
   86MOL     C532475   0.422   5.103   0.352 -0.6842  0.3732  0.0730
   86MOL     C632476   0.424   5.176   0.217 -0.3457 -0.2164 -0.7745
   86MOL     C732477   0.382   5.108   0.605 -0.0432  0.8427  0.6402
   86MOL     H832478   0.370   5.201   0.804  0.9920  0.9924 -0.4804
   86MOL     H932479   0.484   5.378   0.704  0.6067 -1.2165 -0.2814
   86MOL    H1032480   0.320   5.429   0.647  1.8507  1.3537 -1.0997
   86MOL    H1132481   0.384   5.382   0.428 -0.9494 -0.4918  0.5189
   86MOL    H1232482   0.544   5.312   0.483  0.7235  0.4715  2.2407
   86MOL    H1332483   0.262   5.197   0.457  0.3779  2.8651  0.7242
   86MOL    H1432484   0.525   5.086   0.383 -1.1985  0.1700  1.7388
   86MOL    H1532485   0.376   5.004   0.347 -2.7625  1.3978 -2.1721
   86MOL    H1632486   0.325   5.213   0.191 -0.4447 -0.0131 -0.0938
   86MOL    H1732487   0.485   5.263   0.242  0.2520 -0.6834 -0.6005
   86MOL    H1832488   0.307   5.029   0.608 -1.4448  2.1417  0.6471
   86MOL    H1932489   0.475   5.066   0.642 -0.5672 -0.3817  0.5914
   86MOL    H2032490   0.228   5.209   0.713 -0.6018  1.1867  0.3204
   86MOL    C2132491   0.499   5.107   0.104  0.3943 -0.1609 -0.5346
   86MOL    C2232492   0.427   4.977   0.038  0.6938 -0.8827  1.1572
   86MOL    C2332493   0.453   4.983   7.526  0.0685  0.3018 -0.0861
   86MOL    C2432494   0.548   5.109   7.506  0.7469  0.5490 -0.2254
   86MOL    C2532495   0.528   5.176   7.372 -0.6521 -0.0059 -0.5500
   86MOL    C2632496   0.596   5.313   7.369  0.9350 -0.3957  0.7801
   86MOL    C2732497   0.508   5.190   7.626 -0.6527 -0.6519 -0.2596
   86MOL    H2832498   0.600   5.081   0.138  1.0550 -0.9813 -3.0573
   86MOL    H2932499   0.452   4.879   0.078 -3.1464 -1.3719  2.5947
   86MOL    H3032500   0.320   4.988   0.058  0.2651  0.1204 -1.4239
   86MOL    H3132501   0.512   4.891   7.517 -0.0749  0.1748  0.2620
   86MOL    H3232502   0.363   4.971   7.466  1.8218 -0.6194 -2.6380
   86MOL    H3332503   0.654   5.083   7.515  0.6827  0.2899 -0.2196
   86MOL    H3432504   0.420   5.188   7.364 -0.7790 -1.0699 -0.4317
   86MOL    H3532505   0.556   5.103   7.297 -2.5022 -1.2124 -0.1156
   86MOL    H3632506   0.702   5.303   7.392  1.5357  3.1275 -0.1486
   86MOL    H3732507   0.543   5.372   7.442 -0.0612  3.1920 -2.6814
   86MOL    H3832508   0.588   5.260   7.647 -0.2694 -0.6937 -1.5749
   86MOL    H3932509   0.412   5.241   7.618 -0.5649 -0.5044 -0.3749
   86MOL    C4032510   0.579   5.400   7.237 -0.7821 -0.7149 -0.2815
   86MOL    C4132511   0.670   5.528   7.236  0.0128 -0.8131  0.5837
   86MOL    C4232512   0.795   5.489   7.151 -0.2137 -0.1316 -0.2318
   86MOL    C4332513   0.775   5.343   7.103  1.1039 -0.4741  0.6077
   86MOL    C4432514   0.837   5.314   6.965  0.4921 -0.1460  0.8992
   86MOL    C4532515   0.966   5.228   6.972  0.7469  0.1483  0.9825
   86MOL    C4632516   0.624   5.325   7.113  0.0005  0.0545  0.4172
   86MOL    H4732517   0.474   5.429   7.232 -0.4211  0.4220 -2.0593
   86MOL    H4832518   0.703   5.554   7.337  0.6065 -0.7263  0.3686
   86MOL    H4932519   0.612   5.597   7.175  0.2617  0.4909  1.8070
   86MOL    H5032520   0.801   5.568   7.076 -3.4042  0.5918  0.2094
   86MOL    H5132521   0.887   5.498   7.210 -0.7350 -1.4736  0.7982
   86MOL    H5232522   0.824   5.282   7.179 -0.2358 -2.3006  0.0354
   86MOL    H5332523   0.776   5.253   6.899 -0.6384  1.9921 -0.0478
   86MOL    H5432524   0.849   5.407   6.909 -0.0774 -2.0409 -2.5103
   86MOL    H5532525   0.923   5.129   6.990  1.9340 -0.3181  1.2881
   86MOL    H5632526   1.026   5.243   7.061  1.1487 -2.8463  1.2654
   86MOL    H5732527   0.579   5.365   7.022 -0.8617 -0.3358  0.6614
   86MOL    H5832528   0.586   5.223   7.116  0.8052 -0.2515  0.3787
   86MOL    C5932529   1.056   5.234   6.845  0.5191 -0.2783  0.7038
   86MOL    C6032530   0.996   5.168   6.717  0.0678  0.4317 -0.3958
   86MOL    C6132531   1.021   5.260   6.601  0.3078 -0.1805  0.5351
   86MOL    C6232532   1.144   5.345   6.651 -0.0881 -0.2699  0.2997
   86MOL    C6332533   1.279   5.273   6.635 -0.9463 -0.4608  0.4244
   86MOL    C6432534   1.411   5.365   6.646 -0.5505  0.0261  0.0674
   86MOL    C6532535   1.116   5.369   6.805 -0.2153  0.9468  0.4254
   86MOL    H6632536   1.145   5.177   6.869 -0.0699 -1.4915  0.0217
   86MOL    H6732537   1.045   5.076   6.688  0.7459  0.9360 -0.8839
   86MOL    H6832538   0.891   5.143   6.729  0.1061 -0.3629 -1.6204
   86MOL    H6932539   1.039   5.204   6.509 -1.9327 -1.6265  0.9373
   86MOL    H7032540   0.933   5.324   6.590 -1.3919 -2.6226 -0.4123
   86MOL    H7132541   1.142   5.437   6.592 -1.5330  0.0464  0.8090
   86MOL    H7232542   1.280   5.205   6.549  2.4938 -0.1186  0.1125
   86MOL    H7332543   1.276   5.194   6.710  1.4117 -1.5142 -0.5398
   86MOL    H7432544   1.395   5.462   6.598  0.8086 -0.7295 -1.9915
   86MOL    H7532545   1.424   5.396   6.750  1.4557 -0.5703  0.0202
   86MOL    H7632546   1.209   5.387   6.859 -1.0119  0.3389  2.0302
   86MOL    H7732547   1.040   5.446   6.822  0.8869  2.0198  0.5914
   86MOL    C7832548   1.539   5.283   6.590  0.5437  0.0421 -0.4706
   86MOL    C7932549   1.542   5.275   6.435  0.1256  0.1619  0.1794
   86MOL    C8032550   1.675   5.336   6.387  0.5623 -0.5198  0.2425
   86MOL    C8132551   1.767   5.302   6.507  0.4643 -0.0086 -0.6266
   86MOL    C8232552   1.906   5.376   6.507 -0.0644 -0.4098 -0.4703
   86MOL    C8332553   2.002   5.338   6.622  0.0370 -0.0003 -0.5920
   86MOL    C8432554   1.675   5.348   6.612  0.3625 -0.2599 -1.0118
   86MOL    H8532555   1.545   5.179   6.623  0.4835 -0.1386 -1.0316
   86MOL    H8632556   1.547   5.168   6.417  1.4225  0.3094 -0.3651
   86MOL    H8732557   1.456   5.330   6.397 -0.6525  1.4527  3.6384
   86MOL    H8832558   1.710   5.302   6.290  1.5707  0.0955  0.3884
   86MOL    H8932559   1.663   5.445   6.384 -0.7495 -0.6689 -0.8874
   86MOL    H9032560   1.772   5.194   6.522 -1.6268  0.1338  1.4795
   86MOL    H9132561   1.894   5.484   6.516  0.4973 -0.5112  1.7196
   86MOL    H9232562   1.965   5.345   6.420  1.5537 -1.9731  1.1403
   86MOL    H9332563   2.007   5.230   6.626 -3.1086 -0.3240 -3.0973
   86MOL    H9432564   1.956   5.367   6.716 -0.0739 -1.1241 -0.3022
   86MOL    H9532565   1.660   5.456   6.609  2.8452  0.1273 -0.5753
   86MOL    H9632566   1.717   5.331   6.711  1.5706 -1.7887 -1.7580
   86MOL    C9732567   2.144   5.401   6.612  0.1502  1.3546 -0.4126
   86MOL    C9832568   2.155   5.550   6.621 -0.4923 -0.4251  0.0058
   86MOL    C9932569   2.303   5.565   6.589  0.2155 -0.3620  0.3524
   86MOL   C10032570   2.335   5.454   6.489  0.3578  0.6619 -0.0328
   86MOL   C10132571   2.370   5.494   6.345  0.7021  0.4596 -1.0850
   86MOL   C10232572   2.439   5.380   6.267 -0.0149 -0.1449  0.5790
   86MOL   C10332573   2.226   5.352   6.494  0.0168  0.4425 -0.1973
   86MOL   H10432574   2.195   5.366   6.701  0.7188  0.3609 -1.1207
   86MOL   H10532575   2.087   5.608   6.560  0.4546  0.2390 -0.4285
   86MOL   H10632576   2.122   5.589   6.717 -1.9578 -1.0658 -0.2262
   86MOL   H10732577   2.331   5.659   6.541 -0.0087 -0.2359  0.4646
   86MOL   H10832578   2.369   5.557   6.675  1.0745  1.9580 -0.0507
   86MOL   H10932579   2.430   5.419   6.531  0.2860  0.3276 -0.1484
   86MOL   H11032580   2.276   5.517   6.294  0.5750  1.4093 -0.4400
   86MOL   H11132581   2.439   5.578   6.337  2.6508 -1.1436 -1.4001
   86MOL   H11232582   2.529   5.345   6.318 -0.3064 -0.0230  1.1785
   86MOL   H11332583   2.374   5.293   6.278 -1.5185  0.9664  0.5842
   86MOL   H11432584   2.171   5.351   6.400 -0.8389 -2.1974  0.2951
   86MOL   H11532585   2.261   5.252   6.519  0.9232  1.0631  1.0961
   86MOL   C11632586   2.475   5.409   6.113 -0.1110  0.4537  0.7061
   86MOL   C11732587   2.368   5.440   6.012 -0.2218 -1.1146 -0.2466
   86MOL   C11832588   2.440   5.521   5.902  0.3399 -0.0417 -0.2829
   86MOL   C11932589   2.589   5.533   5.939  0.2455 -0.1789 -0.6255
   86MOL   C12032590   2.670   5.668   5.907 -0.0325 -0.4141 -0.0971
   86MOL   C12132591   2.823   5.654   5.909 -0.2436 -0.1773 -0.3791
   86MOL   C12232592   2.577   5.521   6.094 -0.3641 -0.3467  0.2475
   86MOL   H12332593   2.520   5.314   6.084  0.0369  0.5957  0.4695
   86MOL   H12432594   2.277   5.482   6.056  0.7379 -2.5637  3.2597
   86MOL   H12532595   2.328   5.348   5.969 -1.7635  0.7143 -2.9256
   86MOL   H12632596   2.400   5.622   5.902  0.4718  0.0125  0.3227
   86MOL   H12732597   2.427   5.483   5.801  0.9165 -1.9064  0.3297
   86MOL   H12832598   2.641   5.441   5.915 -0.5497 -0.6116 -0.6988
   86MOL   H12932599   2.643   5.756   5.965  2.4230  0.0118  0.4443
   86MOL   H13032600   2.648   5.704   5.807 -2.4227  2.0888  1.2630
   86MOL   H13132601   2.856   5.580   5.836  0.3878  0.2943 -0.5725
   86MOL   H13232602   2.841   5.617   6.010  0.9597 -1.7496 -1.1503
   86MOL   H13332603   2.675   5.488   6.128  0.1294 -0.0517 -0.8508
   86MOL   H13432604   2.546   5.618   6.134 -1.3452 -0.2490 -0.7288
   86MOL   C13532605   2.898   5.782   5.870  0.7111  0.0990  0.1765
   86MOL   C13632606   3.048   5.746   5.850 -0.2138 -0.1511  0.0286
   86MOL   C13732607   3.101   5.860   5.758  0.5776  0.1267  0.1839
   86MOL   C13832608   2.984   5.903   5.670  0.1014 -0.1858  0.0437
   86MOL   C13932609   2.968   6.051   5.632  0.5590 -0.2845 -0.8761
   86MOL   C14032610   2.946   6.145   5.747 -0.2232 -0.3884 -0.0477
   86MOL   C14132611   2.858   5.835   5.735 -0.0259 -0.6091 -0.1429
   86MOL   H14232612   2.892   5.862   5.943 -0.3514 -0.1244  0.3507
   86MOL   H14332613   3.123   5.737   5.928 -0.0070 -2.0956 -0.3787
   86MOL   H14432614   3.057   5.650   5.799 -1.1823 -0.2133 -0.0308
   86MOL   H14532615   3.131   5.946   5.819 -0.6775  0.8582 -0.1970
   86MOL   H14632616   3.186   5.830   5.697 -0.8869 -0.6782 -1.5241
   86MOL   H14732617   3.010   5.850   5.579 -0.2032  1.1151 -0.8247
   86MOL   H14832618   2.881   6.047   5.568  1.0842  0.4258 -1.6558
   86MOL   H14932619   3.053   6.082   5.570 -0.5218 -0.0927 -2.2781
   86MOL   H15032620   2.886   6.097   5.824  0.5916  0.5445  1.1811
   86MOL   H15132621   3.046   6.159   5.788 -0.4329  0.3879  0.2079
   86MOL   H15232622   2.814   5.753   5.679  2.0284 -3.1200  1.7647
   86MOL   H15332623   2.782   5.912   5.750  2.1295  1.5376  0.1463
   86MOL   C15432624   2.895   6.278   5.705  0.0268  0.8729 -0.3565
   86MOL   C15532625   2.984   6.355   5.602 -0.1552 -0.3700 -0.7398
   86MOL   C15632626   2.951   6.499   5.633  0.7436  0.2733  0.3154
   86MOL   C15732627   2.940   6.511   5.782  0.5655  0.4567 -0.4463
   86MOL   C15832628   3.068   6.548   5.853  0.2709  0.0559 -0.7372
   86MOL   C15932629   3.048   6.571   6.002  0.4911  0.0182 -0.7193
   86MOL   C16032630   2.884   6.375   5.830  0.3419 -0.3489 -0.1292
   86MOL   H16132631   2.797   6.265   5.660  0.2575 -1.0127 -0.3666
   86MOL   H16232632   3.088   6.334   5.627 -0.6074 -1.0253  0.6119
   86MOL   H16332633   2.968   6.315   5.502  0.4493 -0.3436 -0.8519
   86MOL   H16432634   3.010   6.579   5.589 -0.0037  1.1568  0.9021
   86MOL   H16532635   2.853   6.523   5.591  1.3823 -0.5548 -1.7398
   86MOL   H16632636   2.866   6.588   5.804  1.2907  0.5755  1.6776
   86MOL   H16732637   3.101   6.644   5.813 -0.8844  1.0001  0.5048
   86MOL   H16832638   3.151   6.478   5.853  1.1049  1.0320 -0.7566
   86MOL   H16932639   2.985   6.656   6.029  2.1955  0.6085  1.5605
   86MOL   H17032640   2.989   6.489   6.044  2.9264 -1.0452  0.6993
   86MOL   H17132641   2.783   6.393   5.865  0.7013 -3.1256  2.4933
   86MOL   H17232642   2.941   6.339   5.915  1.6217 -1.5673 -1.4683
   86MOL   C17332643   3.179   6.585   6.083  0.3234 -0.4477  0.2070
   86MOL   C17432644   3.158   6.645   6.219 -0.1388  0.2888 -0.5283
   86MOL   C17532645   3.214   6.539   6.311  0.1611 -0.5884  0.3135
   86MOL   C17632646   3.324   6.467   6.230  0.0446  0.0856  0.0175
   86MOL   C17732647   3.362   6.336   6.287 -0.1599 -0.3074 -0.5063
   86MOL   C17832648   3.451   6.248   6.205 -0.0739 -0.1435  0.4907
   86MOL   C17932649   3.261   6.457   6.087 -0.6420 -0.1035  0.2630
   86MOL   H18032650   3.243   6.652   6.025  0.8103 -0.7740  0.3706
   86MOL   H18132651   3.056   6.665   6.253  0.0188 -0.9513  0.7566
   86MOL   H18232652   3.210   6.739   6.229 -1.1491  0.7790  0.2621
   86MOL   H18332653   3.231   6.587   6.407 -0.9751  0.0733  0.1980
   86MOL   H18432654   3.142   6.458   6.317 -1.5363  0.8788  0.1749
   86MOL   H18532655   3.410   6.532   6.217  0.7317 -0.3979  2.0304
   86MOL   H18632656   3.275   6.275   6.307  0.1191 -0.4437  0.3118
   86MOL   H18732657   3.407   6.356   6.384  0.7376  0.2587 -1.0220
   86MOL   H18832658   3.534   6.311   6.173 -1.4804  2.4965  1.9246
   86MOL   H18932659   3.401   6.215   6.113 -2.2136 -3.1781  2.6518
   86MOL   H19032660   3.203   6.365   6.092 -0.7129  0.0306  2.1738
   86MOL   H19132661   3.336   6.460   6.008 -0.9242  1.8732  0.0374
   86MOL   C19232662   3.505   6.130   6.279 -0.7282 -0.4758  0.0266
   86MOL   C19332663   3.610   6.048   6.198 -0.3845 -1.0516  0.7097
   86MOL   C19432664   3.626   5.921   6.279 -0.1208  0.0836 -0.1170
   86MOL   C19532665   3.485   5.904   6.350 -0.8128 -1.1004 -0.1543
   86MOL   C19632666   3.505   5.876   6.499 -0.2886  0.3477 -1.0406
   86MOL   C19732667   3.570   5.743   6.537  0.0363 -0.3187 -0.4475
   86MOL   C19832668   3.404   6.034   6.321  0.1722  0.7485 -0.2224
   86MOL   H19932669   3.542   6.163   6.376  1.6949  0.2498 -1.1183
   86MOL   H20032670   3.567   6.025   6.100 -0.3169 -0.0370  0.4434
   86MOL   H20132671   3.701   6.105   6.180 -1.1760 -0.0405 -0.1665
   86MOL   H20232672   3.715   5.925   6.342 -1.2596  2.6956  1.3971
   86MOL   H20332673   3.637   5.834   6.214  0.7619 -0.9210  1.3330
   86MOL   H20432674   3.420   5.821   6.320 -2.8711  0.0789  0.9101
   86MOL   H20532675   3.413   5.885   6.557  0.7601  1.0791  0.5477
   86MOL   H20632676   3.571   5.952   6.541 -0.6563 -0.6067  1.3767
   86MOL   H20732677   3.663   5.725   6.482  0.1660 -2.1830  0.3242
   86MOL   H20832678   3.499   5.665   6.510  0.7255 -1.2134  0.2890
   86MOL   H20932679   3.350   6.072   6.408  1.1959 -2.0027  1.6791
   86MOL   H21032680   3.347   6.014   6.230 -0.3448 -0.8661  0.4390
   86MOL   C21132681   3.605   5.739   6.686 -0.3729 -0.9774 -0.8125
   86MOL   C21232682   3.649   5.590   6.729 -0.3093  0.5430  0.7284
   86MOL   C21332683   3.632   5.575   6.885 -0.0679 -0.4438  1.1037
   86MOL   C21432684   3.568   5.710   6.924 -0.5028 -0.0579  0.1222
   86MOL   C21532685   3.466   5.705   7.041 -0.6626 -0.2514  0.7725
   86MOL   C21632686   3.393   5.839   7.075  0.1602  0.1481 -0.4478
   86MOL   C21732687   3.502   5.758   6.795 -0.5836  0.6794  0.8024
   86MOL   H21832688   3.683   5.808   6.719  0.1902 -2.1825  0.4416
   86MOL   H21932689   3.580   5.522   6.679 -1.3124  1.5821  0.6657
   86MOL   H22032690   3.748   5.565   6.691 -0.7324  0.3564 -0.2882
   86MOL   H22132691   3.570   5.495   6.925 -1.3886  1.4984  3.0175
   86MOL   H22232692   3.733   5.572   6.926  1.6933 -2.3320 -3.0480
   86MOL   H22332693   3.648   5.777   6.956 -1.4072  1.2555 -0.3404
   86MOL   H22432694   3.512   5.662   7.130 -0.2626  2.0176  1.7006
   86MOL   H22532695   3.385   5.636   7.018 -0.7592  1.1415 -3.5656
   86MOL   H22632696   3.469   5.915   7.091 -1.5302  2.4561 -2.9172
   86MOL   H22732697   3.335   5.874   6.989 -1.4496  0.3015  0.6671
   86MOL   H22832698   3.481   5.865   6.804 -0.0440  0.5970  3.6194
   86MOL   H22932699   3.415   5.701   6.765  1.3955 -1.4908 -1.0081
   86MOL   C23032700   3.298   5.838   7.193 -0.1436 -0.4315  0.3599
   86MOL   C23132701   3.364   5.813   7.324 -0.1029  0.2212 -0.5924
   86MOL   C23232702   3.272   5.722   7.406  0.1623 -0.2438  0.4650
   86MOL   C23332703   3.206   5.642   7.304  0.0400 -0.0554  0.0622
   86MOL   C23432704   3.081   5.578   7.362  0.3351 -0.1197 -0.3504
   86MOL   C23532705   3.039   5.459   7.276  0.4535 -0.3211 -0.4009
   86MOL   C23632706   3.181   5.739   7.193 -0.1253  0.1107  0.8416
   86MOL   H23732707   3.252   5.937   7.204 -0.6674 -0.6613  0.2811
   86MOL   H23832708   3.459   5.761   7.314  0.7615  1.0089  2.8272
   86MOL   H23932709   3.394   5.900   7.382  2.8576 -0.8140 -0.5219
   86MOL   H24032710   3.200   5.778   7.466  0.0261 -1.4935  1.5033
   86MOL   H24132711   3.335   5.653   7.462 -1.7598 -0.3113  2.5873
   86MOL   H24232712   3.269   5.560   7.270  0.5028  0.8923 -1.4053
   86MOL   H24332713   2.994   5.642   7.376 -0.0587 -0.9416  1.1323
   86MOL   H24432714   3.110   5.534   7.458 -1.4657 -1.6672 -0.4843
   86MOL   H24532715   2.995   5.502   7.186 -0.7651  2.1940  1.3385
   86MOL   H24632716   3.123   5.398   7.242 -0.1846 -0.5021 -1.7141
   86MOL   H24732717   3.090   5.794   7.217  0.8730  3.3012 -2.2495
   86MOL   H24832718   3.168   5.690   7.096 -0.0677  2.3895 -0.3588
   86MOL   C24932719   2.941   5.365   7.341 -0.4084 -0.8016 -0.5165
   86MOL   C25032720   2.820   5.423   7.397 -0.1721 -0.5325  0.4265
   86MOL   C25132721   2.720   5.301   7.409 -0.0065 -0.3949  0.0016
   86MOL   C25232722   2.757   5.219   7.283 -1.4181  0.1737  0.0742
   86MOL   C25332723   2.750   5.066   7.295  0.1445 -0.3254 -0.9765
   86MOL   C25432724   2.831   5.015   7.417  0.1394  0.4886  0.3855
   86MOL   C25532725   2.898   5.262   7.228 -0.2935  0.0813 -0.3763
   86MOL   H25632726   2.989   5.323   7.429  0.5783 -0.2202 -0.7596
   86MOL   H25732727   2.827   5.465   7.498 -1.5665  0.7574  0.0025
   86MOL   H25832728   2.772   5.505   7.343  0.7349 -0.3363 -0.0957
   86MOL   H25932729   2.616   5.330   7.419 -0.3440 -0.5942 -2.5848
   86MOL   H26032730   2.749   5.250   7.500 -2.9156  2.6796  2.7841
   86MOL   H26132731   2.692   5.260   7.206 -2.0569 -1.3376 -0.2069
   86MOL   H26232732   2.792   5.029   7.201 -0.4462  0.2909 -1.4867
   86MOL   H26332733   2.652   5.018   7.301 -0.2972  0.7972  1.2072
   86MOL   H26432734   2.782   5.038   7.511  2.3457  0.4318  1.5794
   86MOL   H26532735   2.931   5.058   7.407  0.3514 -0.2471 -0.8065
   86MOL   H26632736   2.885   5.314   7.133 -0.9704  2.1475  0.8279
   86MOL   H26732737   2.968   5.181   7.206  0.8848  0.9206  0.2101
   86MOL   C26832738   2.839   4.859   7.418 -0.6615 -0.5873  0.6939
   86MOL   C26932739   2.926   4.801   7.526  0.0728 -0.4089 -0.0779
   86MOL   C27032740   2.965   4.668   7.473  0.4246 -0.2336  0.9903
   86MOL   C27132741   2.950   4.665   7.324  0.5252  0.7278  0.7852
   86MOL   C27232742   3.079   4.622   7.252  0.1499  0.1192  0.1959
   86MOL   C27332743   3.066   4.620   7.099 -0.0173  0.1811 -0.8025
   86MOL   C27432744   2.905   4.801   7.290  0.2540 -0.0473  1.4842
   86MOL   H27532745   2.736   4.823   7.424 -0.8326 -0.4228 -0.9970
   86MOL   H27632746   3.021   4.853   7.534 -1.1135  2.2385 -2.3953
   86MOL   H27732747   2.875   4.793   7.621  1.1514  0.4627  0.5874
   86MOL   H27832748   3.064   4.637   7.506  0.7828 -1.3766 -1.1108
   86MOL   H27932749   2.901   4.592   7.518  0.0534 -1.6356 -1.8229
   86MOL   H28032750   2.869   4.597   7.295  0.4285  0.4391  1.7122
   86MOL   H28132751   3.111   4.523   7.284  0.3969  0.8946  2.4238
   86MOL   H28232752   3.170   4.674   7.281  0.9380 -1.5509  0.7825
   86MOL   H28332753   2.997   4.539   7.073 -0.1131  0.3937 -1.2124
   86MOL   H28432754   3.024   4.716   7.069 -1.7495 -0.9804 -2.1694
   86MOL   H28532755   2.987   4.867   7.263  2.1514 -1.9404  2.4815
   86MOL   H28632756   2.833   4.801   7.207  0.8310 -2.7981  0.9361
   86MOL   C28732757   3.197   4.612   7.026  0.1871 -0.3156  0.1106
   86MOL   C28832758   3.271   4.483   7.034 -0.6700  0.0208  0.5173
   86MOL   C28932759   3.317   4.449   6.896 -0.2142 -0.0761 -0.2009
   86MOL   C29032760   3.299   4.571   6.814  0.0098  0.5596  0.2383
   86MOL   C29132761   3.292   4.546   6.659  0.1077 -0.1403  0.5791
   86MOL   C29232762   3.418   4.534   6.570 -0.7681 -0.5244 -0.0100
   86MOL   C29332763   3.177   4.637   6.882 -0.1426 -0.7816  0.0262
   86MOL   H29432764   3.267   4.684   7.067 -0.7099  0.2869  0.6111
   86MOL   H29532765   3.363   4.485   7.093 -0.2638  0.2158 -0.1101
   86MOL   H29632766   3.203   4.410   7.078 -2.2840  2.2118  1.7205
   86MOL   H29732767   3.253   4.371   6.855 -1.1569  1.1262 -1.0815
   86MOL   H29832768   3.423   4.425   6.894  0.4017  2.5306 -2.6880
   86MOL   H29932769   3.378   4.644   6.831  2.3648 -1.5657 -1.3410
   86MOL   H30032770   3.239   4.630   6.614 -2.7695 -1.9470  0.5339
   86MOL   H30132771   3.237   4.453   6.656  0.6480 -0.4395 -0.3008
   86MOL   H30232772   3.387   4.466   6.491  0.9278  0.1827 -1.3157
   86MOL   H30332773   3.495   4.480   6.624  0.1359  0.1788 -0.5794
   86MOL   H30432774   3.090   4.590   6.836 -0.6457  0.5416 -0.3835
   86MOL   H30532775   3.175   4.744   6.865 -2.3117 -0.5362  1.6484
   86MOL   C30632776   3.460   4.672   6.496  0.2975 -0.1850  0.6333
   86MOL   C30732777   3.516   4.776   6.596  0.4179  0.3971 -0.4597
   86MOL   C30832778   3.622   4.854   6.523 -0.3103 -0.4562 -0.2444
   86MOL   C30932779   3.652   4.784   6.389 -0.6772  0.2848  0.4952
   86MOL   C31032780   3.800   4.771   6.359 -0.2317  0.8539 -0.2656
   86MOL   C31132781   3.855   4.897   6.290 -0.2037 -0.7206  0.3162
   86MOL   C31232782   3.583   4.643   6.408  0.0692 -0.1313 -0.4801
   86MOL   H31332783   3.382   4.714   6.432  0.3634 -0.9623  0.0310
   86MOL   H31432784   3.436   4.831   6.644 -0.7494 -2.6569  1.1859
   86MOL   H31532785   3.561   4.717   6.676 -1.0030 -3.0545 -2.1215
   86MOL   H31632786   3.589   4.957   6.524  2.4547  0.4508  0.4455
   86MOL   H31732787   3.707   4.837   6.590  1.3374  2.2994 -1.5611
   86MOL   H31832788   3.591   4.835   6.314  0.3410  1.1744  0.2519
   86MOL   H31932789   3.860   4.746   6.447  1.6297 -1.7401 -2.2057
   86MOL   H32032790   3.810   4.681   6.299  1.2877 -0.9234  2.5692
   86MOL   H32132791   3.820   4.992   6.330 -1.8717 -1.1053 -0.1768
   86MOL   H32232792   3.810   4.891   6.191  0.2927 -1.2057  0.1204
   86MOL   H32332793   3.658   4.575   6.447  1.3111  0.5745 -1.6016
   86MOL   H32432794   3.559   4.590   6.316  0.1294 -0.6228 -0.2126
   86MOL   C32532795   4.010   4.913   6.280  0.4588  0.2420 -0.3337
   86MOL   C32632796   4.084   4.797   6.222  0.2802 -0.1721  0.1915
   86MOL   C32732797   4.211   4.842   6.162 -0.0872 -0.4431  0.1620
   86MOL   C32832798   4.166   4.976   6.103  0.2582  0.3351 -0.6472
   86MOL   C32932799   4.282   5.077   6.083  0.1097  0.0827  0.5014
   86MOL   C33032800   4.241   5.183   5.987  0.8786  0.6664  0.1524
   86MOL   C33132801   4.062   5.029   6.200  0.2027 -0.0657  0.0847
   86MOL   H33232802   4.048   4.939   6.379 -1.7332 -0.7542  0.8048
   86MOL   H33332803   4.023   4.768   6.137  0.7574  0.0664 -0.2302
   86MOL   H33432804   4.092   4.708   6.286  0.4496 -1.2951 -1.3619
   86MOL   H33532805   4.277   4.851   6.249  0.4133  0.0300 -0.2649
   86MOL   H33632806   4.247   4.775   6.084  0.8237 -1.7862  1.6761
   86MOL   H33732807   4.111   4.963   6.010 -2.1342 -0.3438  0.7954
   86MOL   H33832808   4.319   5.105   6.182  0.1058  0.2057  0.4675
   86MOL   H33932809   4.368   5.024   6.041 -1.2182  0.2555 -2.5955
   86MOL   H34032810   4.211   5.127   5.899 -0.9348 -2.3814  2.5718
   86MOL   H34132811   4.161   5.244   6.028  0.1492 -0.4596  0.4475
   86MOL   H34232812   3.977   5.075   6.149 -1.8642 -1.7484  1.9092
   86MOL   H34332813   4.091   5.107   6.270 -0.3206 -1.6080  2.0587
   86MOL   C34432814   4.366   5.261   5.941  0.1658 -0.6312 -0.0151
   86MOL   C34532815   4.449   5.318   6.056 -0.1122 -0.2392  0.1714
   86MOL   C34632816   4.494   5.451   6.010  0.5119  0.3356 -0.1997
   86MOL   C34732817   4.386   5.502   5.916 -0.8614  0.0862 -0.5412
   86MOL   C34832818   4.411   5.630   5.830 -0.5537 -0.1070  0.2047
   86MOL   C34932819   4.450   5.751   5.909  0.3951  0.5220 -0.2155
   86MOL   C35032820   4.338   5.375   5.843 -0.5258  0.3571 -0.9106
   86MOL   H35132821   4.427   5.192   5.884 -2.2199 -1.4456 -1.6839
   86MOL   H35232822   4.538   5.261   6.081  0.3211  0.8203  1.0451
   86MOL   H35332823   4.386   5.331   6.144  2.8336 -0.7064  2.4287
   86MOL   H35432824   4.518   5.523   6.089 -0.5116 -2.1692  2.5081
   86MOL   H35532825   4.591   5.445   5.962  1.0839  2.1872  0.6633
   86MOL   H35632826   4.315   5.539   5.990 -0.7126  2.0020 -1.3336
   86MOL   H35732827   4.492   5.604   5.762 -1.4580 -4.1020  0.5533
   86MOL   H35832828   4.334   5.653   5.756  0.5717  2.0688 -0.3274
   86MOL   H35932829   4.542   5.717   5.959  1.3197  2.6452 -0.4250
   86MOL   H36032830   4.378   5.772   5.988 -0.1490 -1.1400 -0.2444
   86MOL   H36132831   4.231   5.376   5.824 -0.8722  1.7392  0.9578
   86MOL   H36232832   4.389   5.350   5.750  1.2569 -0.0433  0.1581
   86MOL   C36332833   4.474   5.889   5.839  0.0736 -0.2726  0.6356
   86MOL   C36432834   4.511   5.998   5.940  0.1594  0.3730  0.2849
   86MOL   C36532835   4.453   6.128   5.889 -0.3565  0.1607  0.2209
   86MOL   C36632836   4.393   6.096   5.752  1.0829  0.3740  0.2873
   86MOL   C36732837   4.270   6.181   5.718 -0.2055  0.0890  0.4894
   86MOL   C36832838   4.318   6.327   5.683  0.2571  0.6601 -0.1192
   86MOL   C36932839   4.357   5.947   5.760 -0.3451 -0.3362  0.1402
   86MOL   H37032840   4.561   5.879   5.775  0.1267 -1.0442  0.8190
   86MOL   H37132841   4.456   5.975   6.031  0.6645 -1.9952  0.0380
   86MOL   H37232842   4.618   6.008   5.961  0.5504  0.8789 -1.8219
   86MOL   H37332843   4.378   6.147   5.966 -1.7134  0.5269 -1.1707
   86MOL   H37432844   4.524   6.211   5.882  0.9330 -0.8860  0.5745
   86MOL   H37532845   4.471   6.105   5.676  0.1532 -0.7886 -0.8307
   86MOL   H37632846   4.220   6.153   5.625  0.0919  0.0867  0.3310
   86MOL   H37732847   4.188   6.187   5.790 -1.1990  0.8927 -0.7015
   86MOL   H37832848   4.353   6.390   5.764  1.2309 -0.2562  0.1962
   86MOL   H37932849   4.243   6.393   5.640  0.2059  1.3437  1.0200
   86MOL   H38032850   4.258   5.947   5.808 -0.2457 -0.3000  0.3463
   86MOL   H38132851   4.357   5.892   5.666 -1.4144 -1.3168  0.6915
   86MOL   H38232852   4.405   6.326   5.617 -0.5664  0.4818 -1.2182
   87MOL     C132853   0.662   6.909   5.259 -0.4414  0.3626  0.1066
   87MOL     C232854   0.666   7.004   5.380 -0.5517 -0.0907 -1.1770
   87MOL     C332855   0.560   7.104   5.359 -0.3079  0.7826  0.7387
   87MOL     C432856   0.452   7.014   5.298 -0.2015 -0.3800 -0.2596
   87MOL     C532857   0.349   7.096   5.216  0.1065  0.6416 -0.0066
   87MOL     C632858   0.244   7.179   5.303  0.3249 -0.4604  0.3801
   87MOL     C732859   0.520   6.902   5.218  0.3328 -0.2138  0.0635
   87MOL     H832860   0.719   6.966   5.185 -1.4846  0.2478 -0.8070
   87MOL     H932861   0.762   7.053   5.392 -1.2170  1.3715 -1.7434
   87MOL    H1032862   0.643   6.940   5.466  0.1351  0.4949 -0.5484
   87MOL    H1132863   0.537   7.163   5.448 -0.1144 -0.3191  1.5153
   87MOL    H1232864   0.597   7.170   5.280 -0.6816  1.9424  1.5140
   87MOL    H1332865   0.399   6.957   5.375  0.3432  0.6929  0.9363
   87MOL    H1432866   0.407   7.167   5.158  1.5436  0.0438  0.6680
   87MOL    H1532867   0.306   7.024   5.147  0.3080  0.1571  0.3673
   87MOL    H1632868   0.190   7.110   5.367 -4.8331  2.1470 -0.8846
   87MOL    H1732869   0.297   7.248   5.368 -3.2675  0.9089  1.9631
   87MOL    H1832870   0.487   6.800   5.240 -0.3191  0.3021  1.5238
   87MOL    H1932871   0.513   6.902   5.109 -0.7217  1.5734  0.1141
   87MOL    H2032872   0.721   6.818   5.266 -1.7291 -0.4839  0.1906
   87MOL    C2132873   0.144   7.262   5.214 -0.0233  0.5595  0.5855
   87MOL    C2232874   0.039   7.354   5.284 -0.1368 -0.1526 -0.1771
   87MOL    C2332875   0.018   7.468   5.195 -0.6862 -1.1134  0.2994
   87MOL    C2432876   0.109   7.456   5.067  0.3848 -0.0325  0.8017
   87MOL    C2532877   0.161   7.591   5.024 -0.3585 -0.2522  0.8822
   87MOL    C2632878   0.185   7.592   4.875  0.0137  0.4590 -0.4913
   87MOL    C2732879   0.216   7.350   5.113 -0.2682  0.2434  0.3234
   87MOL    H2832880   0.089   7.188   5.157  1.7706 -0.5476  0.2490
   87MOL    H2932881   7.589   7.309   5.302  0.3221 -1.6591 -1.3402
   87MOL    H3032882   0.071   7.401   5.377  1.5978  0.0401 -0.8394
   87MOL    H3132883   7.558   7.479   5.175 -0.9794 -3.1072  0.6322
   87MOL    H3232884   0.045   7.560   5.247 -0.5265  0.2347 -2.1100
   87MOL    H3332885   0.055   7.405   4.987  2.3684  1.1554 -1.3617
   87MOL    H3432886   0.246   7.613   5.088 -0.5513  1.9490  0.4133
   87MOL    H3532887   0.085   0.022   5.032 -0.2331 -0.1496  1.0561
   87MOL    H3632888   0.086   7.606   4.830  0.4964 -1.0603 -2.1040
   87MOL    H3732889   0.237   7.500   4.847 -1.6479 -1.4059  2.3671
   87MOL    H3832890   0.271   7.303   5.032  1.7152  1.7707  0.7455
   87MOL    H3932891   0.299   7.400   5.164 -0.9628  0.5552  1.1636
   87MOL    C4032892   0.268   0.070   4.827  0.0672  0.5479  0.2775
   87MOL    C4132893   0.314   0.061   4.680 -0.0586 -0.2619  0.0369
   87MOL    C4232894   0.313   0.209   4.633 -0.1800 -0.5820  0.4431
   87MOL    C4332895   0.186   0.262   4.702 -0.1470 -0.4117 -0.2750
   87MOL    C4432896   0.188   0.419   4.691 -0.6545  0.2189  0.2406
   87MOL    C4532897   0.053   0.475   4.743 -0.2049  0.5706 -0.0420
   87MOL    C4632898   0.189   0.204   4.842 -0.5783  0.4564  0.5454
   87MOL    H4732899   0.352   0.070   4.897  0.4328  0.0990 -0.1562
   87MOL    H4832900   0.240   0.006   4.622 -1.7988  0.7238  1.2632
   87MOL    H4932901   0.412   0.016   4.667 -1.0884 -2.5712  0.0659
   87MOL    H5032902   0.408   0.254   4.662 -0.5134 -0.5688  1.5494
   87MOL    H5132903   0.303   0.220   4.525  0.2776  0.3441  0.4839
   87MOL    H5232904   0.097   0.220   4.655  0.6898 -0.7647 -1.5863
   87MOL    H5332905   0.274   0.449   4.752  0.8782 -1.3307 -1.1067
   87MOL    H5432906   0.199   0.447   4.586  1.5076 -1.2727  0.0277
   87MOL    H5532907   0.035   0.459   4.849 -2.8839  0.4979 -0.4896
   87MOL    H5632908   7.620   0.426   4.689 -1.6077  2.8969 -0.1183
   87MOL    H5732909   0.254   0.259   4.910  0.8291 -0.6023  0.0877
   87MOL    H5832910   0.083   0.199   4.869 -0.7821  1.5793 -0.0416
   87MOL    C5932911   0.034   0.629   4.722 -0.2818  0.3370  0.9225
   87MOL    C6032912   7.534   0.663   4.747  0.5380  0.0221  0.3020
   87MOL    C6132913   7.528   0.810   4.775  0.3001  0.5620  0.8250
   87MOL    C6232914   0.014   0.841   4.849  0.1220  0.2195 -0.6362
   87MOL    C6332915   0.067   0.982   4.848  0.0635  0.1325 -0.2934
   87MOL    C6432916   0.156   1.011   4.964  0.4136  0.0085 -0.8176
   87MOL    C6532917   0.115   0.731   4.806  0.2049 -0.3308 -0.1739
   87MOL    H6632918   0.051   0.651   4.616  0.8676 -2.0167  0.5876
   87MOL    H6732919   7.473   0.639   4.661 -1.8297  0.8338  1.7000
   87MOL    H6832920   7.495   0.612   4.836 -0.2674  0.8435  0.4287
   87MOL    H6932921   7.531   0.858   4.678 -1.7680 -1.1523 -0.1257
   87MOL    H7032922   7.437   0.845   4.824 -0.9189  2.2254 -2.5370
   87MOL    H7132923   7.637   0.814   4.952  1.3886  1.7498  0.0802
   87MOL    H7232924   7.629   1.049   4.861 -1.2681 -1.6213  0.0957
   87MOL    H7332925   0.123   0.996   4.755  0.5749 -0.0272 -0.0112
   87MOL    H7432926   0.107   0.994   5.060  0.2660  1.8702 -0.5302
   87MOL    H7532927   0.247   0.952   4.959 -0.0663 -0.9682  1.4274
   87MOL    H7632928   0.197   0.764   4.741  1.6092 -0.1442  1.6393
   87MOL    H7732929   0.163   0.686   4.893  0.8553  0.1104 -0.2956
   87MOL    C7832930   0.199   1.159   4.967  0.0783  0.3731  0.5636
   87MOL    C7932931   0.268   1.205   5.092  0.1770 -0.1712 -0.2106
   87MOL    C8032932   0.373   1.311   5.048 -0.0879  0.1865  0.2829
   87MOL    C8132933   0.358   1.336   4.901 -0.4279  0.0652 -0.4013
   87MOL    C8232934   0.491   1.370   4.824  0.3296 -0.1322 -0.5229
   87MOL    C8332935   0.491   1.384   4.673  0.9810  0.7039 -0.0305
   87MOL    C8432936   0.300   1.199   4.857 -0.8911  0.4625  0.3160
   87MOL    H8532937   0.106   1.216   4.959 -0.6752 -0.8096  0.8635
   87MOL    H8632938   0.196   1.237   5.167 -0.1063  0.2236 -0.6433
   87MOL    H8732939   0.324   1.124   5.137  0.8258 -0.5989 -1.7630
   87MOL    H8832940   0.369   1.402   5.108  2.8105 -0.5068  1.5802
   87MOL    H8932941   0.474   1.285   5.079 -0.4064  0.1962  1.3409
   87MOL    H9032942   0.288   1.417   4.880  2.4196  2.5669 -0.5915
   87MOL    H9132943   0.564   1.291   4.845  0.7277  0.7117  1.3591
   87MOL    H9232944   0.525   1.463   4.869 -0.0461  0.2368 -0.9933
   87MOL    H9332945   0.437   1.475   4.648  1.3138  0.8241 -0.3198
   87MOL    H9432946   0.440   1.297   4.631  0.6827  0.6816  0.3813
   87MOL    H9532947   0.381   1.126   4.847 -0.8991  0.3285  1.2366
   87MOL    H9632948   0.251   1.205   4.759 -2.8736 -0.0782  1.2592
   87MOL    C9732949   0.630   1.392   4.609  0.7328  0.3232 -0.3050
   87MOL    C9832950   0.713   1.519   4.649 -0.0800  0.8339 -0.4998
   87MOL    C9932951   0.791   1.559   4.517 -0.5289  0.4249  0.0263
   87MOL   C10032952   0.748   1.455   4.411  0.3379  0.7350 -0.4855
   87MOL   C10132953   0.741   1.522   4.271 -0.5544 -0.5509  0.1087
   87MOL   C10232954   0.873   1.587   4.230  0.0962 -0.2806 -0.5498
   87MOL   C10332955   0.614   1.399   4.460  0.5828  0.4851 -0.7413
   87MOL   H10432956   0.691   1.303   4.624  0.5710  0.1730 -0.5372
   87MOL   H10532957   0.640   1.591   4.684  0.8948  1.9689 -0.7776
   87MOL   H10632958   0.768   1.494   4.740 -0.2084  1.0332 -0.3688
   87MOL   H10732959   0.769   1.660   4.483  1.8876  0.1277 -2.5902
   87MOL   H10832960   0.896   1.553   4.542 -0.5485 -2.0271 -0.3063
   87MOL   H10932961   0.822   1.376   4.406  1.3579  1.5928  0.7375
   87MOL   H11032962   0.721   1.455   4.188  0.2111 -0.7721  0.0948
   87MOL   H11132963   0.666   1.601   4.273 -0.0367 -0.0054 -1.2218
   87MOL   H11232964   0.911   1.656   4.305 -1.9218  0.4669 -0.1967
   87MOL   H11332965   0.950   1.512   4.212  0.4050  0.4592 -2.4266
   87MOL   H11432966   0.535   1.471   4.437  0.1061  0.5482  1.0187
   87MOL   H11532967   0.601   1.302   4.414 -0.8351  0.7827 -0.9934
   87MOL   C11632968   0.856   1.658   4.091  0.0967  0.4101  0.6954
   87MOL   C11732969   0.761   1.786   4.095  0.2710 -0.2140  0.0521
   87MOL   C11832970   0.830   1.890   4.010 -0.2613  0.3705 -0.1369
   87MOL   C11932971   0.941   1.822   3.932  0.0477 -0.5722  0.1953
   87MOL   C12032972   1.051   1.914   3.877  0.6333  0.1122 -0.8191
   87MOL   C12132973   1.153   1.837   3.784  0.0952 -0.2596 -0.0276
   87MOL   C12232974   0.991   1.714   4.032  0.1201  0.7193 -0.2322
   87MOL   H12332975   0.804   1.591   4.022 -1.7168  4.2697 -1.9161
   87MOL   H12432976   0.760   1.828   4.196 -0.2485  1.8121 -0.7838
   87MOL   H12532977   0.661   1.758   4.063 -0.7458  0.6547  2.3358
   87MOL   H12632978   0.872   1.963   4.080  1.1797 -0.5480 -0.0279
   87MOL   H12732979   0.753   1.941   3.952 -0.2307 -0.5236 -0.9729
   87MOL   H12832980   0.888   1.779   3.847 -1.6677  0.0369  0.9425
   87MOL   H12932981   1.089   1.960   3.968 -1.7159 -2.0317  1.3146
   87MOL   H13032982   1.019   2.008   3.831 -2.1878 -1.0264 -1.2721
   87MOL   H13132983   1.100   1.788   3.703 -0.0143  1.6981 -1.1715
   87MOL   H13232984   1.195   1.760   3.848  1.0232  1.0352  0.9655
   87MOL   H13332985   1.050   1.631   3.991 -1.8759 -1.8346  1.9087
   87MOL   H13432986   1.067   1.754   4.099  1.8967 -1.0685 -1.1024
   87MOL   C13532987   1.265   1.922   3.728  0.2414 -0.6930  0.3869
   87MOL   C13632988   1.380   1.845   3.662  0.1760 -0.2484  0.8158
   87MOL   C13732989   1.324   1.813   3.517 -0.3932 -0.0761 -0.3088
   87MOL   C13832990   1.209   1.916   3.487 -0.4102  0.0214 -0.3816
   87MOL   C13932991   1.221   1.978   3.354  0.2323  0.2564  0.3287
   87MOL   C14032992   1.223   1.872   3.238  0.0459 -0.5522  0.2805
   87MOL   C14132993   1.219   2.016   3.608  0.2046  0.5672 -0.1772
   87MOL   H14232994   1.291   1.980   3.816  0.3543  0.5405 -0.4568
   87MOL   H14332995   1.470   1.905   3.654  0.0373 -0.2546 -1.0251
   87MOL   H14432996   1.405   1.758   3.722  0.9127 -0.6044 -0.0120
   87MOL   H14532997   1.402   1.823   3.442 -2.3301  0.7230 -2.2559
   87MOL   H14632998   1.283   1.712   3.511 -1.2118  0.0394  2.3475
   87MOL   H14732999   1.121   1.851   3.487  0.9066 -1.7763 -0.4727
   87MOL   H14833000   1.305   2.048   3.346 -1.4565  2.2385 -0.4540
   87MOL   H14933001   1.130   2.038   3.348 -0.6821 -1.1029  0.3845
   87MOL   H15033002   1.310   1.807   3.230  0.9350  0.9021 -2.2655
   87MOL   H15133003   1.142   1.800   3.255  1.8471 -1.9505  3.2540
   87MOL   H15233004   1.122   2.058   3.636 -2.6166 -5.2196 -0.5668
   87MOL   H15333005   1.307   2.077   3.590  1.4755 -1.7201 -1.8859
   87MOL   C15433006   1.204   1.940   3.095  0.2963 -0.3801 -0.0782
   87MOL   C15533007   1.188   1.843   2.978  0.3102 -0.7169  0.8871
   87MOL   C15633008   1.240   1.919   2.861 -0.6162  0.2673 -0.3927
   87MOL   C15733009   1.364   1.992   2.916  0.0881 -0.1643  0.1503
   87MOL   C15833010   1.487   1.900   2.919 -0.4056 -0.4856  0.2604
   87MOL   C15933011   1.626   1.974   2.913 -0.8583  0.1544 -0.0069
   87MOL   C16033012   1.329   2.037   3.063 -0.1235  0.1186  0.2170
   87MOL   H16133013   1.113   2.000   3.091  0.1168 -0.5796  0.8543
   87MOL   H16233014   1.255   1.758   2.987  0.9573 -0.6341 -2.5121
   87MOL   H16333015   1.086   1.810   2.958 -0.1727  1.9039 -1.1339
   87MOL   H16433016   1.250   1.851   2.776 -1.1813 -1.8205  1.1468
   87MOL   H16533017   1.165   1.996   2.843 -0.9679 -0.3542 -1.6302
   87MOL   H16633018   1.386   2.079   2.854  0.4300 -0.5535 -0.2720
   87MOL   H16733019   1.479   1.832   2.834 -0.1028 -0.8061  0.4907
   87MOL   H16833020   1.491   1.826   2.999 -0.4451 -0.7938 -0.0227
   87MOL   H16933021   1.641   2.032   2.822 -1.9037  0.1421 -0.1891
   87MOL   H17033022   1.632   2.042   2.997  2.9789 -1.1554  0.9172
   87MOL   H17133023   1.299   2.141   3.052  1.3748  0.3305 -2.0801
   87MOL   H17233024   1.408   2.036   3.138  0.7382  0.1439 -0.6926
   87MOL   C17333025   1.761   1.893   2.917 -0.2847 -0.2190 -0.0793
   87MOL   C17433026   1.885   1.985   2.890 -0.0040  0.0394  0.4588
   87MOL   C17533027   1.973   1.980   3.011  0.2621 -0.4032  1.4548
   87MOL   C17633028   1.937   1.849   3.080 -0.0442 -0.3397  0.3816
   87MOL   C17733029   1.979   1.842   3.223  0.9390  0.5845  0.0004
   87MOL   C17833030   1.948   1.712   3.291 -0.7785  1.0091  0.1552
   87MOL   C17933031   1.783   1.831   3.054  0.2606 -0.5894 -0.3487
   87MOL   H18033032   1.766   1.815   2.842  0.1936  0.5109 -0.8290
   87MOL   H18133033   1.861   2.080   2.842 -0.8735  0.0055  0.8216
   87MOL   H18233034   1.949   1.937   2.816  0.9136 -0.0659  1.3227
   87MOL   H18333035   2.080   1.991   2.991 -0.5002  0.3392 -2.8303
   87MOL   H18433036   1.944   2.050   3.089 -0.4571 -0.7965  1.5431
   87MOL   H18533037   1.982   1.768   3.024  0.6088  1.7813 -2.2722
   87MOL   H18633038   1.946   1.927   3.282 -0.1388  0.1023  0.0942
   87MOL   H18733039   2.087   1.853   3.227  0.8552  0.6378  2.3968
   87MOL   H18833040   1.997   1.635   3.231 -1.0290  2.2669 -1.7139
   87MOL   H18933041   1.842   1.688   3.298 -0.8011  0.5197 -1.5784
   87MOL   H19033042   1.721   1.884   3.126  0.4970 -1.9688  0.8843
   87MOL   H19133043   1.754   1.727   3.046  1.0842 -0.8054 -0.6568
   87MOL   C19233044   1.998   1.708   3.434  0.3797  0.3760 -0.1497
   87MOL   C19333045   1.993   1.568   3.496 -0.1323  0.2025  0.4449
   87MOL   C19433046   1.958   1.586   3.644  0.8704 -0.2683  0.1750
   87MOL   C19533047   1.848   1.693   3.637  0.2890 -0.1181 -0.4093
   87MOL   C19633048   1.822   1.770   3.768  0.0577 -0.2393  0.2399
   87MOL   C19733049   1.704   1.725   3.865 -0.9450  0.1332  0.0929
   87MOL   C19833050   1.904   1.794   3.529 -0.3796  0.4869  0.6641
   87MOL   H19933051   2.099   1.748   3.432  0.0552  1.2010 -0.3748
   87MOL   H20033052   1.917   1.508   3.445 -0.9166  1.6538 -0.1001
   87MOL   H20133053   2.078   1.506   3.466 -0.5212  0.1341 -0.5317
   87MOL   H20233054   2.053   1.622   3.684  1.1210  0.2948 -0.8831
   87MOL   H20333055   1.915   1.507   3.705  0.9267 -0.2559  0.2305
   87MOL   H20433056   1.754   1.656   3.597  0.1301 -0.3712  0.1996
   87MOL   H20533057   1.790   1.872   3.746 -0.4506 -0.6195 -0.7762
   87MOL   H20633058   1.914   1.777   3.827  1.8687 -0.4286 -2.4718
   87MOL   H20733059   1.724   1.636   3.925  0.3541  0.2244 -0.2054
   87MOL   H20833060   1.625   1.680   3.804  0.3780  0.6068 -2.0024
   87MOL   H20933061   1.960   1.873   3.581 -0.6405  0.8133  0.4497
   87MOL   H21033062   1.822   1.836   3.472 -0.5958 -0.8762 -0.0310
   87MOL   C21133063   1.632   1.828   3.961  0.3443  0.3012 -0.2296
   87MOL   C21233064   1.727   1.890   4.071  0.6505  0.2174  0.2777
   87MOL   C21333065   1.639   1.894   4.202 -0.3533 -0.3814  0.4892
   87MOL   C21433066   1.501   1.871   4.146 -0.0284  0.0850  0.2113
   87MOL   C21533067   1.392   1.834   4.250  0.2348  0.1135 -0.3506
   87MOL   C21633068   1.352   1.946   4.354  0.7623  0.1648 -0.4104
   87MOL   C21733069   1.506   1.770   4.033 -0.6545 -0.3233 -0.2667
   87MOL   H21833070   1.587   1.908   3.902  1.8496  1.5053  0.2351
   87MOL   H21933071   1.823   1.841   4.086 -0.0873 -1.1998  0.5265
   87MOL   H22033072   1.746   1.988   4.029  0.3992  0.0828 -0.1584
   87MOL   H22133073   1.680   1.818   4.269  0.5934 -1.9021 -1.7583
   87MOL   H22233074   1.643   1.987   4.259 -1.5925  1.5804 -2.4863
   87MOL   H22333075   1.468   1.965   4.102 -0.2090  0.8072  1.8273
   87MOL   H22433076   1.426   1.744   4.300  1.5192  0.4358 -0.6198
   87MOL   H22533077   1.299   1.802   4.203 -1.0436  0.4656  1.9072
   87MOL   H22633078   1.429   2.007   4.401 -0.1278  0.1327  1.1258
   87MOL   H22733079   1.295   2.014   4.291  0.7008  1.2686  0.8044
   87MOL   H22833080   1.417   1.762   3.971 -1.1442 -0.9855  0.5335
   87MOL   H22933081   1.530   1.670   4.068  3.7250  1.3278  1.9434
   87MOL   C23033082   1.270   1.900   4.476  0.8129 -0.1919  0.6706
   87MOL   C23133083   1.156   1.803   4.440 -0.4760 -0.4210 -0.0262
   87MOL   C23233084   1.061   1.802   4.560  0.2053 -0.1933 -0.0129
   87MOL   C23333085   1.058   1.951   4.615 -0.0295  0.0856  0.4275
   87MOL   C23433086   1.041   1.963   4.766  0.0855  0.0020  0.2655
   87MOL   C23533087   0.904   1.911   4.809 -0.4094  0.0778  0.1426
   87MOL   C23633088   1.199   2.007   4.565 -0.9187 -0.0815 -0.0630
   87MOL   H23733089   1.325   1.841   4.549 -0.6607 -1.1666  1.0210
   87MOL   H23833090   1.118   1.832   4.341  1.9836 -0.5478 -1.0463
   87MOL   H23933091   1.190   1.704   4.409 -0.9412 -0.7392  0.4928
   87MOL   H24033092   1.102   1.739   4.639 -1.6362 -1.2153  0.1541
   87MOL   H24133093   0.956   1.781   4.539 -0.4663  1.4487  1.5590
   87MOL   H24233094   0.976   2.004   4.566 -0.0129  0.4364  0.7807
   87MOL   H24333095   1.042   2.069   4.789 -1.4419 -0.5758  3.3575
   87MOL   H24433096   1.122   1.923   4.828 -0.0594 -0.4963  0.1424
   87MOL   H24533097   0.826   1.977   4.770 -0.9477  1.0820  2.7868
   87MOL   H24633098   0.886   1.808   4.778  0.6787  0.3685 -1.4710
   87MOL   H24733099   1.258   2.024   4.656 -1.6682 -1.4274  0.6941
   87MOL   H24833100   1.188   2.098   4.507  1.5567  0.6538  0.5458
   87MOL   C24933101   0.894   1.913   4.965  0.1920 -0.2755 -0.3025
   87MOL   C25033102   0.743   1.893   5.001  0.5807 -0.1282  0.4428
   87MOL   C25133103   0.718   1.739   5.005 -1.1311 -0.4017  0.1175
   87MOL   C25233104   0.854   1.671   5.013  0.6775 -0.8425 -0.1116
   87MOL   C25333105   0.879   1.563   5.121 -0.0258 -0.9895  0.1094
   87MOL   C25433106   0.787   1.443   5.096 -0.0492 -0.3631  0.4401
   87MOL   C25533107   0.953   1.785   5.029 -1.4502  0.0730 -0.1642
   87MOL   H25633108   0.938   1.998   5.018  0.7127 -1.7158  1.6586
   87MOL   H25733109   0.734   1.938   5.100  1.7585 -1.4982  1.1887
   87MOL   H25833110   0.665   1.945   4.945 -0.1958 -1.4064  0.3110
   87MOL   H25933111   0.672   1.709   4.911  0.1466  0.9021 -0.9316
   87MOL   H26033112   0.646   1.706   5.081 -1.5777 -0.9704 -0.5470
   87MOL   H26133113   0.860   1.616   4.918  0.0281 -0.2211 -0.5222
   87MOL   H26233114   0.852   1.604   5.219 -1.0856 -1.6654  0.1032
   87MOL   H26333115   0.983   1.532   5.131 -0.1006 -0.8863  1.3321
   87MOL   H26433116   0.792   1.402   4.995 -1.2539  2.0885 -0.6721
   87MOL   H26533117   0.681   1.464   5.111 -0.5925 -3.0033  0.5197
   87MOL   H26633118   1.047   1.755   4.983 -2.3724 -1.4464 -1.0889
   87MOL   H26733119   0.968   1.808   5.135  1.9070 -0.4924 -0.4900
   87MOL   C26833120   0.818   1.331   5.192 -0.5074  0.1635 -0.5754
   87MOL   C26933121   0.766   1.191   5.148 -0.3692  0.1084  0.1892
   87MOL   C27033122   0.688   1.139   5.262 -0.1520  0.2215  0.5071
   87MOL   C27133123   0.745   1.209   5.390 -0.0020  0.5142 -0.3454
   87MOL   C27233124   0.658   1.188   5.519  0.0215 -0.2732  0.6902
   87MOL   C27333125   0.728   1.215   5.652  0.3224  0.5189 -0.1191
   87MOL   C27433126   0.768   1.348   5.340 -0.7520 -0.7798  0.6088
   87MOL   H27533127   0.926   1.321   5.204 -0.7552 -2.9572 -0.4974
   87MOL   H27633128   0.708   1.188   5.056 -0.0533  2.0421 -0.1073
   87MOL   H27733129   0.853   1.127   5.133  0.0971  0.0162  3.0290
   87MOL   H27833130   0.583   1.166   5.254 -0.0679  0.7556  1.2201
   87MOL   H27933131   0.686   1.030   5.258  2.4683  0.2059 -1.5128
   87MOL   H28033132   0.847   1.175   5.404 -0.3417 -0.3473  0.0888
   87MOL   H28133133   0.632   1.082   5.516 -0.6507 -0.1253  1.0142
   87MOL   H28233134   0.567   1.246   5.505  0.1194 -0.7347 -2.1505
   87MOL   H28333135   0.821   1.159   5.661 -0.0899 -0.3888 -1.4508
   87MOL   H28433136   0.772   1.315   5.650 -1.3564  1.3082  1.1594
   87MOL   H28533137   0.674   1.404   5.343 -0.8015 -0.9389  2.1386
   87MOL   H28633138   0.836   1.396   5.409  0.4018  1.1654 -1.7817
   87MOL   C28733139   0.641   1.166   5.773  0.4499  0.2361 -0.0644
   87MOL   C28833140   0.721   1.198   5.899 -0.2719  0.2784 -0.2298
   87MOL   C28933141   0.622   1.216   6.008 -0.1219 -0.0578  0.2084
   87MOL   C29033142   0.482   1.243   5.940 -0.5479 -1.0610  0.0357
   87MOL   C29133143   0.423   1.376   5.989 -0.6616  0.6409  0.0589
   87MOL   C29233144   0.288   1.401   5.921  0.3294  0.1603  0.2347
   87MOL   C29333145   0.514   1.246   5.789  0.1390 -0.5398  0.2000
   87MOL   H29433146   0.607   1.063   5.757  1.3690  0.0705 -1.0282
   87MOL   H29533147   0.792   1.119   5.925 -1.3826 -0.5968  0.1691
   87MOL   H29633148   0.765   1.296   5.883 -0.0907  0.5204  1.7362
   87MOL   H29733149   0.646   1.293   6.082 -0.8553  0.0211  0.3706
   87MOL   H29833150   0.623   1.128   6.072  0.8728  2.0612  3.2445
   87MOL   H29933151   0.418   1.159   5.970 -0.2304 -1.2628  0.1462
   87MOL   H30033152   0.492   1.458   5.973  0.9197 -0.7298 -0.1840
   87MOL   H30133153   0.412   1.365   6.097 -0.1257 -0.4251  0.0043
   87MOL   H30233154   0.230   1.309   5.909 -2.6298  1.7876  1.4910
   87MOL   H30333155   0.301   1.445   5.822 -3.5532  1.1398  0.0677
   87MOL   H30433156   0.514   1.349   5.753 -1.7046 -0.3713  0.6085
   87MOL   H30533157   0.433   1.185   5.749  0.4802 -2.5117  2.4192
   87MOL   C30633158   0.195   1.499   6.000  0.4121  0.3322  0.7348
   87MOL   C30733159   0.241   1.654   6.010  0.1824  0.4018 -0.2309
   87MOL   C30833160   0.118   1.733   5.993  0.1902  0.8350  0.0032
   87MOL   C30933161   7.644   1.637   5.979  0.4031  0.1969 -0.3257
   87MOL   C31033162   7.534   1.692   5.890  0.1627  0.1678 -0.0273
   87MOL   C31133163   7.441   1.797   5.967  0.2997 -0.1113 -0.0365
   87MOL   C31233164   0.056   1.504   5.932  0.5857  0.1794  0.0724
   87MOL   H31333165   0.186   1.459   6.101 -0.7273 -0.3988  0.3569
   87MOL   H31433166   0.281   1.674   6.110 -4.8441  0.8643  1.8295
   87MOL   H31533167   0.312   1.673   5.930  0.7348 -0.1103  0.1363
   87MOL   H31633168   0.107   1.792   6.084 -0.4755 -0.4487  0.7624
   87MOL   H31733169   0.125   1.804   5.910  1.4512 -0.3116 -0.8807
   87MOL   H31833170   7.603   1.620   6.079  1.3431 -1.2536 -0.1756
   87MOL   H31933171   7.580   1.743   5.805  0.0062  0.6723  0.1896
   87MOL   H32033172   7.483   1.606   5.847 -0.4442 -0.4351  1.8698
   87MOL   H32133173   7.495   1.871   6.026  0.4628 -0.5392  0.3556
   87MOL   H32233174   7.372   1.757   6.040 -1.8297  0.3311 -1.7639
   87MOL   H32333175   0.066   1.514   5.823  0.3950 -0.9174 -0.0599
   87MOL   H32433176   7.644   1.416   5.956 -1.3107  2.0266  2.2796
   87MOL   C32533177   7.347   1.873   5.867  0.2379 -0.1905  0.4870
   87MOL   C32633178   7.249   1.772   5.796 -0.2012 -0.2912 -0.5332
   87MOL   C32733179   7.122   1.852   5.753 -0.4137 -0.4277 -0.8245
   87MOL   C32833180   7.136   1.988   5.830 -0.0783 -0.0138  0.6157
   87MOL   C32933181   7.169   2.106   5.737  0.1614 -0.6782 -0.5286
   87MOL   C33033182   7.054   2.145   5.644  0.6847  0.0237 -0.5549
   87MOL   C33133183   7.241   1.959   5.936 -0.0128  0.2646 -0.3924
   87MOL   H33233184   7.404   1.925   5.790 -1.3293 -0.6136 -1.0086
   87MOL   H33333185   7.228   1.697   5.872  2.8739 -0.4671  0.2004
   87MOL   H33433186   7.305   1.734   5.711 -0.2590  3.8703 -2.5716
   87MOL   H33533187   7.135   1.865   5.646 -0.5472 -0.4071 -0.8390
   87MOL   H33633188   7.031   1.795   5.775 -1.1083  0.2551 -1.8634
   87MOL   H33733189   7.041   2.008   5.881 -0.1495 -0.4724  0.6594
   87MOL   H33833190   7.189   2.193   5.799  2.6593 -2.2823  1.0132
   87MOL   H33933191   7.251   2.089   5.667  1.1085 -0.4065  0.5050
   87MOL   H34033192   7.035   2.066   5.571  1.1783 -1.6517  1.0945
   87MOL   H34133193   6.970   2.162   5.712 -1.7445 -1.6341 -3.0060
   87MOL   H34233194   7.196   1.899   6.015 -0.7794 -0.1808 -1.1505
   87MOL   H34333195   7.278   2.049   5.985  1.4146 -0.6347  0.2043
   87MOL   C34433196   7.085   2.269   5.568 -0.2065  0.1962 -0.1159
   87MOL   C34533197   6.964   2.327   5.505  0.4382  0.4404  0.4453
   87MOL   C34633198   7.015   2.436   5.404 -0.1933 -0.0852  0.6293
   87MOL   C34733199   7.126   2.347   5.340 -0.2902 -0.5343  0.1763
   87MOL   C34833200   7.233   2.427   5.264 -0.3646  0.6041  0.0467
   87MOL   C34933201   7.192   2.480   5.124  0.2130  0.3882  0.3757
   87MOL   C35033202   7.184   2.258   5.455 -0.1265 -0.4615 -0.0368
   87MOL   H35133203   7.125   2.343   5.637 -0.6426 -0.0394  0.3980
   87MOL   H35233204   6.892   2.354   5.582  0.3437  0.9621  0.1798
   87MOL   H35333205   6.913   2.251   5.446 -1.7924  1.2769  1.2397
   87MOL   H35433206   6.941   2.480   5.337  1.0541  0.6603 -0.2775
   87MOL   H35533207   7.066   2.516   5.458 -1.0373  0.3229  0.8296
   87MOL   H35633208   7.075   2.285   5.266  1.5203 -0.1431 -1.4382
   87MOL   H35733209   7.274   2.506   5.327  0.7796 -0.1142  0.2180
   87MOL   H35833210   7.312   2.355   5.242 -1.1325  0.2704 -1.7628
   87MOL   H35933211   7.094   2.527   5.134  0.3453  0.8552 -0.5146
   87MOL   H36033212   7.184   2.397   5.055  0.4876  0.7582 -0.1061
   87MOL   H36133213   7.206   2.154   5.434  1.9957 -0.6471  2.8124
   87MOL   H36233214   7.287   2.287   5.480 -0.4205 -0.7289  1.5340
   87MOL   C36333215   7.292   2.581   5.054  0.0541  0.1619 -0.1821
   87MOL   C36433216   7.318   2.724   5.120 -0.0921  0.4747 -0.5160
   87MOL   C36533217   7.333   2.818   5.000 -0.1712 -0.0503 -0.5822
   87MOL   C36633218   7.322   2.739   4.865 -0.3102 -0.7101 -0.3356
   87MOL   C36733219   7.258   2.822   4.752 -0.4338  0.0544 -0.7116
   87MOL   C36833220   7.244   2.746   4.617  0.5691  0.5679  0.1052
   87MOL   C36933221   7.249   2.607   4.908 -0.1347  0.4299 -0.0284
   87MOL   H37033222   7.390   2.533   5.048  0.4262  1.0286 -1.2622
   87MOL   H37133223   7.239   2.769   5.180 -0.5032 -0.3881 -0.3963
   87MOL   H37233224   7.407   2.720   5.183 -0.1389  0.1790 -0.4680
   87MOL   H37333225   7.261   2.898   5.013 -0.6377 -0.8087  1.7356
   87MOL   H37433226   7.433   2.861   5.010 -0.5773  0.4497  1.4415
   87MOL   H37533227   7.421   2.703   4.839  0.1366  0.5868 -0.4622
   87MOL   H37633228   7.162   2.865   4.780 -0.0336  2.2083 -2.5652
   87MOL   H37733229   7.320   2.909   4.733 -2.3919  1.8468  0.8787
   87MOL   H37833230   7.217   2.812   4.534 -1.6160 -0.6028 -0.1459
   87MOL   H37933231   7.176   2.661   4.619 -0.2969  1.2337 -0.3986
   87MOL   H38033232   7.142   2.627   4.909 -0.0848  0.7542  2.5574
   87MOL   H38133233   7.266   2.523   4.840 -2.8679  0.6581 -1.0358
   87MOL   H38233234   7.335   2.690   4.594 -0.2377 -0.6564 -0.1617
   88MOL     C133235   1.447   7.581   3.202 -0.6544  0.0190 -0.3994
   88MOL     C233236   1.598   7.599   3.214 -0.1805 -0.1697  0.4591
   88MOL     C333237   1.662   7.557   3.076  0.0156  0.1722  0.3698
   88MOL     C433238   1.565   7.444   3.029  0.1729  0.2690  0.1092
   88MOL     C533239   1.613   7.295   3.074 -0.1586  0.2434  0.2875
   88MOL     C633240   1.736   7.251   3.002  0.0050  0.4585 -0.2997
   88MOL     C733241   1.427   7.484   3.081  0.7320 -0.2146  0.2709
   88MOL     H833242   1.405   7.530   3.288  1.5256 -1.3987 -0.1498
   88MOL     H933243   1.642   7.527   3.284  0.1353 -0.9977 -0.5656
   88MOL    H1033244   1.630   0.052   3.241  1.5958 -0.3933 -0.6731
   88MOL    H1133245   1.651   7.643   3.010 -0.3660 -0.4778 -0.4253
   88MOL    H1233246   1.768   7.530   3.077 -0.1011 -0.2432  1.9605
   88MOL    H1333247   1.550   7.448   2.921  0.4144  2.1148  0.1275
   88MOL    H1433248   1.614   7.300   3.183 -3.4886 -1.5148  0.4747
   88MOL    H1533249   1.542   7.217   3.048  1.2790 -0.7055 -0.8753
   88MOL    H1633250   1.718   7.245   2.894 -0.8690 -0.1033 -0.1231
   88MOL    H1733251   1.811   7.328   3.018  1.3431 -1.0055  0.6313
   88MOL    H1833252   1.383   7.545   3.002 -2.2389 -2.4202  0.0957
   88MOL    H1933253   1.357   7.401   3.094 -0.5055  0.8669  0.5775
   88MOL    H2033254   1.396   0.029   3.187 -3.1174 -1.2468 -0.1981
   88MOL    C2133255   1.799   7.119   3.057  1.1196  0.1790  0.1645
   88MOL    C2233256   1.706   6.994   3.061 -0.1591  0.3152 -0.0096
   88MOL    C2333257   1.797   6.872   3.056  0.2618 -0.0044  0.0674
   88MOL    C2433258   1.937   6.925   3.036 -0.1340  0.5349 -0.4593
   88MOL    C2533259   2.034   6.835   2.958 -0.3520  0.0623  0.2106
   88MOL    C2633260   2.166   6.904   2.927 -0.5261 -0.3752  0.3160
   88MOL    C2733261   1.922   7.070   2.979  0.3155 -0.4295  0.6617
   88MOL    H2833262   1.835   7.148   3.156 -0.4203  1.7082  0.3007
   88MOL    H2933263   1.644   6.992   3.151 -0.1690  0.0857 -0.0222
   88MOL    H3033264   1.636   7.000   2.977 -0.0016  3.2377  0.0028
   88MOL    H3133265   1.789   6.803   3.139 -1.2580 -0.0293 -0.0877
   88MOL    H3233266   1.780   6.814   2.965  0.1598 -0.9655  0.6962
   88MOL    H3333267   1.984   6.948   3.131  0.0412 -1.8266  0.0583
   88MOL    H3433268   1.988   6.804   2.864 -1.5149  1.6910  0.2180
   88MOL    H3533269   2.045   6.740   3.011  0.0964  0.0014  0.0053
   88MOL    H3633270   2.199   6.948   3.021 -1.3045 -2.3719  1.5667
   88MOL    H3733271   2.149   6.982   2.854  0.4319  1.7206  2.2768
   88MOL    H3833272   2.005   7.138   2.997 -1.1762  1.7877 -0.5503
   88MOL    H3933273   1.909   7.063   2.871  2.3740 -1.9643  0.4753
   88MOL    C4033274   2.278   6.821   2.871  0.1980  0.4184 -0.2460
   88MOL    C4133275   2.259   6.778   2.729  0.1633 -0.7434  0.2638
   88MOL    C4233276   2.389   6.798   2.649 -0.6919  0.0326  0.4840
   88MOL    C4333277   2.501   6.844   2.745  0.7448  0.1252  0.1871
   88MOL    C4433278   2.596   6.733   2.787  0.2269 -0.2370 -0.4143
   88MOL    C4533279   2.736   6.787   2.829 -0.2030 -0.0150  0.2070
   88MOL    C4633280   2.412   6.902   2.861  0.9114  0.2064  0.0116
   88MOL    H4733281   2.296   6.733   2.933 -0.3230 -0.1036 -0.8394
   88MOL    H4833282   2.183   6.846   2.690 -0.6550 -1.9832 -0.3669
   88MOL    H4933283   2.228   6.673   2.729 -0.8034 -0.4902 -1.6997
   88MOL    H5033284   2.406   6.698   2.609  0.6157  1.2303 -2.0206
   88MOL    H5133285   2.373   6.856   2.558 -0.8614 -1.2807 -0.3353
   88MOL    H5233286   2.561   6.918   2.692  2.4322  0.3274  2.3263
   88MOL    H5333287   2.553   6.676   2.869 -0.1660  2.2032  1.1394
   88MOL    H5433288   2.621   6.667   2.704 -0.5097 -0.9091 -0.1072
   88MOL    H5533289   2.736   6.871   2.898  0.9448  0.4497 -0.3556
   88MOL    H5633290   2.773   6.829   2.736 -1.0453  1.0270  0.3326
   88MOL    H5733291   2.468   6.899   2.954  0.2478 -0.1117  0.4074
   88MOL    H5833292   2.381   7.002   2.831  1.1714  0.0459 -0.7866
   88MOL    C5933293   2.826   6.685   2.883 -0.4148 -0.3842 -0.4048
   88MOL    C6033294   2.972   6.736   2.901 -0.3997  0.3569  0.3811
   88MOL    C6133295   3.028   6.671   3.027  0.5657  0.7016 -0.5988
   88MOL    C6233296   2.909   6.660   3.121  0.5130  0.5120  0.6242
   88MOL    C6333297   2.927   6.555   3.236 -0.3575  1.3540 -0.6884
   88MOL    C6433298   3.038   6.593   3.340 -0.2389  0.0750  0.2238
   88MOL    C6533299   2.791   6.633   3.023 -0.4896 -0.1593 -0.2171
   88MOL    H6633300   2.824   6.602   2.811 -2.2919 -1.7907  1.2008
   88MOL    H6733301   3.020   6.735   2.803 -1.0060 -1.3639  0.0821
   88MOL    H6833302   2.960   6.839   2.934 -2.8957  0.4294 -0.6069
   88MOL    H6933303   3.068   6.571   3.012 -0.4089  0.4540 -1.6508
   88MOL    H7033304   3.108   6.719   3.083  0.7840 -1.4319  0.9594
   88MOL    H7133305   2.887   6.758   3.162  0.2302  0.7857 -0.1744
   88MOL    H7233306   2.947   6.461   3.185 -1.0226  0.6962  0.2445
   88MOL    H7333307   2.829   6.546   3.284  0.1053 -0.3496 -0.0350
   88MOL    H7433308   3.138   6.595   3.298  0.1258  1.0678  1.1181
   88MOL    H7533309   3.021   6.696   3.372 -0.2095  0.6818 -1.6686
   88MOL    H7633310   2.775   6.525   3.025 -1.5380  0.0062  1.2539
   88MOL    H7733311   2.701   6.685   3.055 -1.0420 -1.2171 -0.0222
   88MOL    C7833312   3.038   6.511   3.475 -0.1905 -0.4107  0.4717
   88MOL    C7933313   3.045   6.361   3.457  0.3726  0.2435 -0.1828
   88MOL    C8033314   3.161   6.305   3.553  0.7059  0.1133  1.0239
   88MOL    C8133315   3.176   6.423   3.655 -0.6363  0.0679  1.1992
   88MOL    C8233316   3.312   6.435   3.726  0.1655 -0.4110  0.3522
   88MOL    C8333317   3.333   6.322   3.823 -0.0185 -0.0749  0.2672
   88MOL    C8433318   3.144   6.549   3.578 -0.0696  0.0311 -0.4749
   88MOL    H8533319   2.940   6.528   3.519  0.8628  0.7421  2.4018
   88MOL    H8633320   2.954   6.309   3.485  1.9730 -2.1220  0.7835
   88MOL    H8733321   3.061   6.338   3.351  0.2701  2.0613 -0.6177
   88MOL    H8833322   3.118   6.222   3.608 -0.3016  0.8183  1.3257
   88MOL    H8933323   3.249   6.264   3.504  0.9903  2.4109 -0.4696
   88MOL    H9033324   3.105   6.411   3.737 -1.1938 -0.6697  0.6113
   88MOL    H9133325   3.314   6.530   3.780 -0.8244 -0.5605  0.6678
   88MOL    H9233326   3.393   6.443   3.653  1.1325  1.9532  1.6165
   88MOL    H9333327   3.325   6.227   3.771  1.8584 -0.1393  0.0678
   88MOL    H9433328   3.245   6.327   3.889 -0.7574  0.0946 -0.7255
   88MOL    H9533329   3.233   6.579   3.522 -1.0759  2.8387 -0.6145
   88MOL    H9633330   3.113   6.643   3.622  2.3893  1.4433 -1.6825
   88MOL    C9733331   3.456   6.322   3.916  0.0564 -0.2837 -0.1787
   88MOL    C9833332   3.587   6.313   3.842  0.2923  0.5157  0.1414
   88MOL    C9933333   3.672   6.195   3.901  0.6379  0.4560 -0.2012
   88MOL   C10033334   3.601   6.162   4.033  0.0947  0.4298  0.2033
   88MOL   C10133335   3.623   6.023   4.083 -0.8027  0.1451  0.7614
   88MOL   C10233336   3.538   5.986   4.212 -0.0676 -1.2445 -0.2349
   88MOL   C10333337   3.456   6.203   4.011 -0.7357  0.8341 -0.3563
   88MOL   H10433338   3.456   6.412   3.978 -2.5078  1.6578 -2.8615
   88MOL   H10533339   3.574   6.291   3.735  2.8396  0.5839 -0.2159
   88MOL   H10633340   3.642   6.405   3.862  1.5651 -0.1649 -0.1585
   88MOL   H10733341   3.653   6.117   3.828  0.5557  0.7888 -0.5393
   88MOL   H10833342   3.779   6.213   3.902  0.5081  1.2538  0.0898
   88MOL   H10933343   3.641   6.223   4.114 -1.4085  1.6043  0.0946
   88MOL   H11033344   3.621   5.954   3.998  2.5493 -0.0388  0.7723
   88MOL   H11133345   3.728   6.013   4.108 -0.5071 -0.7743 -0.7589
   88MOL   H11233346   3.594   6.014   4.301 -1.5473  0.6609  0.1337
   88MOL   H11333347   3.438   6.028   4.217  0.3674 -0.0614 -1.3849
   88MOL   H11433348   3.388   6.127   3.972  0.3940 -0.0972 -0.5271
   88MOL   H11533349   3.421   6.232   4.110  1.4644  2.2132  0.0500
   88MOL   C11633350   3.524   5.832   4.211 -0.0303  0.0778  0.3589
   88MOL   C11733351   3.473   5.783   4.343 -0.3063  0.4617  0.6028
   88MOL   C11833352   3.353   5.677   4.315  0.0728  0.3102  0.3912
   88MOL   C11933353   3.360   5.645   4.156 -0.1055  0.5260 -0.4933
   88MOL   C12033354   3.225   5.592   4.108 -0.2143 -0.0237  0.1303
   88MOL   C12133355   3.218   5.528   3.971  0.6737  0.5649  0.9637
   88MOL   C12233356   3.431   5.774   4.101  0.2434  0.6769 -0.2099
   88MOL   H12333357   3.615   5.772   4.203 -0.6867 -1.1179  1.7262
   88MOL   H12433358   3.439   5.864   4.407 -0.6881 -0.7526  1.9708
   88MOL   H12533359   3.556   5.743   4.401 -0.3876  0.0367  0.4360
   88MOL   H12633360   3.254   5.720   4.330 -0.2141  0.3567 -1.5351
   88MOL   H12733361   3.366   5.585   4.370  0.9907  1.3128  1.8954
   88MOL   H12833362   3.429   5.561   4.156 -2.2475 -1.3370  2.3474
   88MOL   H12933363   3.149   5.670   4.105  0.1261  0.2796 -0.5878
   88MOL   H13033364   3.197   5.521   4.186  2.9022 -0.4569  0.8856
   88MOL   H13133365   3.237   5.608   3.899 -0.9446 -1.7029 -2.1158
   88MOL   H13233366   3.116   5.493   3.952  0.4804  0.5214  2.0612
   88MOL   H13333367   3.484   5.753   4.008  1.4387 -0.7522  0.7453
   88MOL   H13433368   3.353   5.846   4.081 -0.9262 -1.0768 -2.1557
   88MOL   C13533369   3.319   5.421   3.927  0.5661 -0.0885 -0.1993
   88MOL   C13633370   3.318   5.287   4.006  0.0110  0.2417 -0.3785
   88MOL   C13733371   3.402   5.196   3.914  0.1808 -0.1359  0.3767
   88MOL   C13833372   3.365   5.242   3.773  0.7116 -0.4911  0.2805
   88MOL   C13933373   3.479   5.228   3.666  0.0296  0.2051  0.7094
   88MOL   C14033374   3.424   5.254   3.533 -0.0941 -0.6852  0.4506
   88MOL   C14133375   3.295   5.374   3.781  0.3050 -0.1560 -0.0206
   88MOL   H14233376   3.417   5.469   3.932  0.3269  0.5638 -1.4666
   88MOL   H14333377   3.360   5.316   4.102  1.7054  2.3786 -1.7009
   88MOL   H14433378   3.215   5.256   4.019  0.1208  0.1252  0.2134
   88MOL   H14533379   3.507   5.219   3.936 -0.8971  2.6745  3.0282
   88MOL   H14633380   3.382   5.091   3.937  0.1291 -0.0867  0.5554
   88MOL   H14733381   3.288   5.169   3.745  0.0893 -0.7121  2.4769
   88MOL   H14833382   3.505   5.122   3.665  0.1799  0.2062  2.5515
   88MOL   H14933383   3.561   5.294   3.697 -0.2807  1.1304 -0.4171
   88MOL   H15033384   3.346   5.182   3.506 -0.1372 -1.0763  1.6029
   88MOL   H15133385   3.367   5.346   3.538 -1.0822 -1.3487  1.6196
   88MOL   H15233386   3.188   5.355   3.773  0.2212  0.1204  0.4229
   88MOL   H15333387   3.336   5.443   3.708  1.0210 -2.2845 -1.6975
   88MOL   C15433388   3.529   5.262   3.424 -0.4152 -0.1907 -0.1368
   88MOL   C15533389   3.645   5.358   3.467 -0.3142 -0.0747 -0.0244
   88MOL   C15633390   3.714   5.386   3.330  0.6347  0.7250  0.2109
   88MOL   C15733391   3.610   5.384   3.209 -0.1037  0.2904  0.1161
   88MOL   C15833392   3.586   5.514   3.133  0.8384  0.1124  0.1128
   88MOL   C15933393   3.691   5.560   3.037  0.0893 -0.0724 -0.4048
   88MOL   C16033394   3.484   5.334   3.296 -0.3046 -0.3796 -0.0289
   88MOL   H16133395   3.566   5.164   3.393  0.0060 -0.1694  0.2825
   88MOL   H16233396   3.606   5.441   3.526 -1.3968 -1.5910  1.4594
   88MOL   H16333397   3.712   5.304   3.534 -2.5694 -1.5986  1.0955
   88MOL   H16433398   3.780   5.473   3.327 -0.9154  1.9139  0.0715
   88MOL   H16533399   3.785   5.305   3.310 -1.5073 -1.0565 -0.3886
   88MOL   H16633400   3.630   5.312   3.130  0.4038  1.2219 -0.6076
   88MOL   H16733401   3.569   5.586   3.214  0.1067 -0.1692  0.2081
   88MOL   H16833402   3.488   5.513   3.087  0.5933  1.1737  0.5860
   88MOL   H16933403   3.792   5.554   3.077  0.5413 -2.2206 -1.7858
   88MOL   H17033404   3.689   5.494   2.951 -0.8359 -0.3762 -0.1617
   88MOL   H17133405   3.420   5.282   3.223 -2.8840  1.0655  1.1221
   88MOL   H17233406   3.427   5.424   3.318  3.7164  1.3244  4.2213
   88MOL   C17333407   3.671   5.702   2.977 -0.4559 -0.6625 -0.4060
   88MOL   C17433408   3.537   5.734   2.916 -0.0413  0.2805  0.2065
   88MOL   C17533409   3.518   5.888   2.918 -0.3179 -0.3763 -0.2291
   88MOL   C17633410   3.588   5.920   3.057 -0.0794 -0.0396  0.1606
   88MOL   C17733411   3.498   5.915   3.182  0.7019  0.3187  0.6311
   88MOL   C17833412   3.553   5.947   3.320  0.1174 -0.4501 -0.0494
   88MOL   C17933413   3.701   5.822   3.071  0.0139  0.1675  0.2252
   88MOL   H18033414   3.743   5.711   2.895  0.5419  1.3904  0.6531
   88MOL   H18133415   3.456   5.694   2.976 -0.1690 -0.5117 -0.4739
   88MOL   H18233416   3.522   5.693   2.816 -1.0513 -0.2888  0.5817
   88MOL   H18333417   3.581   5.921   2.836 -0.3626 -0.8651 -0.4638
   88MOL   H18433418   3.412   5.913   2.911 -0.1351 -0.3472 -3.2952
   88MOL   H18533419   3.627   6.020   3.041 -0.9327  0.0218 -1.6088
   88MOL   H18633420   3.456   5.814   3.179  0.1276  0.5853 -1.0311
   88MOL   H18733421   3.415   5.979   3.152  0.7363 -0.6943 -1.6687
   88MOL   H18833422   3.605   6.042   3.310 -1.8073  0.5001 -1.4009
   88MOL   H18933423   3.630   5.882   3.360  1.8092  2.4539  1.6013
   88MOL   H19033424   3.708   5.794   3.176 -0.2318 -1.6959 -0.2308
   88MOL   H19133425   3.786   5.886   3.047  0.5790 -0.5072  0.4280
   88MOL   C19233426   3.442   5.957   3.425 -0.0235 -0.1906  0.0135
   88MOL   C19333427   3.491   5.978   3.574  0.4238 -0.8561 -0.0130
   88MOL   C19433428   3.363   5.954   3.649  0.2544  0.2163  0.1737
   88MOL   C19533429   3.300   5.824   3.583 -0.3244 -0.2970 -0.0734
   88MOL   C19633430   3.147   5.836   3.581  0.0796  0.9104 -0.2824
   88MOL   C19733431   3.088   5.698   3.562  0.6168  0.1234  1.5184
   88MOL   C19833432   3.356   5.830   3.439  0.1686  0.9435  0.0255
   88MOL   H19933433   3.375   6.038   3.394  0.3060  0.6998  1.5992
   88MOL   H20033434   3.560   5.902   3.609  1.2940 -0.4223 -0.7441
   88MOL   H20133435   3.544   6.072   3.590 -0.2735 -0.6254  0.9333
   88MOL   H20233436   3.295   6.039   3.650 -1.0645 -0.7703 -1.9539
   88MOL   H20333437   3.386   5.939   3.755 -1.0799  0.6178  0.5336
   88MOL   H20433438   3.337   5.731   3.628 -2.8138  0.0425  2.8174
   88MOL   H20533439   3.111   5.907   3.506  0.0190  0.7720 -0.3842
   88MOL   H20633440   3.118   5.872   3.679  1.5357  0.5940  0.2692
   88MOL   H20733441   3.127   5.621   3.629  1.3638  0.5874  1.6247
   88MOL   H20833442   3.115   5.669   3.460 -0.3954  3.0911  0.3420
   88MOL   H20933443   3.276   5.824   3.365 -0.4510 -0.3838  0.7920
   88MOL   H21033444   3.416   5.739   3.428 -1.1682  0.1899 -1.1733
   88MOL   C21133445   2.931   5.704   3.572 -0.1760 -0.0337  0.1747
   88MOL   C21233446   2.886   5.720   3.721  0.7967  0.5398  0.6118
   88MOL   C21333447   2.743   5.675   3.727 -0.1341  0.1621  0.3535
   88MOL   C21433448   2.711   5.609   3.593  0.4161  0.2859  0.3759
   88MOL   C21533449   2.631   5.476   3.592  0.0180  0.5675  0.5752
   88MOL   C21633450   2.627   5.395   3.458 -0.1118  0.0153  0.0260
   88MOL   C21733451   2.854   5.585   3.527  0.0411  0.3242  0.3008
   88MOL   H21833452   2.887   5.792   3.526  0.1561  0.2156  0.3276
   88MOL   H21933453   2.946   5.656   3.787 -1.4663  0.2692  2.4618
   88MOL   H22033454   2.900   5.823   3.754 -0.4186  0.8324  0.2512
   88MOL   H22133455   2.732   5.605   3.809  1.3487 -0.3184  0.1638
   88MOL   H22233456   2.672   5.757   3.742 -0.1301 -0.3485  3.3952
   88MOL   H22333457   2.655   5.681   3.533 -0.8829 -1.1685 -0.2058
   88MOL   H22433458   2.532   5.503   3.628  0.0308 -0.7647  1.6297
   88MOL   H22533459   2.672   5.411   3.669  0.9833  2.2991  1.5562
   88MOL   H22633460   2.620   5.470   3.379  0.9685 -1.0747 -1.1223
   88MOL   H22733461   2.718   5.337   3.443 -0.0529  0.2056 -0.3576
   88MOL   H22833462   2.850   5.577   3.419  1.8417 -1.2677  0.3275
   88MOL   H22933463   2.891   5.497   3.579 -2.6123  0.9988  3.5130
   88MOL   C23033464   2.508   5.304   3.457  0.0494  0.3380 -0.1559
   88MOL   C23133465   2.491   5.189   3.562 -0.3827  0.1859 -0.6281
   88MOL   C23233466   2.401   5.088   3.492  0.3553  0.6587  0.8764
   88MOL   C23333467   2.447   5.084   3.348 -0.5814 -0.5179  0.3082
   88MOL   C23433468   2.341   5.019   3.253  0.2969  0.2471  0.3804
   88MOL   C23533469   2.404   5.019   3.112  0.7064 -1.4511  0.5544
   88MOL   C23633470   2.485   5.229   3.325  0.2285  0.2729  0.4007
   88MOL   H23733471   2.425   5.373   3.474 -1.4762 -1.2724 -0.9173
   88MOL   H23833472   2.588   5.141   3.574 -0.2573  0.4669 -0.5232
   88MOL   H23933473   2.444   5.219   3.655 -1.5227 -2.1080 -0.4084
   88MOL   H24033474   2.297   5.121   3.494 -1.2024 -3.7105 -1.1346
   88MOL   H24133475   2.407   4.985   3.527 -1.2855  0.4019  0.4693
   88MOL   H24233476   2.537   5.023   3.345 -0.8639 -0.9089 -0.2347
   88MOL   H24333477   2.247   5.075   3.252  0.6591  1.0680  4.0988
   88MOL   H24433478   2.318   4.926   3.304 -3.0614 -0.0469 -1.5723
   88MOL   H24533479   2.423   5.124   3.090  0.6756 -1.6161 -0.2886
   88MOL   H24633480   2.501   4.970   3.120  1.0356 -0.8210  0.3567
   88MOL   H24733481   2.400   5.272   3.272 -0.1421 -0.2132  0.5911
   88MOL   H24833482   2.570   5.225   3.258 -1.1178 -2.4525 -1.2447
   88MOL   C24933483   2.301   4.953   3.019 -0.1261 -0.0380  0.0331
   88MOL   C25033484   2.165   5.022   2.991  0.7098  0.3094 -0.4531
   88MOL   C25133485   2.120   4.939   2.868 -0.5294  0.0329 -0.4433
   88MOL   C25233486   2.241   4.919   2.775  0.4930  0.1567  1.1012
   88MOL   C25333487   2.243   4.789   2.694  0.3017 -0.6629  0.0193
   88MOL   C25433488   2.138   4.786   2.581  0.1218  0.1402 -0.0942
   88MOL   C25533489   2.355   4.921   2.880  0.0988 -0.0038 -0.0985
   88MOL   H25633490   2.276   4.858   3.065 -0.6183  0.1183  0.0913
   88MOL   H25733491   2.089   5.006   3.068  0.6424  1.2686 -0.3135
   88MOL   H25833492   2.192   5.124   2.965  0.1429  0.9450  1.3423
   88MOL   H25933493   2.043   4.998   2.819  0.1250  0.4070 -1.0418
   88MOL   H26033494   2.072   4.846   2.897  0.2118 -0.5776 -1.1700
   88MOL   H26133495   2.261   5.010   2.719  0.1834  0.4451  1.4661
   88MOL   H26233496   2.242   4.697   2.753  0.6700 -2.2674 -2.4263
   88MOL   H26333497   2.339   4.791   2.644  0.0420 -2.7086 -0.6257
   88MOL   H26433498   2.038   4.803   2.619 -0.1735  1.5233 -1.4369
   88MOL   H26533499   2.140   4.688   2.533 -0.3606  0.2093 -0.2571
   88MOL   H26633500   2.425   5.002   2.864 -1.7880  1.1296 -3.1232
   88MOL   H26733501   2.411   4.828   2.886  0.1889  0.0657  0.1380
   88MOL   C26833502   2.168   4.887   2.465  0.4331  0.0333 -0.0534
   88MOL   C26933503   2.050   4.877   2.358 -0.3612  0.2859 -0.0800
   88MOL   C27033504   2.118   4.883   2.218 -0.4222  0.0829 -0.6838
   88MOL   C27133505   2.264   4.913   2.243  0.1820  0.0362  0.0185
   88MOL   C27233506   2.353   4.860   2.139  0.1918 -0.2993 -0.4139
   88MOL   C27333507   2.320   4.879   1.995 -0.2847 -0.1827  0.6834
   88MOL   C27433508   2.295   4.851   2.380 -0.0063  0.0794 -0.4387
   88MOL   H27533509   2.177   4.989   2.502 -3.6754  0.4830 -0.0217
   88MOL   H27633510   1.997   4.782   2.360  0.0351  0.0558 -0.4175
   88MOL   H27733511   1.973   4.952   2.376  0.3023  1.0981 -0.5188
   88MOL   H27833512   2.114   4.784   2.175 -1.7698 -0.3538  0.4134
   88MOL   H27933513   2.077   4.965   2.159  0.9219  0.0028 -1.7297
   88MOL   H28033514   2.284   5.020   2.246 -1.1804  0.2904  0.5375
   88MOL   H28133515   2.365   4.753   2.159  1.9189 -0.0671 -0.0566
   88MOL   H28233516   2.452   4.905   2.147  0.1577 -0.3615  0.3339
   88MOL   H28333517   2.221   4.841   1.966 -0.8393 -1.0203  3.4438
   88MOL   H28433518   2.313   4.985   1.975  3.4166  0.0351  0.3400
   88MOL   H28533519   2.317   4.744   2.385 -0.6951 -0.0203  0.5545
   88MOL   H28633520   2.384   4.893   2.427 -1.1748  3.0847 -0.8399
   88MOL   C28733521   2.412   4.816   1.889 -0.7044 -0.2883 -0.6359
   88MOL   C28833522   2.363   4.851   1.752 -0.5310  0.2863 -0.2264
   88MOL   C28933523   2.483   4.824   1.661  0.1470  0.1088  0.0996
   88MOL   C29033524   2.607   4.806   1.753  0.0033 -0.2681  0.0096
   88MOL   C29133525   2.742   4.869   1.701  0.3081 -0.6230  0.9527
   88MOL   C29233526   2.864   4.834   1.778 -0.1331  0.0103  0.4571
   88MOL   C29333527   2.557   4.853   1.887 -0.4311 -0.3156  0.1750
   88MOL   H29433528   2.405   4.708   1.902 -2.2584 -0.0886  0.3738
   88MOL   H29533529   2.287   4.784   1.714  0.2130 -0.0250 -1.1739
   88MOL   H29633530   2.325   4.951   1.728  1.7018  0.8526 -1.5509
   88MOL   H29733531   2.495   4.918   1.607 -0.8555 -0.6584 -1.5105
   88MOL   H29833532   2.481   4.739   1.593 -2.0641 -0.6704  1.0762
   88MOL   H29933533   2.628   4.699   1.767  2.1760  0.2989  1.5311
   88MOL   H30033534   2.726   4.974   1.677 -2.0540 -1.1977 -0.1185
   88MOL   H30133535   2.762   4.820   1.605  0.1833  0.3645  0.4131
   88MOL   H30233536   2.877   4.727   1.761  0.7586  0.1145  0.4417
   88MOL   H30333537   2.855   4.850   1.885 -0.4108 -1.3026  0.6398
   88MOL   H30433538   2.576   4.959   1.905 -2.0447  0.2949 -1.5048
   88MOL   H30533539   2.609   4.799   1.966  0.4236 -0.0004 -0.1640
   88MOL   C30633540   2.989   4.913   1.740 -0.1187  0.5638 -0.3659
   88MOL   C30733541   3.034   4.910   1.593  0.3095 -0.2053  0.0240
   88MOL   C30833542   3.127   5.037   1.576 -0.2344 -0.0009 -0.3267
   88MOL   C30933543   3.070   5.139   1.686  0.2112 -0.5679 -0.1048
   88MOL   C31033544   3.005   5.265   1.624  0.2175 -0.1521 -0.7550
   88MOL   C31133545   3.087   5.349   1.530 -0.2603  0.7712 -0.0486
   88MOL   C31233546   2.985   5.063   1.784  0.2200  0.2491  0.5368
   88MOL   H31333547   3.075   4.862   1.783 -1.5891 -1.0545  0.7162
   88MOL   H31433548   3.086   4.819   1.565 -2.5942 -1.5392 -1.2046
   88MOL   H31533549   2.957   4.934   1.519  0.0959 -0.1101  0.2771
   88MOL   H31633550   3.228   5.006   1.602 -0.4624  0.5019  1.1936
   88MOL   H31733551   3.125   5.074   1.473 -0.9470  1.7281  0.2908
   88MOL   H31833552   3.162   5.165   1.738  0.4671 -1.1755 -0.2553
   88MOL   H31933553   2.922   5.238   1.558  0.8579 -1.3918 -1.0685
   88MOL   H32033554   2.971   5.330   1.705 -2.1365 -0.9973 -0.9996
   88MOL   H32133555   3.116   5.289   1.445 -1.5726  0.6402 -0.4205
   88MOL   H32233556   3.168   5.387   1.592 -0.9992  2.1456  0.1006
   88MOL   H32333557   2.884   5.101   1.788  0.8507  1.8590  1.5683
   88MOL   H32433558   3.014   5.065   1.889 -0.3861 -0.5730  0.7202
   88MOL   C32533559   3.018   5.474   1.472  0.1989  0.0511 -0.5308
   88MOL   C32633560   3.100   5.571   1.397  0.4179  0.2170 -0.0836
   88MOL   C32733561   3.002   5.655   1.320  0.0720 -0.3338 -0.2460
   88MOL   C32833562   2.876   5.577   1.293  0.2567  0.2118  0.5082
   88MOL   C32933563   2.748   5.649   1.339  0.4330 -0.3404  0.4690
   88MOL   C33033564   2.626   5.636   1.244 -0.0282 -0.1240  0.0006
   88MOL   C33133565   2.902   5.442   1.370  0.0416  0.5115  0.7748
   88MOL   H33233566   2.967   5.523   1.555  2.3028 -0.6878  1.2745
   88MOL   H33333567   3.170   5.519   1.333  0.8990 -0.1940  0.7666
   88MOL   H33433568   3.160   5.635   1.463  1.2120 -0.5394 -0.0658
   88MOL   H33533569   2.969   5.735   1.385  1.7292  0.6832 -0.6147
   88MOL   H33633570   3.050   5.706   1.236 -2.8875  0.0277 -1.7662
   88MOL   H33733571   2.876   5.565   1.184  0.8970  2.6250  0.2160
   88MOL   H33833572   2.723   5.615   1.439  1.5633 -2.1810  0.1439
   88MOL   H33933573   2.762   5.757   1.347 -0.0383 -0.3055  0.8034
   88MOL   H34033574   2.542   5.695   1.281 -0.7896 -0.0755 -1.7501
   88MOL   H34133575   2.651   5.675   1.145 -0.7222 -0.8662 -0.4710
   88MOL   H34233576   2.921   5.358   1.303  4.7091  1.4831  0.7017
   88MOL   H34333577   2.803   5.429   1.413 -0.2686  3.9345  1.2386
   88MOL   C34433578   2.586   5.490   1.226  0.0054  0.3455 -0.6073
   88MOL   C34533579   2.482   5.463   1.115 -0.3334 -0.3966  0.0314
   88MOL   C34633580   2.393   5.352   1.179 -0.0006  0.4042  0.4035
   88MOL   C34733581   2.378   5.401   1.322 -0.9792 -0.3714 -0.1483
   88MOL   C34833582   2.333   5.289   1.420 -0.1564 -0.0809 -0.1755
   88MOL   C34933583   2.181   5.269   1.415  0.3405 -0.2722 -0.1050
   88MOL   C35033584   2.530   5.427   1.345 -0.5327 -0.5415  0.2232
   88MOL   H35133585   2.679   5.438   1.203  1.3812  1.0862  3.0100
   88MOL   H35233586   2.522   5.419   1.024  2.5651  1.9216  0.1158
   88MOL   H35333587   2.429   5.557   1.100 -0.1766 -0.1535  0.9580
   88MOL   H35433588   2.295   5.345   1.131 -0.6829 -0.2133  1.8654
   88MOL   H35533589   2.437   5.253   1.168  1.2700  1.2457 -2.9774
   88MOL   H35633590   2.310   5.485   1.335  0.2294  0.2266  2.8251
   88MOL   H35733591   2.395   5.200   1.406  0.3500  0.5619 -2.2645
   88MOL   H35833592   2.352   5.334   1.517 -0.2587  0.0177 -0.2006
   88MOL   H35933593   2.154   5.261   1.310 -0.8964  1.3367  0.0578
   88MOL   H36033594   2.140   5.361   1.458  0.1895 -0.2810 -0.2296
   88MOL   H36133595   2.543   5.501   1.425 -0.4315  0.1529 -0.4356
   88MOL   H36233596   2.585   5.335   1.362  0.8530  0.0902 -0.7659
   88MOL   C36333597   2.119   5.154   1.504 -0.1185 -0.6427 -0.2587
   88MOL   C36433598   2.128   5.012   1.450 -0.1161  0.3482 -0.4846
   88MOL   C36533599   2.024   4.933   1.522  0.6563 -0.1436  0.5303
   88MOL   C36633600   1.929   5.034   1.589 -0.4364  0.8835 -0.1308
   88MOL   C36733601   1.776   5.010   1.572  0.0931 -0.6116  0.2136
   88MOL   C36833602   1.729   4.887   1.655  0.6268 -0.5268 -0.0501
   88MOL   C36933603   1.965   5.167   1.520  0.2445  0.0043 -0.5050
   88MOL   H37033604   2.164   5.151   1.603 -0.6998  0.1048  0.0346
   88MOL   H37133605   2.094   5.014   1.347 -1.9212  0.0250  0.0917
   88MOL   H37233606   2.222   4.959   1.464  0.4470  1.1943 -1.0463
   88MOL   H37333607   1.968   4.867   1.456 -0.6817  0.0224  1.4723
   88MOL   H37433608   2.054   4.857   1.594 -0.7029 -1.2946 -0.1009
   88MOL   H37533609   1.961   5.043   1.692  2.7435  1.3514 -1.1102
   88MOL   H37633610   1.724   5.100   1.604  0.0298 -1.5536  2.9189
   88MOL   H37733611   1.743   4.993   1.469  1.6545 -3.2300  0.1003
   88MOL   H37833612   1.734   4.911   1.761  0.2524  0.4148 -0.2417
   88MOL   H37933613   1.772   4.793   1.620  1.4396  0.1687 -0.9686
   88MOL   H38033614   1.917   5.183   1.423  0.5535  1.3166 -0.4559
   88MOL   H38133615   1.945   5.258   1.576  1.7403 -0.0138  0.0558
   88MOL   H38233616   1.621   4.881   1.638  0.2760 -1.6072  2.4493
   89MOL     C133617   3.556   3.303   7.535 -0.1037  0.9565  0.4753
   89MOL     C233618   3.618   3.409   7.628  0.7679 -0.5680 -0.1763
   89MOL     C333619   3.507   3.521   7.636  0.4362 -0.1991  0.0548
   89MOL     C433620   3.378   3.473   7.566  0.1502 -0.4155  0.1941
   89MOL     C533621   3.288   3.585   7.509 -0.0190 -0.7023  0.4124
   89MOL     C633622   3.150   3.531   7.446 -0.0267 -0.7967  0.0889
   89MOL     C733623   3.442   3.377   7.456 -0.0636 -0.9126  0.1810
   89MOL     H833624   3.624   3.257   7.464 -1.3062 -0.4345  0.1938
   89MOL     H933625   3.705   3.456   7.582  0.0528  1.6082  0.6124
   89MOL    H1033626   3.641   3.366   0.078  0.1326  0.0951  0.2735
   89MOL    H1133627   3.479   3.547   0.091 -0.8238  0.4788 -0.4503
   89MOL    H1233628   3.521   3.612   7.577 -1.4303 -1.4841 -2.4600
   89MOL    H1333629   3.331   3.416   7.646  1.7462 -0.8993  0.8111
   89MOL    H1433630   3.265   3.659   7.586  1.0055  1.0405 -0.9154
   89MOL    H1533631   3.339   3.638   7.429 -0.1739  1.6207  1.7869
   89MOL    H1633632   3.165   3.427   7.418 -2.2233 -1.6796  2.0203
   89MOL    H1733633   3.079   3.521   7.528 -0.2401 -2.8839 -0.3186
   89MOL    H1833634   3.369   3.306   7.417  0.8179 -1.6175 -0.2176
   89MOL    H1933635   3.478   3.430   7.368  2.6213  0.3044  1.9531
   89MOL    H2033636   3.513   3.229   7.603  1.9084  1.9250  2.8758
   89MOL    C2133637   3.090   3.622   7.338  0.0046  0.1814  0.1085
   89MOL    C2233638   3.168   3.631   7.210 -0.1071  0.7543  0.0576
   89MOL    C2333639   3.074   3.688   7.111 -0.1529  0.5311  0.4714
   89MOL    C2433640   2.932   3.631   7.154 -0.1263  0.1443 -0.3783
   89MOL    C2533641   2.861   3.520   7.069  0.0835 -0.0882 -0.2563
   89MOL    C2633642   2.715   3.482   7.117 -0.9100  0.1240  0.1779
   89MOL    C2733643   2.953   3.577   7.296  0.1565  0.4066  0.8023
   89MOL    H2833644   3.090   3.724   7.376  2.6253 -0.1011  0.9422
   89MOL    H2933645   3.263   3.685   7.215  0.9815 -1.0465 -0.5760
   89MOL    H3033646   3.202   3.530   7.190  1.3304  1.1645  0.3570
   89MOL    H3133647   3.071   3.796   7.121 -2.7640  0.6897 -1.4912
   89MOL    H3233648   3.091   3.657   7.008 -1.7505  0.3377  0.2490
   89MOL    H3333649   2.862   3.715   7.154 -0.3413 -0.0359  0.0958
   89MOL    H3433650   2.928   3.434   7.072 -0.2670 -0.3789 -0.6962
   89MOL    H3533651   2.848   3.547   6.964  0.1060 -2.3700 -0.8673
   89MOL    H3633652   2.655   3.571   7.097 -1.7333 -0.2870  0.7764
   89MOL    H3733653   2.709   3.470   7.225 -1.4401  0.0762  0.1460
   89MOL    H3833654   2.875   3.619   7.360  0.5704  0.2440  1.4136
   89MOL    H3933655   2.939   3.469   7.298  0.9497  0.3181  1.6230
   89MOL    C4033656   2.658   3.360   7.041  0.6796 -0.0234 -0.1174
   89MOL    C4133657   2.737   3.236   7.050 -0.7767  0.4123  0.8108
   89MOL    C4233658   2.642   3.128   7.019  0.3670  0.6931 -0.4455
   89MOL    C4333659   2.512   3.175   7.093  0.0362 -0.1572  0.1426
   89MOL    C4433660   2.387   3.096   7.057  0.3819 -0.5501  0.2313
   89MOL    C4533661   2.279   3.118   7.168 -0.2174 -0.5686 -0.6029
   89MOL    C4633662   2.512   3.323   7.075 -0.4074  0.1994 -0.0115
   89MOL    H4733663   2.658   3.400   6.939  0.6445 -0.4491 -0.2836
   89MOL    H4833664   2.777   3.220   7.150  0.5681  0.6874  0.3284
   89MOL    H4933665   2.817   3.231   6.976  0.1837 -3.2158  2.0280
   89MOL    H5033666   2.628   3.122   6.911  0.5082 -0.3004 -0.4162
   89MOL    H5133667   2.663   3.031   7.063 -1.1860  0.1422 -0.8871
   89MOL    H5233668   2.533   3.155   7.198 -0.7786  0.6141  0.4558
   89MOL    H5333669   2.353   3.136   6.962 -1.6500 -0.8749  0.7940
   89MOL    H5433670   2.418   2.994   7.038  0.1605 -0.8518  1.4373
   89MOL    H5533671   2.283   3.225   7.189  1.6746 -1.1776  2.3270
   89MOL    H5633672   2.298   3.059   7.257 -0.2193  1.1844  0.5851
   89MOL    H5733673   2.441   3.337   6.993 -0.6225 -0.2792  0.0899
   89MOL    H5833674   2.480   3.382   7.162 -2.5482 -1.2297  0.2100
   89MOL    C5933675   2.134   3.089   7.118 -0.3961 -0.4052  0.1034
   89MOL    C6033676   2.037   3.098   7.240  0.0507  0.6199  0.5070
   89MOL    C6133677   1.902   3.131   7.179  0.8572 -0.4487 -0.2325
   89MOL    C6233678   1.949   3.231   7.074 -0.0246  0.0639 -0.0324
   89MOL    C6333679   1.838   3.261   6.973  0.1641 -0.2245  0.3058
   89MOL    C6433680   1.862   3.388   6.895 -0.7605  0.4716  0.0072
   89MOL    C6533681   2.080   3.187   7.017 -0.3322 -0.4252 -0.1566
   89MOL    H6633682   2.136   2.990   7.073 -0.4331 -0.6188  0.5717
   89MOL    H6733683   2.049   3.006   7.297 -1.8124 -0.2016 -0.4038
   89MOL    H6833684   2.071   3.180   7.304  0.4368  0.8092  0.0655
   89MOL    H6933685   1.854   3.039   7.146  1.5221 -0.6273 -0.7065
   89MOL    H7033686   1.840   3.178   7.255 -0.6687 -0.9148 -1.1669
   89MOL    H7133687   1.965   3.330   7.117  2.6788  0.6959 -2.3422
   89MOL    H7233688   1.741   3.254   7.023 -0.1167 -0.7770 -0.3112
   89MOL    H7333689   1.819   3.170   6.917 -0.3545 -0.6578  1.1699
   89MOL    H7433690   1.901   3.469   6.957  1.0223 -1.9073  2.1173
   89MOL    H7533691   1.952   3.361   6.840  0.1241  0.9143  1.2150
   89MOL    H7633692   2.059   3.129   6.927 -0.8718 -0.7482  0.1774
   89MOL    H7733693   2.138   3.275   6.990  0.6408 -1.3532 -1.1635
   89MOL    C7833694   1.743   3.437   6.805  0.5288 -0.2462  0.3060
   89MOL    C7933695   1.614   3.460   6.875  0.1696 -0.7505 -0.4589
   89MOL    C8033696   1.548   3.597   6.828 -0.1618 -0.2756  0.3571
   89MOL    C8133697   1.629   3.639   6.707 -0.2234 -0.8375  0.1521
   89MOL    C8233698   1.655   3.793   6.700 -0.8071 -0.0557  0.3352
   89MOL    C8333699   1.533   3.882   6.675  0.0845 -0.0298 -1.0108
   89MOL    C8433700   1.768   3.569   6.727  0.3909  0.0914 -0.1092
   89MOL    H8533701   1.726   3.362   6.727  0.6922  0.5536 -0.5005
   89MOL    H8633702   1.544   3.377   6.866 -0.4775 -0.1982 -0.5531
   89MOL    H8733703   1.628   3.475   6.982 -1.3282  0.5332 -0.4253
   89MOL    H8833704   1.440   3.589   6.820 -0.3527  1.2859  1.0965
   89MOL    H8933705   1.561   3.676   6.902 -0.8362 -0.2593  0.4569
   89MOL    H9033706   1.576   3.606   6.618 -0.3958 -2.3831  0.8028
   89MOL    H9133707   1.718   3.799   6.611 -0.2985  1.9624  0.8188
   89MOL    H9233708   1.718   3.831   6.780  0.8471 -1.8314 -0.0593
   89MOL    H9333709   1.473   3.859   6.763  1.6017  0.9296  0.3030
   89MOL    H9433710   1.484   3.843   6.586  0.1950 -2.1100 -0.1878
   89MOL    H9533711   1.815   3.642   6.794  1.3372 -0.0053 -0.6632
   89MOL    H9633712   1.808   3.561   6.626 -0.0174  0.5679 -0.3102
   89MOL    C9733713   1.568   4.032   6.647 -0.0853 -0.2747 -0.6883
   89MOL    C9833714   1.453   4.136   6.646  0.6038  0.9784 -0.1498
   89MOL    C9933715   1.492   4.250   6.552 -0.6542 -0.1390  0.1657
   89MOL   C10033716   1.619   4.197   6.485 -0.4866  0.1187  0.3505
   89MOL   C10133717   1.649   4.243   6.336 -0.1793  0.0426  0.0126
   89MOL   C10233718   1.548   4.227   6.222  0.2802 -0.3863  0.5850
   89MOL   C10333719   1.626   4.048   6.508  0.3570  0.3632  0.3461
   89MOL   H10433720   1.635   4.058   6.729 -2.1380 -0.0483  0.9423
   89MOL   H10533721   1.371   4.072   6.614  1.0589  0.3645 -0.0825
   89MOL   H10633722   1.428   4.181   6.742  1.2720  0.6246  0.1844
   89MOL   H10733723   1.426   4.280   6.470 -1.6590  0.2149  1.1004
   89MOL   H10833724   1.505   4.335   6.618 -2.1483  0.0571  0.2251
   89MOL   H10933725   1.707   4.231   6.540 -0.6932  1.0748  0.1076
   89MOL   H11033726   1.685   4.344   6.318  1.3682 -0.5188 -0.1950
   89MOL   H11133727   1.726   4.175   6.300 -0.3538 -1.2893  2.0673
   89MOL   H11233728   1.520   4.122   6.207 -3.3474  0.6400 -0.2500
   89MOL   H11333729   1.455   4.279   6.247 -0.0322 -0.6521 -0.0099
   89MOL   H11433730   1.571   4.004   6.424  1.0605  2.2276 -1.1350
   89MOL   H11533731   1.727   4.008   6.507  0.9528  1.8346 -0.1668
   89MOL   C11633732   1.602   4.271   6.081  1.0483  0.1801 -0.2983
   89MOL   C11733733   1.723   4.193   6.030  0.5940 -0.5013 -0.0462
   89MOL   C11833734   1.697   4.157   5.882  0.1139  0.3477  0.2997
   89MOL   C11933735   1.561   4.224   5.850  0.0058 -0.6186 -0.0981
   89MOL   C12033736   1.486   4.159   5.735 -0.0274 -0.1973 -0.2643
   89MOL   C12133737   1.571   4.142   5.607  0.0348  0.1766  0.1607
   89MOL   C12233738   1.492   4.230   5.981  0.7027 -0.1605  0.3174
   89MOL   H12333739   1.618   4.378   6.073 -0.4698  0.3523 -1.2188
   89MOL   H12433740   1.747   4.104   6.088 -0.6013 -0.9080 -0.1501
   89MOL   H12533741   1.808   4.260   6.035  0.3596 -0.0462 -1.7152
   89MOL   H12633742   1.715   4.050   5.878  1.5488  0.5314  1.4073
   89MOL   H12733743   1.765   4.214   5.818  1.4974 -0.4984  0.9974
   89MOL   H12833744   1.579   4.326   5.817  2.7256 -1.3292 -0.9339
   89MOL   H12933745   1.396   4.217   5.714 -0.5633 -0.9525 -0.0780
   89MOL   H13033746   1.461   4.063   5.780  0.0359 -0.5057 -0.8843
   89MOL   H13133747   1.672   4.103   5.624 -0.3824 -1.4303 -0.8810
   89MOL   H13233748   1.573   4.236   5.552  0.5448 -0.9777 -1.8487
   89MOL   H13333749   1.413   4.304   5.971 -0.2173 -1.1082  0.4692
   89MOL   H13433750   1.461   4.128   6.003 -1.8445  0.8454  1.5507
   89MOL   C13533751   1.504   4.051   5.506 -0.1577  0.6941 -0.0016
   89MOL   C13633752   1.576   4.056   5.368 -0.2030  0.0456 -0.9318
   89MOL   C13733753   1.583   3.916   5.322 -0.1774 -0.3417 -0.1058
   89MOL   C13833754   1.582   3.822   5.445  0.5439 -0.0781 -0.2406
   89MOL   C13933755   1.552   3.670   5.422  0.0513  0.4199  0.0285
   89MOL   C14033756   1.621   3.619   5.295 -0.1885  0.5244 -0.7220
   89MOL   C14133757   1.488   3.905   5.539 -0.3755  0.2191 -0.5400
   89MOL   H14233758   1.403   4.087   5.490 -1.7561 -4.2207 -1.9968
   89MOL   H14333759   1.536   4.113   5.285  0.3275  1.7855 -0.0177
   89MOL   H14433760   1.675   4.098   5.384 -0.3773  0.0828  0.0843
   89MOL   H14533761   1.504   3.889   5.252 -0.3773  0.6346 -0.2748
   89MOL   H14633762   1.680   3.907   5.275  0.6714 -4.7139  2.1990
   89MOL   H14733763   1.677   3.830   5.499  0.6602 -1.5802 -0.2268
   89MOL   H14833764   1.443   3.663   5.412 -0.0522  0.1449  1.2519
   89MOL   H14933765   1.586   3.618   5.512 -3.0912  1.2558  1.7824
   89MOL   H15033766   1.573   3.659   5.206 -0.5045  2.4314  0.2813
   89MOL   H15133767   1.725   3.652   5.301 -0.3648  1.0959 -0.8439
   89MOL   H15233768   1.528   3.894   5.639 -1.6248  1.4484  0.1104
   89MOL   H15333769   1.389   3.860   5.527  0.7391 -2.3307 -0.5525
   89MOL   C15433770   1.612   3.460   5.286  0.2501 -0.4533  0.1542
   89MOL   C15533771   1.686   3.376   5.396  0.5533  0.0996 -0.4493
   89MOL   C15633772   1.720   3.237   5.340  0.6222  0.3984  0.0747
   89MOL   C15733773   1.716   3.260   5.188  0.4161  0.1334  0.0270
   89MOL   C15833774   1.838   3.194   5.118  0.4736 -0.1464  0.5184
   89MOL   C15933775   1.829   3.198   4.962  0.1740 -0.2939 -0.0621
   89MOL   C16033776   1.697   3.410   5.168  0.4342  0.3748 -0.5433
   89MOL   H16133777   1.510   3.425   5.271 -0.4621  1.7854 -0.2818
   89MOL   H16233778   1.774   3.431   5.428  2.3858 -1.1183 -3.1970
   89MOL   H16333779   1.614   3.389   5.477 -3.3162  0.6195 -3.8000
   89MOL   H16433780   1.819   3.219   5.383  1.0818  1.1999 -0.6348
   89MOL   H16533781   1.652   3.158   5.372 -0.9578  1.6263 -0.1798
   89MOL   H16633782   1.624   3.214   5.152  0.3572 -0.6439  1.1555
   89MOL   H16733783   1.847   3.094   5.161  1.0749 -0.3626 -0.1114
   89MOL   H16833784   1.928   3.248   5.147  0.8015 -0.7970  0.7145
   89MOL   H16933785   1.759   3.119   4.934  0.4377 -0.9672  1.1350
   89MOL   H17033786   1.800   3.299   4.935  1.5468  0.0786 -0.1948
   89MOL   H17133787   1.650   3.422   5.070  0.2982 -0.3506 -0.5725
   89MOL   H17233788   1.795   3.456   5.179  1.4553 -1.5017 -1.4496
   89MOL   C17333789   1.956   3.162   4.889 -0.2241 -0.7945  0.5567
   89MOL   C17433790   1.926   3.136   4.745  0.2068  0.1251  0.0583
   89MOL   C17533791   2.043   3.198   4.670  0.0369  0.8159 -0.5181
   89MOL   C17633792   2.154   3.223   4.773  0.4984 -0.2015 -0.1160
   89MOL   C17733793   2.249   3.328   4.739 -0.0445 -0.1604 -0.0741
   89MOL   C17833794   2.333   3.376   4.858 -0.2323 -0.3442  0.8183
   89MOL   C17933795   2.073   3.254   4.897 -0.6122  0.2972  0.1873
   89MOL   H18033796   1.986   3.066   4.931 -0.1115 -0.4897  1.1764
   89MOL   H18133797   1.838   3.188   4.705 -2.0821 -2.7162  1.1863
   89MOL   H18233798   1.919   3.029   4.723  3.3365 -0.3331  1.1078
   89MOL   H18333799   2.063   3.141   4.579  1.1867 -0.4509  0.5127
   89MOL   H18433800   2.011   3.292   4.625 -2.0820  0.1925 -0.3603
   89MOL   H18533801   2.204   3.131   4.802 -0.5711  0.1816  3.0924
   89MOL   H18633802   2.195   3.419   4.712  2.5366  2.1569  2.1349
   89MOL   H18733803   2.315   3.302   4.656 -1.2481 -0.2068 -1.0278
   89MOL   H18833804   2.404   3.295   4.871 -0.0120 -0.3890 -0.5248
   89MOL   H18933805   2.281   3.397   4.951 -0.5690 -1.4649  0.8902
   89MOL   H19033806   2.045   3.359   4.897  1.9294  1.0178  0.8399
   89MOL   H19133807   2.141   3.237   4.980  1.4718  1.7295 -1.1731
   89MOL   C19233808   2.416   3.497   4.811  0.0527 -0.2521  0.8159
   89MOL   C19333809   2.531   3.530   4.904 -0.3091 -0.1929  0.7185
   89MOL   C19433810   2.551   3.679   4.895 -0.0486  0.0395  0.0966
   89MOL   C19533811   2.409   3.732   4.880 -0.0375  0.5533  0.4716
   89MOL   C19633812   2.391   3.879   4.833  0.1643 -0.6683 -0.0409
   89MOL   C19733813   2.446   3.979   4.938 -0.1258 -0.0831  0.2362
   89MOL   C19833814   2.326   3.626   4.806 -0.3666  0.0521  0.7480
   89MOL   H19933815   2.449   3.477   4.710 -2.0585  0.8605 -0.1410
   89MOL   H20033816   2.500   3.510   5.007  1.6456  0.1592  1.3920
   89MOL   H20133817   2.620   3.478   4.870  1.0281  2.3927  0.1425
   89MOL   H20233818   2.614   3.707   4.811  0.8351  0.0300  0.7512
   89MOL   H20333819   2.606   3.721   4.979  0.4977  0.8685 -0.6786
   89MOL   H20433820   2.359   3.710   4.975  0.5073  1.4543  0.9733
   89MOL   H20533821   2.283   3.891   4.825  0.6719  3.6091 -1.7483
   89MOL   H20633822   2.426   3.895   4.731 -0.1946 -0.5603 -0.1470
   89MOL   H20733823   2.554   3.965   4.941 -0.4937 -2.9286  1.9350
   89MOL   H20833824   2.426   3.940   5.038  0.5237 -1.3662 -0.1309
   89MOL   H20933825   2.307   3.655   4.702 -0.4656 -1.7293  0.2530
   89MOL   H21033826   2.227   3.614   4.849 -0.2701  0.0325  0.9657
   89MOL   C21133827   2.398   4.127   4.923 -0.4294 -0.0462 -0.4307
   89MOL   C21233828   2.449   4.207   4.804  1.1239  0.4519 -0.3276
   89MOL   C21333829   2.455   4.351   4.853 -0.3989 -0.2754 -0.2342
   89MOL   C21433830   2.421   4.351   5.001 -0.5756 -0.6833 -0.4783
   89MOL   C21533831   2.509   4.450   5.083 -0.1775  0.1031 -0.0039
   89MOL   C21633832   2.493   4.430   5.238  0.4511 -0.1795  0.2001
   89MOL   C21733833   2.431   4.207   5.048  0.2782 -0.2292 -0.0883
   89MOL   H21833834   2.290   4.115   4.932 -0.3673  0.3306  0.9095
   89MOL   H21933835   2.537   4.164   4.757  1.1333  0.9548 -0.7622
   89MOL   H22033836   2.370   4.191   4.732  1.3385  1.1175 -0.7076
   89MOL   H22133837   2.557   4.383   4.836 -0.3280 -0.4856 -0.2079
   89MOL   H22233838   2.392   4.407   4.783 -0.1155  0.3717  0.0351
   89MOL   H22333839   2.320   4.391   5.013 -1.2211 -2.3882  0.0067
   89MOL   H22433840   2.479   4.553   5.061 -2.2166 -0.4558  0.0660
   89MOL   H22533841   2.610   4.431   5.048  0.0236  1.2790 -0.1113
   89MOL   H22633842   2.385   4.434   5.256  0.5546 -0.6192  0.9390
   89MOL   H22733843   2.535   4.339   5.280 -0.6991 -1.2280 -0.8600
   89MOL   H22833844   2.366   4.172   5.128  0.4742  0.9327  0.5852
   89MOL   H22933845   2.533   4.188   5.080  0.2297 -0.2028  0.0800
   89MOL   C23033846   2.549   4.555   5.321 -0.2341 -0.2496 -0.5720
   89MOL   C23133847   2.700   4.569   5.324 -0.3619  0.7327 -0.3971
   89MOL   C23233848   2.737   4.496   5.455 -0.0616 -0.3341  0.5359
   89MOL   C23333849   2.611   4.459   5.526  0.3616  0.0466 -0.5047
   89MOL   C23433850   2.606   4.473   5.678 -0.5256  0.2104  0.4575
   89MOL   C23533851   2.710   4.393   5.762 -0.0850 -0.0044 -0.0168
   89MOL   C23633852   2.512   4.551   5.461 -0.3240  0.6021  0.2381
   89MOL   H23733853   2.517   4.648   5.274 -0.1955 -0.0066 -0.1234
   89MOL   H23833854   2.755   4.540   5.235 -1.1812 -0.7292 -0.4508
   89MOL   H23933855   2.718   4.676   5.335  1.2246  0.4808 -0.4864
   89MOL   H24033856   2.802   4.570   5.503 -0.1317  1.2405 -1.7153
   89MOL   H24133857   2.796   4.408   5.430  0.9142  0.8711 -1.5463
   89MOL   H24233858   2.589   4.357   5.496  0.8868 -0.0029 -0.7312
   89MOL   H24333859   2.503   4.442   5.694  0.6496 -2.7884  2.6268
   89MOL   H24433860   2.614   4.578   5.704 -0.5159  0.3355 -0.0430
   89MOL   H24533861   2.703   4.287   5.735 -1.6798 -0.5415  2.3235
   89MOL   H24633862   2.813   4.423   5.743 -1.0563  3.0946 -0.5640
   89MOL   H24733863   2.540   4.647   5.504  0.3452 -0.7446  2.8918
   89MOL   H24833864   2.403   4.548   5.464 -0.3818 -0.4026 -1.6507
   89MOL   C24933865   2.686   4.402   5.916 -0.2271  0.0819  0.2841
   89MOL   C25033866   2.566   4.342   5.978  0.0630  0.3911 -0.4939
   89MOL   C25133867   2.581   4.345   6.127 -1.1121  0.6036 -0.9027
   89MOL   C25233868   2.732   4.299   6.141  0.3020  0.2195 -0.1364
   89MOL   C25333869   2.788   4.347   6.267 -0.7441 -0.5546 -0.7756
   89MOL   C25433870   2.739   4.282   6.398 -0.1786  0.2075  0.2927
   89MOL   C25533871   2.798   4.340   6.009 -0.6848 -0.2788 -0.0560
   89MOL   H25633872   2.694   4.504   5.955 -1.2814  0.0903  0.5147
   89MOL   H25733873   2.467   4.381   5.954  0.3330  1.6212  0.3659
   89MOL   H25833874   2.563   4.241   5.936  0.4093 -0.5502  1.6682
   89MOL   H25933875   2.518   4.267   6.169  0.7303 -0.1150  0.5758
   89MOL   H26033876   2.560   4.445   6.166  3.0011  0.8891  0.8451
   89MOL   H26133877   2.743   4.191   6.144  0.9641  0.3282  2.2718
   89MOL   H26233878   2.778   4.455   6.271  0.3927 -0.4675  0.0936
   89MOL   H26333879   2.897   4.341   6.257 -0.6373  0.8154 -0.4344
   89MOL   H26433880   2.701   4.181   6.380 -1.5846  0.3850  2.0290
   89MOL   H26533881   2.660   4.342   6.443  0.0187 -0.3396  1.4119
   89MOL   H26633882   2.830   4.249   5.958  1.6660  0.7526 -0.5301
   89MOL   H26733883   2.891   4.397   6.016  0.3555 -2.0577  0.9122
   89MOL   C26833884   2.853   4.271   6.501  0.2495  0.5105 -0.0278
   89MOL   C26933885   2.972   4.176   6.474  0.0267 -0.1159  0.1613
   89MOL   C27033886   3.026   4.136   6.612  0.5544 -0.8514  0.3960
   89MOL   C27133887   2.952   4.224   6.713 -0.2517  0.3016  0.1539
   89MOL   C27233888   2.947   4.156   6.853 -0.7760  0.0126  0.5656
   89MOL   C27333889   2.919   4.243   6.974  0.1150 -0.4962 -0.9810
   89MOL   C27433890   2.812   4.253   6.646 -0.5499 -0.1072 -0.2614
   89MOL   H27533891   2.916   4.360   6.492  0.0284  0.6426 -0.2785
   89MOL   H27633892   2.934   4.084   6.430 -1.0225  0.4985 -0.2377
   89MOL   H27733893   3.055   4.206   6.409 -0.2286  1.8990  0.7235
   89MOL   H27833894   3.005   4.029   6.621 -0.7497 -0.6200  0.1860
   89MOL   H27933895   3.132   4.147   6.632  0.4725 -1.3983  1.1488
   89MOL   H28033896   3.004   4.320   6.721 -2.9074  1.9004 -0.8939
   89MOL   H28133897   3.049   4.121   6.871 -1.3405 -0.6217  2.7466
   89MOL   H28233898   2.887   4.065   6.855  1.3700 -1.4125  1.6658
   89MOL   H28333899   3.003   4.312   6.962 -0.0303  0.2291  1.8169
   89MOL   H28433900   2.832   4.309   6.974  0.8193  0.4518 -2.3519
   89MOL   H28533901   2.742   4.170   6.656  0.4809 -0.9423  0.1410
   89MOL   H28633902   2.765   4.342   6.688 -2.2625 -1.4749  0.8118
   89MOL   C28733903   2.945   4.178   7.111 -0.4358  0.0678 -0.2662
   89MOL   C28833904   2.945   4.255   7.240 -0.0933 -0.3516  0.0861
   89MOL   C28933905   2.914   4.152   7.349 -0.4431 -0.4999  0.2919
   89MOL   C29033906   2.849   4.033   7.281 -0.0250  0.6633 -0.6146
   89MOL   C29133907   2.715   3.995   7.344 -0.0914  0.4630 -0.1475
   89MOL   C29233908   2.720   3.942   7.497 -0.1581  0.4942  0.1067
   89MOL   C29333909   2.840   4.077   7.139  0.7995  0.1712 -0.4918
   89MOL   H29433910   3.039   4.123   7.101 -1.1459 -0.9196 -1.7385
   89MOL   H29533911   3.045   4.298   7.233 -0.2337  0.0609  0.6512
   89MOL   H29633912   2.863   4.325   7.251  0.1691  0.0288 -0.3516
   89MOL   H29733913   2.849   4.190   7.428  0.8804  1.0980  0.6521
   89MOL   H29833914   3.009   4.128   7.397  1.8998  1.8389 -2.9189
   89MOL   H29933915   2.922   3.952   7.289  0.0297  0.6074 -1.6335
   89MOL   H30033916   2.691   3.916   7.273  0.9437 -1.4516  1.5838
   89MOL   H30133917   2.638   4.071   7.337  0.7599  1.8951  4.2039
   89MOL   H30233918   2.758   4.019   7.564 -0.2263 -0.8795  1.7609
   89MOL   H30333919   2.794   3.863   7.489 -0.6986  0.2783 -3.4374
   89MOL   H30433920   2.740   4.118   7.124  1.1791  1.9338  1.6144
   89MOL   H30533921   2.841   3.988   7.075 -0.9736  0.6116 -1.1520
   89MOL   C30633922   2.594   3.870   7.553 -0.1690  0.8354 -0.3035
   89MOL   C30733923   2.469   3.955   7.549  0.7289 -0.1231  0.0708
   89MOL   C30833924   2.390   3.916   7.420  0.5252  0.5507  0.8152
   89MOL   C30933925   2.420   3.762   7.408  0.4964 -1.0528  0.8229
   89MOL   C31033926   2.398   3.707   7.265  0.0647 -0.5692 -0.0549
   89MOL   C31133927   2.254   3.736   7.200  0.6752 -0.0655  0.1327
   89MOL   C31233928   2.556   3.743   7.478 -0.4801  0.3442 -0.0050
   89MOL   H31333929   2.619   3.868   0.012  0.0478 -0.2650 -0.3688
   89MOL   H31433930   2.401   3.928   7.629 -0.3961  0.8902 -0.5313
   89MOL   H31533931   2.484   4.063   7.556  0.8693 -0.1519  0.2201
   89MOL   H31633932   2.287   3.952   7.414  0.9064  1.5751  0.3848
   89MOL   H31733933   2.437   3.954   7.330 -0.9029 -0.1549 -0.2409
   89MOL   H31833934   2.344   3.712   7.470  1.7508 -0.2874  3.0522
   89MOL   H31933935   2.476   3.744   7.199  0.0446 -1.2790 -0.4928
   89MOL   H32033936   2.395   3.598   7.264  2.6200 -0.6646 -1.0976
   89MOL   H32133937   2.233   3.843   7.199  0.7031 -0.0544  0.9683
   89MOL   H32233938   2.180   3.695   7.268  0.4916 -1.6544 -0.9917
   89MOL   H32333939   2.629   3.692   7.416 -0.3576 -2.3928  2.2697
   89MOL   H32433940   2.534   3.673   7.559  1.2257  0.3390  0.4730
   89MOL   C32533941   2.235   3.661   7.071 -0.2237 -0.2040  0.4311
   89MOL   C32633942   2.113   3.709   6.998 -0.2909 -0.3473  0.3518
   89MOL   C32733943   2.142   3.667   6.853 -0.6002  0.1737 -0.1965
   89MOL   C32833944   2.292   3.661   6.823 -0.0206 -0.0052  0.3872
   89MOL   C32933945   2.331   3.542   6.744  0.2984 -0.2962 -0.0755
   89MOL   C33033946   2.280   3.540   6.598 -0.2848  0.2371  0.4461
   89MOL   C33133947   2.352   3.676   6.964  0.7557 -0.0441  0.1941
   89MOL   H33233948   2.228   3.557   7.100  1.5289 -0.3339  0.4202
   89MOL   H33333949   2.109   3.817   7.007 -0.4058 -0.2603 -0.7091
   89MOL   H33433950   2.026   3.667   7.050 -0.8399 -0.1932 -0.4470
   89MOL   H33533951   2.084   3.580   6.824 -0.2046 -0.6082  1.3205
   89MOL   H33633952   2.098   3.747   6.793 -4.1285 -1.4326  0.1470
   89MOL   H33733953   2.325   3.750   6.769 -0.7209 -1.2092 -2.1429
   89MOL   H33833954   2.439   3.536   6.736  0.3793 -1.8352  1.6157
   89MOL   H33933955   2.308   3.451   6.800 -3.9775 -0.5371 -2.0081
   89MOL   H34033956   2.173   3.557   6.588 -0.3574  0.5097  1.5643
   89MOL   H34133957   2.332   3.617   6.541  2.5943 -0.8527  1.4967
   89MOL   H34233958   2.396   3.775   6.970  0.4180  0.2109 -1.3807
   89MOL   H34333959   2.433   3.603   6.971  0.5526 -0.1112  1.9373
   89MOL   C34433960   2.320   3.411   6.534 -0.3079  0.7581  0.6900
   89MOL   C34533961   2.288   3.413   6.385  0.6593 -0.1286  0.5813
   89MOL   C34633962   2.263   3.267   6.347 -0.3317 -0.2557  0.1604
   89MOL   C34733963   2.196   3.204   6.473 -0.3336  0.3383 -0.3272
   89MOL   C34833964   2.216   3.051   6.496 -0.3367  0.1399 -0.1786
   89MOL   C34933965   2.149   2.993   6.625  0.5461  0.1622 -0.0725
   89MOL   C35033966   2.245   3.288   6.590 -0.1972  0.4210  0.4360
   89MOL   H35133967   2.427   3.402   6.550 -0.5702 -0.4437  1.8766
   89MOL   H35233968   2.369   3.461   6.329  0.9162  1.7082  2.4543
   89MOL   H35333969   2.196   3.466   6.363  0.1472 -1.3336 -0.2052
   89MOL   H35433970   2.215   3.245   6.252 -1.3743 -1.2786  0.9154
   89MOL   H35533971   2.365   3.233   6.333 -0.5199 -1.2716  1.1672
   89MOL   H35633972   2.092   3.223   6.445  0.2426  0.5379 -2.4139
   89MOL   H35733973   2.178   2.996   6.409  1.9833 -0.5043 -0.8239
   89MOL   H35833974   2.322   3.032   6.481 -0.8290 -2.2031 -0.9807
   89MOL   H35933975   2.041   3.008   6.615  0.2005 -2.6869 -1.2042
   89MOL   H36033976   2.179   3.052   6.711  1.6869  0.3441 -0.5813
   89MOL   H36133977   2.155   3.309   6.649 -0.7379 -1.0107  0.1394
   89MOL   H36233978   2.305   3.234   6.664  0.9128  0.4685 -0.4226
   89MOL   C36333979   2.182   2.845   6.643 -0.4085  0.3908  0.0893
   89MOL   C36433980   2.084   2.775   6.744 -0.4037 -0.6426  0.7231
   89MOL   C36533981   2.173   2.686   6.831  0.1513  0.3422  0.4205
   89MOL   C36633982   2.312   2.703   6.784  0.1961  0.0032  0.6200
   89MOL   C36733983   2.425   2.702   6.898  0.0897 -0.1046  0.3554
   89MOL   C36833984   2.441   2.567   6.974 -0.3024  1.1107  0.2622
   89MOL   C36933985   2.329   2.829   6.699  0.2101 -0.4769 -0.3411
   89MOL   H37033986   2.172   2.787   6.552 -3.6070  0.1908  0.5112
   89MOL   H37133987   2.027   2.851   6.796  0.2401 -0.1458  0.7056
   89MOL   H37233988   2.007   2.723   6.687 -1.0154 -0.4906  1.4142
   89MOL   H37333989   2.150   2.710   6.935 -0.3012 -0.2118  0.4476
   89MOL   H37433990   2.147   2.582   6.812  0.3159  0.1721  1.1078
   89MOL   H37533991   2.329   2.625   6.709  1.4379  1.7614 -0.9660
   89MOL   H37633992   2.520   2.727   6.850 -0.0345  0.2734  0.3015
   89MOL   H37733993   2.410   2.783   6.969  1.3820 -0.9560  1.6222
   89MOL   H37833994   2.448   2.482   6.907  1.2995  0.8159  0.7772
   89MOL   H37933995   2.346   2.551   7.025  0.3818  0.1036  1.2418
   89MOL   H38033996   2.350   2.914   6.763 -2.9246  0.4502 -0.4900
   89MOL   H38133997   2.404   2.816   6.620  0.6609 -0.7116  0.1215
   89MOL   H38233998   2.524   2.550   7.043  0.3875  1.2024 -0.5332
   90MOL     C133999   1.770   4.605   5.897  0.8356  0.1637  0.2231
   90MOL     C234000   1.791   4.538   5.757  0.3310  0.6963  0.4747
   90MOL     C334001   1.919   4.597   5.689  0.1536  0.4266  0.2286
   90MOL     C434002   1.989   4.672   5.801  0.6968 -0.2692 -0.4958
   90MOL     C534003   2.068   4.796   5.755 -0.3049  1.1214  0.2430
   90MOL     C634004   2.218   4.778   5.710 -0.2996  0.0780  0.0249
   90MOL     C734005   1.875   4.713   5.900 -0.1828 -0.2899  0.7034
   90MOL     H834006   1.669   4.641   5.913  0.5835  1.1990 -3.1390
   90MOL     H934007   1.700   4.554   5.699  1.8807  2.0814 -1.6375
   90MOL    H1034008   1.807   4.431   5.766  0.5517  0.8564  2.1177
   90MOL    H1134009   1.990   4.524   5.650  0.2245 -0.1038  1.3183
   90MOL    H1234010   1.890   4.664   5.608  0.6900  0.5215  0.1100
   90MOL    H1334011   2.058   4.599   5.843 -0.3379 -0.7513  0.3538
   90MOL    H1434012   2.018   4.845   5.671 -0.4286 -1.9195 -1.5463
   90MOL    H1534013   2.063   4.866   5.838 -0.7567 -1.5291  2.5360
   90MOL    H1634014   2.280   4.716   5.774  1.0782  2.3498  0.9602
   90MOL    H1734015   2.220   4.734   5.610 -1.2772  0.5829 -0.2283
   90MOL    H1834016   1.906   4.714   6.004  2.5251  0.9308 -0.0659
   90MOL    H1934017   1.822   4.807   5.884 -2.5940 -1.7832 -0.3130
   90MOL    H2034018   1.806   4.535   5.972  1.3158  0.1684  0.0048
   90MOL    C2134019   2.292   4.913   5.708 -0.3196  0.0599  0.4875
   90MOL    C2234020   2.318   4.986   5.844  0.4402 -0.4473  0.3403
   90MOL    C2334021   2.449   5.068   5.835  0.0077 -0.1780 -0.0949
   90MOL    C2434022   2.519   5.015   5.707  0.4322 -0.4009  0.1509
   90MOL    C2534023   2.668   4.987   5.747 -0.4367  0.8107 -0.1489
   90MOL    C2634024   2.759   4.944   5.632 -0.1201 -0.0224  0.8966
   90MOL    C2734025   2.436   4.904   5.643  1.4736  0.8250  0.5254
   90MOL    H2834026   2.228   4.971   5.641 -0.9783 -1.8095 -0.5596
   90MOL    H2934027   2.240   5.047   5.890  1.1223  0.9127 -0.2791
   90MOL    H3034028   2.336   4.906   5.916 -0.8390 -0.1716  0.9777
   90MOL    H3134029   2.430   5.175   5.824 -0.2139 -0.4591 -2.9143
   90MOL    H3234030   2.497   5.061   5.932 -2.6709  0.1904  1.3064
   90MOL    H3334031   2.513   5.095   5.633  3.2498 -0.4152 -0.1724
   90MOL    H3434032   2.672   4.907   5.822 -0.2572  0.1447 -0.8663
   90MOL    H3534033   2.714   5.075   5.792 -0.1070 -0.0471  1.2326
   90MOL    H3634034   2.744   5.011   5.547  0.7998  0.7849  1.3644
   90MOL    H3734035   2.731   4.843   5.604 -0.6242  0.5117 -0.5623
   90MOL    H3834036   2.420   4.920   5.536 -0.6255 -0.3000  0.6438
   90MOL    H3934037   2.473   4.801   5.651  0.2267  0.5721  3.4120
   90MOL    C4034038   2.910   4.946   5.669 -0.1886  0.1601  0.3075
   90MOL    C4134039   2.961   4.821   5.732 -0.8485 -0.2199 -0.3795
   90MOL    C4234040   3.014   4.728   5.622 -0.7488  0.0925 -0.2024
   90MOL    C4334041   2.990   4.802   5.491  0.2361  0.4298 -0.0929
   90MOL    C4434042   3.093   4.771   5.378 -0.1634 -0.0118  0.0461
   90MOL    C4534043   3.056   4.827   5.244 -0.2587 -0.3476  0.5107
   90MOL    C4634044   2.982   4.950   5.533 -1.0831 -0.2773 -0.0521
   90MOL    H4734045   2.923   5.042   5.719  2.4014 -0.9059  1.7747
   90MOL    H4834046   2.888   4.776   5.799  0.0502 -2.5522 -0.9220
   90MOL    H4934047   3.042   4.850   5.799 -0.0453  1.0679 -1.8704
   90MOL    H5034048   3.120   4.707   5.639 -0.8230 -1.4869 -1.5188
   90MOL    H5134049   2.966   4.631   5.618 -0.7120  0.0385  0.5961
   90MOL    H5234050   2.891   4.786   5.448  1.1809  1.6305 -2.7567
   90MOL    H5334051   3.187   4.811   5.414 -0.4508  0.5304  0.1923
   90MOL    H5434052   3.114   4.664   5.370 -1.5790 -0.3603  0.8226
   90MOL    H5534053   3.059   4.935   5.238  1.1797 -0.4274 -0.3272
   90MOL    H5634054   2.950   4.803   5.231  0.1284 -2.6237  1.2683
   90MOL    H5734055   3.079   4.993   5.555 -0.8983 -1.3103  1.1972
   90MOL    H5834056   2.942   5.012   5.452 -0.4536 -0.7180 -0.7114
   90MOL    C5934057   3.143   4.770   5.131 -0.2948 -0.1837  0.0761
   90MOL    C6034058   3.119   4.619   5.107  0.5191  0.8740 -0.5438
   90MOL    C6134059   3.163   4.603   4.958  0.0076 -0.7613 -0.8762
   90MOL    C6234060   3.118   4.726   4.884  0.1123  0.0266  0.4886
   90MOL    C6334061   3.176   4.755   4.752  0.1902  1.1373 -0.3749
   90MOL    C6434062   3.150   4.674   4.628  0.8054  0.4628  0.4237
   90MOL    C6534063   3.122   4.839   4.991  0.5065  0.8206 -0.0206
   90MOL    H6634064   3.250   4.775   5.151  0.1556  1.0740 -2.4272
   90MOL    H6734065   3.176   4.551   5.170  0.6500  1.7098  0.2526
   90MOL    H6834066   3.015   4.586   5.114  0.5912  0.4964 -1.3050
   90MOL    H6934067   3.272   4.594   4.958 -0.0470 -1.4521 -0.2346
   90MOL    H7034068   3.122   4.509   4.921 -2.0805 -1.3251  2.5835
   90MOL    H7134069   3.010   4.716   4.873  0.3035 -0.9365 -0.7102
   90MOL    H7234070   3.284   4.757   4.769  0.1888  1.3760 -0.3817
   90MOL    H7334071   3.163   4.863   4.742 -3.1325  0.8634  0.3768
   90MOL    H7434072   3.236   4.674   4.560 -0.8784  2.1310 -1.8109
   90MOL    H7534073   3.129   4.570   4.650  0.8503  0.1362 -0.9843
   90MOL    H7634074   3.173   4.930   4.961  0.0574  0.3961 -2.2356
   90MOL    H7734075   3.021   4.880   4.989  1.2735  2.7786  0.5998
   90MOL    C7834076   3.028   4.728   4.550 -0.7530  0.2965 -0.1783
   90MOL    C7934077   3.027   4.694   4.404  0.0154  0.4195 -0.5855
   90MOL    C8034078   2.880   4.702   4.365 -0.6100 -0.3367 -0.3462
   90MOL    C8134079   2.794   4.704   4.494  0.1093 -0.8519  0.0274
   90MOL    C8234080   2.676   4.610   4.490  0.0335  0.6177 -0.3327
   90MOL    C8334081   2.591   4.598   4.619 -0.5977  0.1838  0.5368
   90MOL    C8434082   2.892   4.679   4.608  0.7908  0.2650 -0.4488
   90MOL    H8534083   3.029   4.837   4.548  0.5343  0.3298  1.4254
   90MOL    H8634084   3.093   4.757   4.345  0.8214 -0.9156 -1.1299
   90MOL    H8734085   3.055   4.590   4.385  0.4413  0.6896 -1.4810
   90MOL    H8834086   2.857   4.793   4.309  0.0001 -0.8552 -1.4581
   90MOL    H8934087   2.848   4.617   4.303 -0.1407  0.1767 -1.2985
   90MOL    H9034088   2.758   4.807   4.492 -0.0514 -0.8962  0.5275
   90MOL    H9134089   2.722   4.516   4.459 -2.1295  0.2401 -2.6191
   90MOL    H9234090   2.605   4.652   4.418  1.3050  3.8670  0.2410
   90MOL    H9334091   2.652   4.558   4.700 -0.3817  1.3613  0.9653
   90MOL    H9434092   2.508   4.530   4.603 -1.6817  0.6176  3.8350
   90MOL    H9534093   2.900   4.576   4.643  2.3145  0.8588  1.0271
   90MOL    H9634094   2.861   4.738   4.694  0.8903  1.5896 -1.3081
   90MOL    C9734095   2.533   4.733   4.676  0.2737 -0.0046  0.9246
   90MOL    C9834096   2.462   4.710   4.811  0.1687  0.0786 -0.7591
   90MOL    C9934097   2.335   4.807   4.799 -0.4456 -0.7132  0.2337
   90MOL   C10034098   2.355   4.899   4.681  0.4542 -0.0436  0.5826
   90MOL   C10134099   2.224   4.958   4.627 -0.3137  0.1858  0.1233
   90MOL   C10234100   2.240   5.082   4.533  0.0624 -0.2294 -0.1872
   90MOL   C10334101   2.429   4.802   4.584 -0.0585 -1.0476  0.0779
   90MOL   H10434102   2.623   4.788   4.702  1.1047 -0.9862  0.1563
   90MOL   H10534103   2.430   4.607   4.827 -1.0855  0.4820 -0.5681
   90MOL   H10634104   2.530   4.743   4.889  0.1567 -0.1729 -0.6434
   90MOL   H10734105   2.246   4.744   4.789  0.7091 -2.4048  0.4017
   90MOL   H10834106   2.322   4.862   4.892  0.4168 -2.3922  1.3739
   90MOL   H10934107   2.427   4.978   4.704  0.9642  0.1987 -1.6853
   90MOL   H11034108   2.172   4.873   4.581  1.3846  0.0140 -1.5689
   90MOL   H11134109   2.164   4.961   4.718 -2.0846 -0.5605 -0.9885
   90MOL   H11234110   2.142   5.119   4.501 -0.3557  0.7093  2.0915
   90MOL   H11334111   2.294   5.165   4.580 -0.1299 -0.6634  0.7989
   90MOL   H11434112   2.364   4.735   4.529 -1.0381 -0.2304  0.2221
   90MOL   H11534113   2.488   4.864   4.516  1.7210 -0.8440  1.7716
   90MOL   C11634114   2.304   5.054   4.394 -0.1463  0.1068  0.1561
   90MOL   C11734115   2.211   4.969   4.310  0.0703  0.0994  0.1770
   90MOL   C11834116   2.113   5.069   4.236 -0.4435  0.1062 -0.1242
   90MOL   C11934117   2.189   5.202   4.222 -0.0986 -0.3520  0.0085
   90MOL   C12034118   2.114   5.325   4.279  0.2169  0.0299  1.0383
   90MOL   C12134119   2.188   5.457   4.251 -0.4030 -0.1213  0.2246
   90MOL   C12234120   2.319   5.178   4.305 -0.5383  0.1915  0.7123
   90MOL   H12334121   2.406   5.015   4.389 -0.4800 -0.5069 -2.5429
   90MOL   H12434122   2.150   4.899   4.366  0.2128  0.0800  0.3096
   90MOL   H12534123   2.269   4.917   4.234 -1.9155 -0.5274 -0.9437
   90MOL   H12634124   2.017   5.071   4.287 -1.6500 -0.8222 -2.2885
   90MOL   H12734125   2.094   5.027   4.137 -1.1841 -0.1128  0.1052
   90MOL   H12834126   2.222   5.219   4.120  0.0748  0.9720  0.2800
   90MOL   H12934127   2.088   5.315   4.385  0.3582  2.7067  1.3442
   90MOL   H13034128   2.025   5.340   4.219 -0.7937  0.2252  2.5758
   90MOL   H13134129   2.105   5.524   4.226 -1.8531 -3.1930 -3.7602
   90MOL   H13234130   2.271   5.454   4.180  0.3524 -2.0329  1.1809
   90MOL   H13334131   2.402   5.161   4.236 -1.3837  1.1330 -0.5527
   90MOL   H13434132   2.363   5.263   4.357 -1.7809  0.1996  1.7589
   90MOL   C13534133   2.233   5.519   4.384 -0.0271  0.2449  0.3354
   90MOL   C13634134   2.355   5.624   4.378 -0.3497  0.0156  0.3036
   90MOL   C13734135   2.320   5.720   4.491  0.3695 -0.2119  0.5853
   90MOL   C13834136   2.169   5.727   4.498 -0.0580 -0.1684 -0.1831
   90MOL   C13934137   2.106   5.774   4.637  0.1058  0.2122  0.2468
   90MOL   C14034138   1.947   5.778   4.640  0.5792 -0.1957  0.2400
   90MOL   C14134139   2.116   5.582   4.459  0.1768  0.4208 -0.2225
   90MOL   H14234140   2.275   5.440   4.446 -2.9894 -0.1095  1.9417
   90MOL   H14334141   2.452   5.575   4.386  0.7118  1.6886 -1.7505
   90MOL   H14434142   2.360   5.672   4.280 -0.2308 -1.2826 -0.3440
   90MOL   H14534143   2.371   5.680   4.579 -0.2733 -0.2888  0.9278
   90MOL   H14634144   2.378   5.810   4.470 -0.5798  1.1641  3.6425
   90MOL   H14734145   2.143   5.793   4.415  0.7678  1.0360  0.4959
   90MOL   H14834146   2.148   5.870   4.668  1.3168 -0.5627  1.0089
   90MOL   H14934147   2.145   5.705   4.711 -0.3954 -1.4311 -0.9906
   90MOL   H15034148   1.893   5.685   4.623 -0.3170  0.6533 -1.7017
   90MOL   H15134149   1.910   5.819   4.735  0.3459 -1.0636  0.5273
   90MOL   H15234150   2.022   5.594   4.406 -0.8695 -1.3359  1.1805
   90MOL   H15334151   2.094   5.515   4.543 -0.2793 -3.0067 -2.9680
   90MOL   C15434152   1.893   5.892   4.549  0.3036  0.4757  0.1856
   90MOL   C15534153   1.937   6.031   4.590 -0.0414 -0.5613  0.7492
   90MOL   C15634154   1.843   6.129   4.527  0.6001 -1.1188  0.2950
   90MOL   C15734155   1.719   6.045   4.476 -0.2255 -0.8643 -0.1392
   90MOL   C15834156   1.587   6.119   4.507 -0.5761 -0.0307 -1.7184
   90MOL   C15934157   1.477   6.030   4.466  0.3485 -0.9107 -0.0881
   90MOL   C16034158   1.740   5.910   4.539 -0.0569 -0.2192  0.1452
   90MOL   H16134159   1.926   5.873   4.447 -1.3320 -0.3582 -0.2117
   90MOL   H16234160   1.938   6.043   4.698 -1.5685  1.3518  0.5836
   90MOL   H16334161   2.038   6.054   4.555 -0.2380  1.8698  1.7094
   90MOL   H16434162   1.804   6.194   4.607 -1.3567 -2.7247  0.6908
   90MOL   H16534163   1.877   6.190   4.444 -2.0007 -0.7261 -0.5365
   90MOL   H16634164   1.731   6.035   4.369  1.2742  0.9881 -0.1724
   90MOL   H16734165   1.585   6.210   4.448 -0.1790  1.1599  0.0551
   90MOL   H16834166   1.589   6.141   4.614  1.7579  0.4213 -1.8193
   90MOL   H16934167   1.504   6.005   4.363 -3.4315  3.0480 -2.2254
   90MOL   H17034168   1.468   5.941   4.528 -1.1951 -1.1978 -0.7030
   90MOL   H17134169   1.698   5.838   4.469  2.5501  2.5635 -4.5453
   90MOL   H17234170   1.696   5.913   4.639  3.1677 -2.2480  1.6975
   90MOL   C17334171   1.338   6.111   4.449 -1.0073  0.0822  0.2840
   90MOL   C17434172   1.229   6.054   4.356 -0.2986 -0.7946  0.5727
   90MOL   C17534173   1.103   6.079   4.426  0.4778  0.4814  1.0498
   90MOL   C17634174   1.123   6.150   4.561  0.0098  0.0071 -0.1931
   90MOL   C17734175   1.022   6.098   4.673 -0.1206 -0.2907  0.0899
   90MOL   C17834176   0.878   6.129   4.639 -0.4892  0.0731 -0.6329
   90MOL   C17934177   1.275   6.129   4.590 -0.0127 -0.9632  0.3948
   90MOL   H18034178   1.365   6.210   4.411  0.0138  0.0126  0.8085
   90MOL   H18134179   1.253   5.949   4.344 -1.9370 -1.0605 -0.4314
   90MOL   H18234180   1.237   6.099   4.257  0.0087 -0.5172  0.7210
   90MOL   H18334181   1.029   6.127   4.361  3.2300  1.0570 -1.7461
   90MOL   H18434182   1.048   5.986   4.439  0.5893  0.1027 -1.0608
   90MOL   H18534183   1.102   6.256   4.547  1.9157  0.9265  3.5366
   90MOL   H18634184   1.054   6.140   4.768 -3.1774 -1.5130  1.7283
   90MOL   H18734185   1.030   5.992   4.696  0.4080 -0.5069 -1.0701
   90MOL   H18834186   0.846   6.068   4.554  0.6468  0.4113 -1.3150
   90MOL   H18934187   0.862   6.233   4.608 -1.2216 -0.1136 -0.9092
   90MOL   H19034188   1.289   6.047   4.661 -1.7880 -0.0360  1.8718
   90MOL   H19134189   1.318   6.211   4.647  0.6973 -0.1825 -1.2525
   90MOL   C19234190   0.783   6.091   4.757  0.1637 -0.3784 -0.2941
   90MOL   C19334191   0.645   6.073   4.709  0.4992  0.4906 -0.3279
   90MOL   C19434192   0.556   6.117   4.827  0.7219 -1.0765 -0.1123
   90MOL   C19534193   0.634   6.225   4.902 -0.2527 -0.4877 -0.0622
   90MOL   C19634194   0.609   6.217   5.056  0.3110  0.0544 -0.3098
   90MOL   C19734195   0.661   6.340   5.130 -0.3841 -0.4035  0.3964
   90MOL   C19834196   0.782   6.204   4.858 -0.4278 -0.6580 -0.4496
   90MOL   H19934197   0.819   5.998   4.802 -0.4956 -0.5541 -0.1181
   90MOL   H20034198   0.626   6.131   4.619 -0.7693  0.4901 -0.0827
   90MOL   H20134199   0.626   5.970   4.679 -0.1212  0.8383 -1.1398
   90MOL   H20234200   0.530   6.033   4.892  0.5295 -0.8502  0.0994
   90MOL   H20334201   0.469   6.167   4.787  0.7784 -0.4345  0.5642
   90MOL   H20434202   0.599   6.324   4.871 -1.5769 -0.8958  0.0935
   90MOL   H20534203   0.662   6.132   5.099  1.5383  0.8793 -0.1862
   90MOL   H20634204   0.501   6.206   5.065  0.3246 -1.7757 -2.0987
   90MOL   H20734205   0.644   6.424   5.062 -0.6960  0.4114  1.4652
   90MOL   H20834206   0.770   6.340   5.130 -0.3088  0.3826 -2.9828
   90MOL   H20934207   0.837   6.181   4.949  1.1821  5.2397  0.2800
   90MOL   H21034208   0.826   6.299   4.827 -1.5381  0.1455  0.3734
   90MOL   C21134209   0.614   6.343   5.279 -0.4784  0.1892 -0.2359
   90MOL   C21234210   0.464   6.377   5.291  0.2417  0.3176 -0.1878
   90MOL   C21334211   0.456   6.477   5.411 -0.0575 -0.0362  1.0067
   90MOL   C21434212   0.605   6.496   5.471 -0.2519 -0.2423 -0.0524
   90MOL   C21534213   0.624   6.629   5.539 -0.5150 -0.7381 -0.4144
   90MOL   C21634214   0.558   6.637   5.682 -0.3536  0.0029 -0.0638
   90MOL   C21734215   0.690   6.463   5.343  0.0109 -0.4896 -0.0954
   90MOL   H21834216   0.651   6.256   5.335  1.3749  0.9523 -0.2408
   90MOL   H21934217   0.427   6.419   5.197  1.3494  1.9999  0.1046
   90MOL   H22034218   0.406   6.288   5.317  1.7268 -0.6600 -0.1390
   90MOL   H22134219   0.437   6.576   5.370  1.2145 -0.9710 -1.9137
   90MOL   H22234220   0.380   6.448   5.484 -0.6775  2.0924  1.2357
   90MOL   H22334221   0.638   6.413   5.533 -0.8320 -1.2761 -1.1095
   90MOL   H22434222   0.591   6.711   5.476  1.5225  0.3204 -0.1450
   90MOL   H22534223   0.725   6.665   5.562 -0.9199 -0.6034  1.1983
   90MOL   H22634224   0.463   6.584   5.681 -0.5157  0.2881 -2.7020
   90MOL   H22734225   0.613   6.567   5.745 -1.4486 -2.1241 -1.4232
   90MOL   H22834226   0.791   6.443   5.379  0.2486  0.4699 -0.2163
   90MOL   H22934227   0.685   6.549   5.276  3.4036  0.4842  0.8353
   90MOL   C23034228   0.540   6.783   5.745 -0.2887  0.2738  0.5953
   90MOL   C23134229   0.672   6.817   5.825  0.0443  0.4300  0.6663
   90MOL   C23234230   0.621   6.829   5.972 -0.5666 -0.3130 -0.0055
   90MOL   C23334231   0.495   6.751   5.981  0.2198  0.1035  0.4294
   90MOL   C23434232   0.413   6.776   6.117 -0.2307 -0.0410 -0.0920
   90MOL   C23534233   0.463   6.694   6.242  0.4496  0.1552 -0.4367
   90MOL   C23634234   0.424   6.784   5.849  0.4585 -0.2605 -0.5737
   90MOL   H23734235   0.510   6.855   5.669  0.7149 -0.2952 -0.3440
   90MOL   H23834236   0.743   6.736   5.812 -0.4433  0.3734 -1.7121
   90MOL   H23934237   0.721   6.908   5.792 -0.6917  0.3094 -0.7738
   90MOL   H24034238   0.598   6.934   5.990  3.7199  1.1401 -2.2782
   90MOL   H24134239   0.693   6.799   6.048  0.1380 -1.6560 -1.1846
   90MOL   H24234240   0.520   6.645   5.981 -2.7013 -0.6523  2.5480
   90MOL   H24334241   0.308   6.759   6.094 -0.6256  2.3787 -0.1983
   90MOL   H24434242   0.430   6.878   6.152  2.8067 -0.8050  0.8793
   90MOL   H24534243   0.488   6.600   6.194 -4.4216 -1.2452 -0.5160
   90MOL   H24634244   0.552   6.742   6.282  0.2054  1.2870 -1.2320
   90MOL   H24734245   0.389   6.886   5.866 -0.0800 -0.6691  0.8577
   90MOL   H24834246   0.343   6.717   5.821 -0.1400  0.1298  0.1892
   90MOL   C24934247   0.354   6.691   6.355  0.3598  0.1766  0.1036
   90MOL   C25034248   0.364   6.572   6.444 -0.0949 -0.1828 -0.4394
   90MOL   C25134249   0.278   6.603   6.561  0.5018  0.5332  0.8408
   90MOL   C25234250   0.307   6.753   6.594 -0.2906  0.1180  0.6364
   90MOL   C25334251   0.196   6.821   6.682  0.7846  0.1138 -0.1342
   90MOL   C25434252   0.223   6.967   6.714  0.9115 -0.1813 -0.0728
   90MOL   C25534253   0.331   6.813   6.454 -0.7306 -0.1186 -0.0961
   90MOL   H25634254   0.260   6.675   6.303 -0.4286  0.8403  1.3022
   90MOL   H25734255   0.344   6.476   6.397 -0.1047 -0.6079  0.4205
   90MOL   H25834256   0.468   6.560   6.474 -0.1549  0.9588  0.2776
   90MOL   H25934257   0.309   6.536   6.642 -1.6333 -2.3995 -0.6531
   90MOL   H26034258   0.174   6.576   6.542  0.3219  1.0298  1.1007
   90MOL   H26134259   0.404   6.758   6.643  0.7649  0.2241 -1.3832
   90MOL   H26234260   0.166   6.762   6.768 -0.5266 -1.0206 -1.3380
   90MOL   H26334261   0.109   6.808   6.618  0.3967  0.7007  0.2670
   90MOL   H26434262   0.265   7.029   6.636 -0.2413 -2.1345 -2.2998
   90MOL   H26534263   0.291   6.972   6.799 -1.3557 -1.1586  1.8642
   90MOL   H26634264   0.412   6.886   6.460 -1.3845  0.9467 -3.3469
   90MOL   H26734265   0.240   6.868   6.430 -0.4995  0.1623 -0.3381
   90MOL   C26834266   0.094   7.041   6.756 -0.0290 -0.9935 -0.6842
   90MOL   C26934267   0.011   7.070   6.637 -0.0752 -0.4268 -0.1483
   90MOL   C27034268   7.566   7.182   6.682  0.0445  0.5927  0.8904
   90MOL   C27134269   7.632   7.253   6.805  0.9494  0.2785  0.0651
   90MOL   C27234270   0.005   7.410   6.803  0.4531 -0.5943 -0.3262
   90MOL   C27334271   0.071   7.468   6.937  0.3889  0.4869  0.1008
   90MOL   C27434272   0.118   7.177   6.817 -0.7197  0.1309  0.1941
   90MOL   H27534273   0.035   6.981   6.825 -0.0688 -1.3525 -1.0262
   90MOL   H27634274   0.070   7.118   6.559 -1.7535  0.6580 -0.7820
   90MOL   H27734275   7.596   6.992   6.593  1.3732 -1.4522 -0.4169
   90MOL   H27834276   7.547   7.247   6.597 -0.4703  0.6583  1.0557
   90MOL   H27934277   7.469   7.143   6.711 -0.7711  1.6836 -0.3650
   90MOL   H28034278   7.564   7.240   6.888  1.2400 -0.0007  0.2616
   90MOL   H28134279   7.556   7.459   6.786  2.0561  3.7576  2.3540
   90MOL   H28234280   0.069   7.431   6.717  0.1756  0.1753 -0.3571
   90MOL   H28334281   0.013   7.420   7.016  1.7726 -0.5575  0.5142
   90MOL   H28434282   0.173   7.427   6.937  0.6391  1.0360  1.9587
   90MOL   H28534283   0.204   7.234   6.779  1.5119 -2.4421  1.2562
   90MOL   H28634284   0.152   7.165   6.919 -2.2333 -1.6498  0.4993
   90MOL   C28734285   0.053   7.616   6.955 -0.1581 -0.8624 -0.0726
   90MOL   C28834286   0.112   0.018   7.090  0.6758  0.1515  0.6098
   90MOL   C28934287   0.180   0.154   7.060 -0.1139  0.5355 -0.1362
   90MOL   C29034288   0.136   0.190   6.912 -0.8488  0.2090  0.0620
   90MOL   C29134289   0.237   0.281   6.836 -0.0887  0.6585  0.2544
   90MOL   C29234290   0.195   0.323   6.689 -0.0875 -0.0299 -0.4058
   90MOL   C29334291   0.116   0.050   6.847 -0.3378  0.5252  0.5168
   90MOL   H29434292   7.596   7.647   6.951  0.0386 -0.2958 -0.9577
   90MOL   H29534293   0.032   0.029   7.164 -1.5094 -0.0797 -1.6693
   90MOL   H29634294   0.177   7.595   7.142 -0.4405 -1.0572  0.4031
   90MOL   H29734295   0.289   0.146   7.067 -0.1387 -0.0273 -0.3941
   90MOL   H29834296   0.153   0.234   7.130  1.5823  1.9381 -1.0357
   90MOL   H29934297   0.039   0.241   6.910 -0.7451  0.3896 -0.3526
   90MOL   H30034298   0.326   0.218   6.833 -0.4938  0.1460 -1.6640
   90MOL   H30134299   0.269   0.368   6.894  0.3824 -1.2023  2.8735
   90MOL   H30234300   0.135   0.412   6.704  2.3427  1.2341  2.1876
   90MOL   H30334301   0.137   0.251   6.631  0.2089  0.9663 -1.9688
   90MOL   H30434302   0.214   0.012   6.821  0.3745  3.4341 -1.2499
   90MOL   H30534303   0.053   0.059   6.758 -1.6464 -1.3985  1.1861
   90MOL   C30634304   0.314   0.379   6.609 -0.0566  0.0556 -0.5265
   90MOL   C30734305   0.389   0.265   6.534 -0.5447 -0.2892 -0.0986
   90MOL   C30834306   0.391   0.309   6.386 -0.4672 -0.1188 -0.3814
   90MOL   C30934307   0.375   0.457   6.388 -0.1121 -0.5143  0.0265
   90MOL   C31034308   0.324   0.493   6.251  0.1977  0.2995  0.5741
   90MOL   C31134309   0.332   0.648   6.216 -0.0542  0.0171 -0.1810
   90MOL   C31234310   0.276   0.485   6.504  0.3140  0.0103 -0.2654
   90MOL   H31334311   0.392   0.422   6.671  0.5520  0.4879 -1.5688
   90MOL   H31434312   0.489   0.259   6.578 -0.0561  0.0206 -1.1529
   90MOL   H31534313   0.345   0.168   6.557 -1.2438  0.3935  1.4811
   90MOL   H31634314   0.476   0.286   6.323  1.2537  0.3378  1.7273
   90MOL   H31734315   0.299   0.275   6.339 -0.9516  0.9138 -0.1983
   90MOL   H31834316   0.465   0.511   6.418 -1.8772  1.5200  1.7963
   90MOL   H31934317   0.386   0.437   6.182  0.4084  0.1971  0.8485
   90MOL   H32034318   0.221   0.457   6.250 -0.5060  2.1778  2.1646
   90MOL   H32134319   0.432   0.685   6.239  0.5230 -2.5172  1.7032
   90MOL   H32234320   0.265   0.692   6.289 -1.9091 -0.2479 -1.6956
   90MOL   H32334321   0.175   0.476   6.465  0.5600  0.7633 -1.1234
   90MOL   H32434322   0.280   0.590   6.534 -1.3005 -0.2214  0.7930
   90MOL   C32534323   0.288   0.682   6.072 -0.2321 -0.3743 -0.0737
   90MOL   C32634324   0.141   0.630   6.047  0.1074 -0.5375  0.5382
   90MOL   C32734325   0.058   0.753   5.994 -0.2511  0.1742 -0.8652
   90MOL   C32834326   0.134   0.875   6.048 -0.7820  0.4573 -0.3886
   90MOL   C32934327   0.112   1.010   5.977 -0.1584 -0.9753 -0.1911
   90MOL   C33034328   7.624   1.071   5.985 -0.1837  0.0935  0.0326
   90MOL   C33134329   0.282   0.838   6.052 -0.4490 -0.0672 -0.2146
   90MOL   H33234330   0.360   0.655   5.995 -0.0594 -1.1218  0.3361
   90MOL   H33334331   0.085   0.602   6.135 -1.3539 -1.7827 -0.7619
   90MOL   H33434332   0.133   0.543   5.981  0.4124 -0.8810  0.9496
   90MOL   H33534333   0.054   0.757   5.886  0.3451 -2.4330 -0.9959
   90MOL   H33634334   7.609   0.741   6.043  0.1253 -0.9052 -0.3833
   90MOL   H33734335   0.106   0.892   6.152 -0.1231  3.1155 -0.5906
   90MOL   H33834336   0.178   1.087   6.016 -0.7986 -1.3464  1.6761
   90MOL   H33934337   0.155   1.017   5.877 -0.3379 -1.2232 -0.2880
   90MOL   H34034338   7.572   1.027   6.070 -0.9456  4.0369  1.7313
   90MOL   H34134339   7.633   1.178   6.003 -0.5686 -0.0398  1.0396
   90MOL   H34234340   0.338   0.892   6.129 -1.5511  2.9108 -1.4042
   90MOL   H34334341   0.319   0.852   5.950  0.8964 -1.9632 -0.0045
   90MOL   C34434342   7.537   1.047   5.849  0.1375  0.3807  0.4171
   90MOL   C34534343   7.426   1.149   5.836  0.2094  0.6879  0.1415
   90MOL   C34634344   7.322   1.086   5.749  0.3091  0.4374 -0.3314
   90MOL   C34734345   7.316   0.934   5.794 -0.2227  0.3055 -0.1206
   90MOL   C34834346   7.276   0.831   5.686  0.0147 -0.7126  0.2738
   90MOL   C34934347   7.137   0.858   5.612  0.6932 -0.1789 -0.0221
   90MOL   C35034348   7.452   0.914   5.862 -0.4863  0.1542 -0.2305
   90MOL   H35134349   7.614   1.053   5.773  1.4217 -4.3503  1.1645
   90MOL   H35234350   7.474   1.241   5.802 -1.0461  1.3536  0.1598
   90MOL   H35334351   7.384   1.162   5.936 -2.0684  0.2989 -0.7436
   90MOL   H35434352   7.229   1.143   5.756  1.1203  1.5984  1.3415
   90MOL   H35534353   7.350   1.089   5.643  1.7535  0.1026  0.0325
   90MOL   H35634354   7.234   0.945   5.865 -0.7621 -2.3212 -0.2753
   90MOL   H35734355   7.352   0.813   5.610  0.2543  1.5677 -0.0500
   90MOL   H35834356   7.263   0.732   5.731  0.5008 -0.6149  0.6323
   90MOL   H35934357   7.145   0.954   5.560 -1.8144 -1.2166 -2.4569
   90MOL   H36034358   7.053   0.860   5.682  0.8550  1.1319  0.1510
   90MOL   H36134359   7.435   0.875   5.963  1.0721  0.1897  0.0566
   90MOL   H36234360   7.505   0.834   5.810 -0.3521 -1.3246  2.0950
   90MOL   C36334361   7.099   0.754   5.499 -0.2997  0.2749 -0.5744
   90MOL   C36434362   6.958   0.783   5.433 -0.1782 -0.1114  0.0559
   90MOL   C36534363   6.926   0.648   5.364 -0.3843  0.2683 -0.5808
   90MOL   C36634364   6.986   0.536   5.451 -0.2456 -0.3213 -0.2337
   90MOL   C36734365   6.884   0.430   5.512 -0.6153 -0.8673  0.8129
   90MOL   C36834366   6.962   0.314   5.577 -0.7583 -0.9850 -0.2595
   90MOL   C36934367   7.080   0.607   5.546  0.4834  0.6519  0.2228
   90MOL   H37034368   7.172   0.755   5.417 -0.1531  4.1742 -0.4540
   90MOL   H37134369   6.887   0.820   5.507  0.5977 -0.7591  1.1289
   90MOL   H37234370   6.981   0.862   5.361  0.1077  0.5935  0.9172
   90MOL   H37334371   6.821   0.633   5.338 -0.5217 -1.9610  1.0755
   90MOL   H37434372   6.986   0.662   5.274  1.0696  0.9518  0.4714
   90MOL   H37534373   7.046   0.480   5.378  0.7054  2.0559 -1.3172
   90MOL   H37634374   6.812   0.469   5.584  0.7019 -0.3931  1.8953
   90MOL   H37734375   6.823   0.388   5.432 -0.4151  0.5607 -0.1161
   90MOL   H37834376   6.977   0.347   5.680  0.4459 -1.3408 -0.3130
   90MOL   H37934377   7.054   0.282   5.527  0.2943  2.1621 -0.4347
   90MOL   H38034378   7.045   0.603   5.649 -2.8432 -0.2989 -0.8927
   90MOL   H38134379   7.176   0.555   5.552  0.4625  0.4193 -1.3887
   90MOL   H38234380   6.892   0.231   5.581 -2.6688  0.5265 -1.4342
   91MOL     C134381   5.248   6.231   2.671  0.0950  0.0219  0.0266
   91MOL     C234382   5.287   6.119   2.578  0.0822  0.2481  0.3299
   91MOL     C334383   5.270   5.988   2.647  0.0218 -0.0767 -0.0856
   91MOL     C434384   5.138   6.010   2.734 -0.1058 -0.7463 -0.5249
   91MOL     C534385   5.139   5.920   2.858 -0.5927 -0.0459 -0.1430
   91MOL     C634386   5.002   5.916   2.933 -0.1399  0.0271  0.2774
   91MOL     C734387   5.149   6.161   2.769 -0.1255 -0.0844 -0.6480
   91MOL     H834388   5.331   6.269   2.731  0.1823  0.3908 -0.3295
   91MOL     H934389   5.385   6.131   2.532 -0.4541 -0.8809 -1.1418
   91MOL    H1034390   5.222   6.139   2.493 -2.5985 -1.7477  1.8315
   91MOL    H1134391   5.263   5.909   2.572  1.1217 -0.7853  0.5468
   91MOL    H1234392   5.356   5.965   2.711 -0.6554 -1.7029  0.2866
   91MOL    H1334393   5.054   5.982   2.670  0.1841 -2.4495 -0.1809
   91MOL    H1434394   5.169   5.820   2.827 -1.0553 -0.4148  0.5689
   91MOL    H1534395   5.209   5.955   2.934 -2.4063 -1.5367  2.3103
   91MOL    H1634396   4.969   6.020   2.936  1.0700  0.4332  0.0313
   91MOL    H1734397   4.927   5.864   2.874 -1.5069  2.5619 -0.2785
   91MOL    H1834398   5.051   6.207   2.768  1.2688  3.0701 -0.3784
   91MOL    H1934399   5.191   6.165   2.870  0.6294 -1.8409 -0.8790
   91MOL    H2034400   5.211   6.320   2.620 -2.3873 -1.6801 -1.2274
   91MOL    C2134401   4.999   5.849   3.071  0.0992  0.5638 -0.2134
   91MOL    C2234402   5.036   5.944   3.192 -0.1953 -0.0348  0.3371
   91MOL    C2334403   4.926   5.922   3.298 -0.4812 -0.6207 -0.1003
   91MOL    C2434404   4.856   5.787   3.251  0.0552 -0.4276 -0.8372
   91MOL    C2534405   4.717   5.779   3.312 -0.0537 -0.3488 -0.5008
   91MOL    C2634406   4.721   5.793   3.468  0.2155  0.0045 -0.4633
   91MOL    C2734407   4.871   5.778   3.102 -0.3946 -0.1234 -0.5940
   91MOL    H2834408   5.068   5.765   3.064 -1.2616 -0.7551  1.8335
   91MOL    H2934409   5.129   5.906   3.234  0.4252  1.6312  0.5397
   91MOL    H3034410   5.039   6.046   3.153 -0.6412 -0.1778 -0.0718
   91MOL    H3134411   4.970   5.915   3.397  0.9112  1.3828 -0.5521
   91MOL    H3234412   4.868   6.014   3.303  2.7218  1.4229  0.9073
   91MOL    H3334413   4.917   5.705   3.288  0.3083  0.1245 -0.0248
   91MOL    H3434414   4.679   5.678   3.294 -2.2262  0.4429 -0.5209
   91MOL    H3534415   4.658   5.860   3.268  0.0814 -0.1148 -0.2548
   91MOL    H3634416   4.770   5.886   3.498  0.1259 -0.8876  2.6767
   91MOL    H3734417   4.794   5.723   3.509  0.5138  0.3254 -0.4379
   91MOL    H3834418   4.876   5.676   3.064  1.4479  1.0021 -3.5890
   91MOL    H3934419   4.784   5.814   3.048 -1.3736  1.3645  1.9194
   91MOL    C4034420   4.587   5.772   3.548  0.3218  0.8702  0.1493
   91MOL    C4134421   4.553   5.620   3.567  0.0687  0.1010 -0.3390
   91MOL    C4234422   4.478   5.626   3.692 -0.4190 -0.0809 -0.4357
   91MOL    C4334423   4.556   5.724   3.784 -0.6805  0.3367  0.8596
   91MOL    C4434424   4.460   5.780   3.899  0.2164 -0.1602  0.5486
   91MOL    C4534425   4.418   5.664   3.998  0.1326 -0.0713  0.2751
   91MOL    C4634426   4.601   5.830   3.690 -1.2233 -0.3239  0.4157
   91MOL    H4734427   4.507   5.826   3.497  1.9239  0.5140 -2.8380
   91MOL    H4834428   4.645   5.568   3.595 -0.1493  0.3125  0.7975
   91MOL    H4934429   4.498   5.584   3.480  0.2905 -1.5105  0.1762
   91MOL    H5034430   4.383   5.674   3.670  0.7523  2.7746  0.5344
   91MOL    H5134431   4.448   5.531   3.736 -1.5005  1.4649  2.2278
   91MOL    H5234432   4.642   5.665   3.815 -0.8894 -0.4627 -0.0768
   91MOL    H5334433   4.497   5.863   3.959 -0.8584 -0.0931  1.1251
   91MOL    H5434434   4.384   5.833   3.844  0.5533  2.0510  2.1543
   91MOL    H5534435   4.513   5.627   4.037  0.8258  1.8282  0.4552
   91MOL    H5634436   4.360   5.583   3.953 -3.3301  1.3802  1.9365
   91MOL    H5734437   4.566   5.931   3.712 -0.3118 -0.2848  1.7254
   91MOL    H5834438   4.707   5.844   3.714 -1.4411 -0.6440  1.6016
   91MOL    C5934439   4.325   5.713   4.112 -0.0516 -0.8087  0.0940
   91MOL    C6034440   4.184   5.766   4.071  0.5912 -0.0618  0.0154
   91MOL    C6134441   4.102   5.773   4.202  0.4114 -0.0205  0.0879
   91MOL    C6234442   4.159   5.653   4.279  0.2482 -0.6734  0.1128
   91MOL    C6334443   4.198   5.698   4.426  0.6247  0.1690 -0.3160
   91MOL    C6434444   4.078   5.686   4.519 -0.0897 -0.5956 -0.4036
   91MOL    C6534445   4.277   5.601   4.199  0.7000  0.7550  0.0452
   91MOL    H6634446   4.378   5.793   4.163 -0.9315  1.5282 -2.5318
   91MOL    H6734447   4.202   5.862   4.025 -0.9993  0.2063 -0.0921
   91MOL    H6834448   4.134   5.699   4.001 -1.5630  1.3205  0.1869
   91MOL    H6934449   4.116   5.866   4.256 -0.3853 -0.7262  1.5306
   91MOL    H7034450   3.996   5.765   4.178  0.0229  1.1820  1.3154
   91MOL    H7134451   4.081   5.578   4.266 -1.3996  1.7871 -5.2701
   91MOL    H7234452   4.247   5.796   4.428  0.5817  0.1964 -0.6318
   91MOL    H7334453   4.266   5.628   4.474  2.8054  2.7529  0.5381
   91MOL    H7434454   4.031   5.590   4.497 -0.9018 -0.4884  0.8848
   91MOL    H7534455   4.102   5.686   4.625  1.7044 -0.4968 -0.7826
   91MOL    H7634456   4.354   5.552   4.257  0.7039  2.7503  1.8119
   91MOL    H7734457   4.234   5.516   4.147 -2.0181  1.3099  1.2495
   91MOL    C7834458   3.967   5.787   4.494  0.3087  0.1187 -0.1227
   91MOL    C7934459   3.832   5.749   4.569 -0.3593  0.9780  0.2420
   91MOL    C8034460   3.765   5.884   4.578 -0.0597  0.0964  0.2767
   91MOL    C8134461   3.861   5.991   4.528 -0.0365  0.2936  0.1597
   91MOL    C8234462   3.847   6.127   4.601  0.4461 -0.7750 -0.6443
   91MOL    C8334463   3.927   6.249   4.545  0.1330  0.2297  0.1817
   91MOL    C8434464   4.002   5.933   4.532 -0.1101  0.0263  0.0013
   91MOL    H8534465   3.938   5.791   4.389 -1.0579  1.8677  0.3042
   91MOL    H8634466   3.782   5.671   4.511  1.4636 -1.0043  1.2787
   91MOL    H8734467   3.856   5.710   4.668 -2.6125  0.5213  0.6335
   91MOL    H8834468   3.667   5.882   4.529  1.9018 -0.7118 -3.8301
   91MOL    H8934469   3.752   5.911   4.682  2.0816  0.1343  0.5565
   91MOL    H9034470   3.848   6.006   4.421  2.0176  1.2149  0.0152
   91MOL    H9134471   3.871   6.109   4.706  2.1838  3.6914 -0.1237
   91MOL    H9234472   3.741   6.152   4.601  0.1817 -1.8636  0.6801
   91MOL    H9334473   3.898   6.247   4.439 -1.1250  0.3148  0.5179
   91MOL    H9434474   4.033   6.224   4.549 -0.1300 -1.0545 -0.5237
   91MOL    H9534475   4.041   5.950   4.632 -1.1896 -2.5957  0.9172
   91MOL    H9634476   4.065   5.976   4.454 -0.9440 -0.7912 -1.1406
   91MOL    C9734477   3.894   6.375   4.620  0.0508  0.0334  0.3397
   91MOL    C9834478   3.949   6.493   4.544 -0.2204  0.1441 -0.4901
   91MOL    C9934479   4.029   6.569   4.650 -0.1560 -0.1804  0.1671
   91MOL   C10034480   3.994   6.510   4.787 -0.3252  0.0016 -0.1536
   91MOL   C10134481   4.115   6.511   4.887 -0.2109 -0.2685  0.1171
   91MOL   C10234482   4.085   6.445   5.025 -0.2126 -0.1739  0.0462
   91MOL   C10334483   3.956   6.373   4.757  0.4489 -0.3996  0.4471
   91MOL   H10434484   3.787   6.395   4.626  0.0935  0.8726 -1.4303
   91MOL   H10534485   4.014   6.463   4.462 -0.5446 -1.9243 -0.0171
   91MOL   H10634486   3.870   6.554   4.502  0.7513  1.2129 -0.7872
   91MOL   H10734487   4.135   6.567   4.624  0.1996 -2.1277  1.6527
   91MOL   H10834488   4.016   6.677   4.658 -1.5884 -0.4216  1.3611
   91MOL   H10934489   3.916   6.581   4.817  0.5965  0.8557  0.2571
   91MOL   H11034490   4.195   6.469   4.826 -0.6788 -0.9535 -0.0350
   91MOL   H11134491   4.138   6.616   4.906  1.1523 -0.2682 -1.4119
   91MOL   H11234492   3.999   6.486   5.078  0.5023 -0.0142  1.0960
   91MOL   H11334493   4.077   6.340   4.997  0.6652  0.5371 -3.1222
   91MOL   H11434494   4.037   6.301   4.745 -0.2158 -0.8146 -1.9166
   91MOL   H11534495   3.879   6.328   4.820  0.5211  0.6227  1.2653
   91MOL   C11634496   4.206   6.455   5.129  0.3636 -0.3569 -0.1395
   91MOL   C11734497   4.178   6.397   5.268 -0.0146 -0.8518 -0.1805
   91MOL   C11834498   4.313   6.362   5.327 -0.1925 -0.2744  0.1191
   91MOL   C11934499   4.406   6.321   5.210 -0.2520  1.5425  0.2280
   91MOL   C12034500   4.448   6.169   5.206 -0.0788  0.3831 -0.3112
   91MOL   C12134501   4.543   6.121   5.317  0.3636  0.1387  0.0463
   91MOL   C12234502   4.331   6.377   5.079 -0.0096 -1.0850 -0.0804
   91MOL   H12334503   4.221   6.563   5.135 -3.0613  0.1143  1.1113
   91MOL   H12434504   4.125   6.302   5.265 -1.8340  0.0952  0.7745
   91MOL   H12534505   4.120   6.465   5.331  1.0658  0.2548 -0.3526
   91MOL   H12634506   4.288   6.276   5.390  2.1111 -0.3946  0.9148
   91MOL   H12734507   4.351   6.439   5.393 -0.4259  0.5292 -0.6675
   91MOL   H12834508   4.496   6.382   5.216  0.1933  0.9921 -0.7688
   91MOL   H12934509   4.490   6.158   5.105 -0.8700 -1.5148 -0.4568
   91MOL   H13034510   4.360   6.106   5.215 -0.3260  0.5652 -1.3526
   91MOL   H13134511   4.513   6.171   5.409 -0.2527  0.5549 -0.3743
   91MOL   H13234512   4.649   6.146   5.315  0.4236 -0.2127 -1.4161
   91MOL   H13334513   4.406   6.436   5.025 -0.9240 -2.5388 -3.0525
   91MOL   H13434514   4.293   6.291   5.024 -0.4653 -1.3791  0.6944
   91MOL   C13534515   4.539   5.968   5.342 -0.1985  0.5039  0.1001
   91MOL   C13634516   4.644   5.908   5.434 -0.3903  0.7196 -1.2288
   91MOL   C13734517   4.594   5.765   5.469  0.3760 -0.0345  0.3186
   91MOL   C13834518   4.448   5.763   5.440  0.7904 -0.1316  0.8120
   91MOL   C13934519   4.413   5.654   5.324  0.7350  0.2945  0.3387
   91MOL   C14034520   4.441   5.504   5.365  0.0928 -0.2702  0.3667
   91MOL   C14134521   4.407   5.905   5.391  0.3296 -0.3856 -0.3942
   91MOL   H14234522   4.561   5.908   5.254  0.8422 -1.2830  1.5608
   91MOL   H14334523   4.747   5.917   5.399  1.1701  0.3414  2.9323
   91MOL   H14434524   4.661   5.966   5.525  1.4807 -1.9181  0.2047
   91MOL   H14534525   4.644   5.693   5.404 -0.1845 -1.5465  1.5065
   91MOL   H14634526   4.625   5.727   5.567  0.4934 -2.1111 -0.4967
   91MOL   H14734527   4.401   5.723   5.529 -0.1353 -1.0769 -0.0864
   91MOL   H14834528   4.458   5.677   5.227 -1.5900 -0.3954 -0.9559
   91MOL   H14934529   4.307   5.659   5.299  0.3257 -2.6560  1.2973
   91MOL   H15034530   4.544   5.489   5.394  0.3682  1.0420  0.1256
   91MOL   H15134531   4.381   5.486   5.454 -1.8399  1.9538 -0.4277
   91MOL   H15234532   4.375   5.965   5.476 -1.0269 -1.8790  0.1644
   91MOL   H15334533   4.328   5.902   5.316 -0.5375  0.7219  0.4535
   91MOL   C15434534   4.414   5.412   5.246 -0.8010  0.5996  0.9009
   91MOL   C15534535   4.349   5.284   5.295  0.6135 -0.9558  0.0071
   91MOL   C15634536   4.382   5.180   5.184  0.8574  0.4120 -0.3109
   91MOL   C15734537   4.502   5.236   5.100 -0.7135 -0.3300  0.6590
   91MOL   C15834538   4.623   5.137   5.092  0.3835  0.1402  0.0906
   91MOL   C15934539   4.606   5.030   4.991  0.2513 -0.3299  0.2783
   91MOL   C16034540   4.545   5.362   5.181  0.1448 -0.4685 -0.0234
   91MOL   H16134541   4.345   5.462   5.178  0.3942  2.6717  1.1694
   91MOL   H16234542   4.390   5.267   5.395 -2.2528  2.4795  1.8653
   91MOL   H16334543   4.241   5.296   5.302  0.7264  1.3163 -1.7817
   91MOL   H16434544   4.415   5.085   5.225  0.1172  1.0165  1.6893
   91MOL   H16534545   4.285   5.160   5.138  1.3888 -0.5262 -1.0534
   91MOL   H16634546   4.489   5.271   4.997  1.7872 -0.1130  0.3838
   91MOL   H16734547   4.637   5.084   5.186 -0.5544 -1.2797 -0.5525
   91MOL   H16834548   4.719   5.184   5.069  0.3348  0.7646  1.1569
   91MOL   H16934549   4.506   4.985   4.994  0.1309  0.0094  2.7095
   91MOL   H17034550   4.621   5.063   4.889  1.0253  0.0856  0.5284
   91MOL   H17134551   4.591   5.436   5.115  1.3332 -0.1806  1.1088
   91MOL   H17234552   4.626   5.336   5.250  0.4432 -0.3900 -0.3452
   91MOL   C17334553   4.713   4.914   5.007 -0.3279  0.0108  0.3583
   91MOL   C17434554   4.679   4.781   4.930 -0.0234  0.5451  0.2821
   91MOL   C17534555   4.821   4.709   4.910 -1.3970  0.1834  0.2642
   91MOL   C17634556   4.920   4.809   4.932  0.5353 -0.4985  0.2184
   91MOL   C17734557   5.035   4.807   4.824  0.0379  0.2643 -0.2201
   91MOL   C17834558   5.139   4.915   4.854  0.4221 -0.0027  0.3680
   91MOL   C17934559   4.845   4.944   4.943  0.5346  0.4691 -0.2673
   91MOL   H18034560   4.732   4.887   5.111 -1.1394 -3.3128 -0.2720
   91MOL   H18134561   4.649   4.817   4.831 -0.0760 -0.0665  0.0762
   91MOL   H18234562   4.602   4.723   4.979 -0.4898  1.1026  0.2197
   91MOL   H18334563   4.836   4.622   4.974  3.0871 -0.2403 -1.2215
   91MOL   H18434564   4.837   4.676   4.808  1.5376  0.5764  0.5771
   91MOL   H18534565   4.967   4.799   5.030 -0.3885 -1.3996  0.5740
   91MOL   H18634566   4.997   4.806   4.722 -1.1981 -2.9370  0.1984
   91MOL   H18734567   5.084   4.710   4.837  0.2331  0.4482  0.4378
   91MOL   H18834568   5.177   4.910   4.956  0.4826  0.5518  0.3754
   91MOL   H18934569   5.088   5.008   4.831  1.8085  1.2610  2.2501
   91MOL   H19034570   4.820   4.988   4.847  0.7651 -0.3129 -0.6898
   91MOL   H19134571   4.901   5.020   4.997  2.8897 -1.2229 -0.2396
   91MOL   C19234572   5.271   4.913   4.777  0.0804 -0.1310 -0.5165
   91MOL   C19334573   5.361   5.025   4.833 -0.9453 -0.7776  0.3443
   91MOL   C19434574   5.456   5.033   4.716 -0.2730 -0.2470 -0.8429
   91MOL   C19534575   5.368   5.030   4.590  0.1089 -0.1326  0.0610
   91MOL   C19634576   5.440   4.990   4.462 -0.0972 -0.1040  0.1732
   91MOL   C19734577   5.385   5.054   4.335 -0.4995  0.4043  0.0386
   91MOL   C19834578   5.250   4.941   4.628 -0.4758  0.8380  0.2700
   91MOL   H19934579   5.321   4.818   4.795 -2.1443 -1.3214 -0.4835
   91MOL   H20034580   5.302   5.114   4.858 -0.8021 -0.7146  0.4620
   91MOL   H20134581   5.419   4.987   4.917  0.1195  0.1732  0.0559
   91MOL   H20234582   5.531   4.954   4.713  0.3829  0.3424 -0.2016
   91MOL   H20334583   5.521   5.120   4.718 -1.1575  0.3726  2.3778
   91MOL   H20434584   5.331   5.129   4.564 -2.7716 -0.6076  2.1014
   91MOL   H20534585   5.433   4.881   4.458  1.9523 -0.2483 -0.1254
   91MOL   H20634586   5.548   5.006   4.467 -0.0345 -1.0328  2.5533
   91MOL   H20734587   5.383   5.161   4.352 -1.1710  0.6398 -1.4443
   91MOL   H20834588   5.280   5.023   4.337 -0.3184 -0.2395 -0.5229
   91MOL   H20934589   5.254   4.841   4.585 -2.2072  0.1393  1.6651
   91MOL   H21034590   5.153   4.989   4.622 -0.2269  1.2504 -0.5133
   91MOL   C21134591   5.469   5.016   4.212 -0.2177  0.6308 -0.3157
   91MOL   C21234592   5.409   5.051   4.068  0.3785 -0.9407  0.7740
   91MOL   C21334593   5.451   4.929   3.972  1.0802 -0.5652 -0.0058
   91MOL   C21434594   5.553   4.847   4.055  0.3061  0.3114  0.1707
   91MOL   C21534595   5.552   4.695   4.018  0.3854  0.2062  0.6339
   91MOL   C21634596   5.597   4.668   3.877  0.0447 -0.3301 -0.1205
   91MOL   C21734597   5.503   4.869   4.202 -0.9642 -0.3759 -0.0785
   91MOL   H21834598   5.561   5.074   4.214  2.5630 -3.4204 -2.0722
   91MOL   H21934599   5.300   5.053   4.063  0.4856  1.5441 -1.4502
   91MOL   H22034600   5.460   5.140   4.029  0.7118 -2.1029 -1.5199
   91MOL   H22134601   5.369   4.859   3.958  0.3422  0.1072  0.8178
   91MOL   H22234602   5.489   4.965   3.877 -1.0729 -2.0690 -1.4838
   91MOL   H22334603   5.652   4.890   4.044 -0.0345  1.1345  0.2200
   91MOL   H22434604   5.452   4.655   4.038 -0.6004  1.1132 -2.1897
   91MOL   H22534605   5.625   4.645   4.081 -0.5954  0.5108  2.0345
   91MOL   H22634606   5.560   4.751   3.817  0.0361 -0.9222 -0.9441
   91MOL   H22734607   5.706   4.665   3.877  0.1195  1.2149 -1.8971
   91MOL   H22834608   5.583   4.847   4.273  1.0623  1.1075 -1.8454
   91MOL   H22934609   5.418   4.803   4.221 -3.1621  2.7645  1.4196
   91MOL   C23034610   5.558   4.522   3.828 -0.0712 -0.4523 -0.1328
   91MOL   C23134611   5.613   4.489   3.697  0.4836  0.5380  0.6566
   91MOL   C23234612   5.535   4.375   3.638 -0.9125  0.3998 -0.1275
   91MOL   C23334613   5.391   4.409   3.689 -0.0980 -0.1346  0.8718
   91MOL   C23434614   5.293   4.282   3.705 -0.6461  0.1879  0.1994
   91MOL   C23534615   5.250   4.195   3.584  0.3194 -0.2297 -0.1147
   91MOL   C23634616   5.409   4.485   3.815  0.0152 -0.0759 -0.2310
   91MOL   H23734617   5.602   4.447   3.893  0.9052  0.2558  0.0368
   91MOL   H23834618   5.599   4.575   3.632  2.4228  0.9371  0.7337
   91MOL   H23934619   5.718   4.462   3.706  0.4900  1.1006  2.5571
   91MOL   H24034620   5.565   4.274   3.665  0.4284  0.4096 -1.5036
   91MOL   H24134621   5.539   4.381   3.529  1.6718 -0.4940 -0.1136
   91MOL   H24234622   5.346   4.473   3.614  1.8337  0.6554  0.3587
   91MOL   H24334623   5.199   4.317   3.746  0.2255  2.9748 -0.0262
   91MOL   H24434624   5.326   4.216   3.785  0.2318  0.4482  0.0567
   91MOL   H24534625   5.176   4.255   3.531  0.6503  1.7276  1.6012
   91MOL   H24634626   5.336   4.174   3.521 -0.1403  3.5059 -2.1342
   91MOL   H24734627   5.388   4.429   3.906 -0.1329 -2.1688 -1.5307
   91MOL   H24834628   5.355   4.580   3.817  1.5103  0.7795 -0.0003
   91MOL   C24934629   5.161   4.073   3.613 -0.3378  0.1154 -0.3102
   91MOL   C25034630   5.037   4.103   3.693 -0.1248  0.1368 -0.7170
   91MOL   C25134631   4.942   3.984   3.668  0.5146  0.5624 -0.0230
   91MOL   C25234632   4.983   3.929   3.533  0.1541  1.0674 -0.3753
   91MOL   C25334633   5.002   3.775   3.531 -0.0142 -0.0862 -0.5443
   91MOL   C25434634   4.864   3.705   3.556 -0.1207 -0.7435  0.0698
   91MOL   C25534635   5.111   4.001   3.494 -0.0552 -0.5838  0.0463
   91MOL   H25634636   5.219   4.008   3.678 -0.6013  0.0718 -0.1171
   91MOL   H25734637   5.054   4.107   3.800  0.6957 -1.8969 -0.7366
   91MOL   H25834638   4.992   4.193   3.653 -0.3570  0.0648 -0.6194
   91MOL   H25934639   4.840   4.019   3.681 -0.1426 -1.9877  2.2439
   91MOL   H26034640   4.953   3.911   3.749  1.7446  1.4399  0.6176
   91MOL   H26134641   4.904   3.942   3.459 -0.1558  0.3265 -0.1718
   91MOL   H26234642   5.081   3.747   3.600  0.7908  1.5892 -0.7784
   91MOL   H26334643   5.029   3.743   3.431 -2.4686  0.9291 -1.5920
   91MOL   H26434644   4.799   3.730   3.472  0.1590  1.8153  0.5619
   91MOL   H26534645   4.823   3.738   3.652  0.7898 -0.7887  0.4802
   91MOL   H26634646   5.091   4.068   3.410  1.6485  0.8006  0.7166
   91MOL   H26734647   5.187   3.939   3.447 -0.1240  0.1561 -1.0530
   91MOL   C26834648   4.888   3.549   3.560  0.4457 -0.1484  0.2957
   91MOL   C26934649   4.959   3.485   3.436  0.0174 -0.4576  0.8311
   91MOL   C27034650   4.902   3.339   3.428  0.4169  0.9309 -0.0086
   91MOL   C27134651   4.810   3.323   3.545  0.1361  0.4382  0.4718
   91MOL   C27234652   4.695   3.228   3.498  0.5368 -0.2194  1.2009
   91MOL   C27334653   4.593   3.201   3.607 -0.2843  0.0847  0.0812
   91MOL   C27434654   4.760   3.469   3.572  0.6401  0.1193  0.2065
   91MOL   H27534655   4.951   3.533   3.647  0.9238  0.4160  0.0539
   91MOL   H27634656   4.926   3.543   3.351 -2.8049  1.1667  2.9401
   91MOL   H27734657   5.068   3.484   3.438  0.0453 -1.7881 -0.5732
   91MOL   H27834658   4.839   3.337   3.339  0.3619  1.0758  0.0266
   91MOL   H27934659   4.979   3.262   3.425 -0.8062 -0.3111 -0.0475
   91MOL   H28034660   4.874   3.279   3.621  0.5299 -0.8619 -0.6010
   91MOL   H28134661   4.740   3.137   3.458  3.5941  2.5638 -2.0261
   91MOL   H28234662   4.641   3.280   3.419 -1.5128 -0.0033  2.6915
   91MOL   H28334663   4.654   3.153   3.683  1.7812 -0.1235 -1.6580
   91MOL   H28434664   4.553   3.291   3.655 -0.2565  1.3592 -2.2176
   91MOL   H28534665   4.695   3.501   3.490 -1.1738 -1.6860  0.8807
   91MOL   H28634666   4.705   3.482   3.665 -0.2974  3.1844 -0.7214
   91MOL   C28734667   4.477   3.102   3.571 -0.1154  0.0496  1.2082
   91MOL   C28834668   4.374   3.049   3.670 -0.2526 -0.6538 -0.2116
   91MOL   C28934669   4.233   3.042   3.602 -0.0327 -0.0562  0.2505
   91MOL   C29034670   4.266   3.069   3.451 -0.2078  0.0911  0.8826
   91MOL   C29134671   4.147   3.118   3.371 -0.5085  0.5370 -0.8005
   91MOL   C29234672   4.173   3.099   3.221 -0.0331 -0.0745 -0.0325
   91MOL   C29334673   4.387   3.165   3.461 -0.7441  0.2669 -0.2634
   91MOL   H29434674   4.518   3.017   3.518 -1.5509  0.2681 -0.3023
   91MOL   H29534675   4.417   2.955   3.706  0.5168  0.3604  1.5417
   91MOL   H29634676   4.370   3.111   3.759 -0.8752 -1.2219  0.1570
   91MOL   H29734677   4.169   3.121   3.641 -3.0971 -1.3706 -1.9177
   91MOL   H29834678   4.185   2.945   3.618 -0.2165  0.3044  1.9442
   91MOL   H29934679   4.306   2.975   3.414 -2.4804 -0.7786  0.5107
   91MOL   H30034680   4.107   3.214   3.403  0.4655  1.3893 -2.0587
   91MOL   H30134681   4.067   3.049   3.395  1.5261 -1.3147  0.8226
   91MOL   H30234682   4.181   2.992   3.203  1.4588  0.0791 -0.2721
   91MOL   H30334683   4.265   3.147   3.188  0.5405 -0.5013  0.9228
   91MOL   H30434684   4.360   3.268   3.485 -1.6117 -0.1694  0.7332
   91MOL   H30534685   4.442   3.178   3.368  0.7128  2.5013  0.8532
   91MOL   C30634686   4.055   3.144   3.133 -0.0723 -0.4865  1.0143
   91MOL   C30734687   4.101   3.140   2.983 -0.0155  0.6800 -0.1459
   91MOL   C30834688   3.989   3.066   2.907  0.3679 -0.0553 -0.0977
   91MOL   C30934689   3.865   3.061   3.005  0.1483 -0.5456  0.0728
   91MOL   C31034690   3.776   2.937   2.993 -0.1229 -0.3668  0.2137
   91MOL   C31134691   3.646   2.958   3.065  0.8377  0.1453 -0.1281
   91MOL   C31234692   3.922   3.067   3.147  0.0288  0.6262 -0.4114
   91MOL   H31334693   4.036   3.249   3.155 -1.6607 -0.9154  1.7251
   91MOL   H31434694   4.112   3.237   2.933  0.8259  0.5235 -0.2776
   91MOL   H31534695   4.193   3.087   2.960  0.7214  1.8490  0.0716
   91MOL   H31634696   3.965   3.116   2.814 -0.8150  0.9041  0.6997
   91MOL   H31734697   4.022   2.964   2.889  0.1654 -0.1866  0.2592
   91MOL   H31834698   3.804   3.152   2.997  0.9518 -0.1162 -1.4464
   91MOL   H31934699   3.761   2.904   2.890  0.0654 -1.9741  0.6875
   91MOL   H32034700   3.829   2.849   3.030 -1.4600 -1.4252 -0.3748
   91MOL   H32134701   3.580   3.032   3.020 -0.4879 -1.0300 -0.1480
   91MOL   H32234702   3.672   2.995   3.164 -1.1346 -0.2813  0.5564
   91MOL   H32334703   3.939   2.969   3.192 -1.1042 -0.2253 -1.7414
   91MOL   H32434704   3.852   3.110   3.218 -1.6348 -1.5901 -0.6188
   91MOL   C32534705   3.560   2.835   3.091  0.2873  0.5226  0.3268
   91MOL   C32634706   3.495   2.771   2.964  0.1734 -0.0325 -0.3557
   91MOL   C32734707   3.442   2.639   3.014 -0.6124 -0.2600  0.7180
   91MOL   C32834708   3.567   2.588   3.089  0.1030  0.8902  0.5444
   91MOL   C32934709   3.550   2.468   3.181  0.0845  0.6095  0.7843
   91MOL   C33034710   3.457   2.363   3.119  0.0284  0.2931  0.2229
   91MOL   C33134711   3.620   2.713   3.161 -0.5983  0.5114 -0.4653
   91MOL   H33234712   3.472   2.869   3.145 -0.0905  0.5003 -0.2652
   91MOL   H33334713   3.570   2.766   2.885 -1.1541  0.1035 -1.6439
   91MOL   H33434714   3.413   2.825   2.916 -0.6953 -1.2519 -0.2585
   91MOL   H33534715   3.353   2.653   3.075 -2.6651  0.3951 -2.3133
   91MOL   H33634716   3.415   2.570   2.935  2.0657  0.5635 -1.0068
   91MOL   H33734717   3.635   2.557   3.009  0.4652 -3.7961  2.4948
   91MOL   H33834718   3.647   2.423   3.200  1.8455  3.2459 -1.5310
   91MOL   H33934719   3.515   2.490   3.282 -0.8281 -1.3738  0.9318
   91MOL   H34034720   3.358   2.409   3.119  0.3930  1.0837 -0.6364
   91MOL   H34134721   3.481   2.345   3.015 -0.3995 -1.4183  0.4107
   91MOL   H34234722   3.728   2.708   3.145 -0.8454 -1.1487 -1.7163
   91MOL   H34334723   3.604   2.717   3.269 -1.2688 -1.2144 -0.5008
   91MOL   C34434724   3.460   2.229   3.198  0.5799  0.4131  0.8294
   91MOL   C34534725   3.387   2.113   3.120 -0.5160  0.5556 -0.4167
   91MOL   C34634726   3.366   2.006   3.226  0.0134 -0.3724 -0.3589
   91MOL   C34734727   3.331   2.084   3.349 -0.9686  0.1044  0.6409
   91MOL   C34834728   3.365   2.015   3.484  0.8257 -0.1265 -0.1801
   91MOL   C34934729   3.309   2.076   3.611  0.1106  0.1679 -0.3541
   91MOL   C35034730   3.391   2.221   3.338  0.2831  0.2275 -0.1438
   91MOL   H35134731   3.560   2.187   3.193  1.0514  1.2047  3.0264
   91MOL   H35234732   3.438   2.088   3.026 -1.3302 -2.2871 -0.1393
   91MOL   H35334733   3.288   2.145   3.087 -1.8802 -1.5137  1.6248
   91MOL   H35434734   3.275   1.952   3.199  0.4572 -1.4820  0.3350
   91MOL   H35534735   3.443   1.930   3.216 -0.8773 -1.0519 -2.1067
   91MOL   H35634736   3.224   2.103   3.340 -1.1619 -1.4548 -0.4531
   91MOL   H35734737   3.338   1.909   3.483  0.1325  0.0016  1.6586
   91MOL   H35834738   3.473   2.016   3.498  0.7589 -2.3363  0.7953
   91MOL   H35934739   3.201   2.069   3.601  0.1563 -0.0171 -0.7600
   91MOL   H36034740   3.318   2.184   3.622  2.8041 -0.1036  0.4397
   91MOL   H36134741   3.318   2.299   3.359 -0.2287 -0.5739  1.0589
   91MOL   H36234742   3.468   2.225   3.415 -0.7076 -1.5813  0.9612
   91MOL   C36334743   3.364   2.018   3.744  0.9047  0.3307  0.8976
   91MOL   C36434744   3.332   1.862   3.761 -0.3494 -0.4690 -0.2948
   91MOL   C36534745   3.290   1.838   3.906  0.1638  0.3506  1.1116
   91MOL   C36634746   3.330   1.973   3.972  0.4826  0.2441 -0.4767
   91MOL   C36734747   3.253   1.992   4.103  0.0879 -0.5159 -0.2828
   91MOL   C36834748   3.260   2.124   4.173  0.0167 -0.0595 -0.7827
   91MOL   C36934749   3.301   2.077   3.867  0.6375 -0.4700 -0.3470
   91MOL   H37034750   3.471   2.033   3.757  1.6177 -2.1624 -1.5441
   91MOL   H37134751   3.263   1.831   3.683  1.2661 -0.0075 -1.9307
   91MOL   H37234752   3.420   1.800   3.740 -1.2046 -2.7888  2.5303
   91MOL   H37334753   3.181   1.833   3.910  0.2592 -2.2119  0.8523
   91MOL   H37434754   3.321   1.740   3.943 -0.5709 -0.6381 -0.8470
   91MOL   H37534755   3.434   1.970   4.003  0.2621 -0.8001  0.1979
   91MOL   H37634756   3.146   1.979   4.086  0.2991 -0.7744 -1.4673
   91MOL   H37734757   3.274   1.915   4.177  0.8036 -0.7489 -0.7231
   91MOL   H37834758   3.227   2.212   4.117  2.3778  0.4827 -1.3994
   91MOL   H37934759   3.358   2.159   4.205 -0.8162 -0.5019  2.3414
   91MOL   H38034760   3.198   2.088   3.835  0.2437 -1.4487  0.5573
   91MOL   H38134761   3.344   2.174   3.894  0.8828 -0.9662  1.1146
   91MOL   H38234762   3.199   2.114   4.262 -1.9114 -0.4740 -2.1201
   92MOL     C134763   5.971   0.900   4.364 -0.2245 -0.2210 -0.5523
   92MOL     C234764   5.860   1.006   4.339  0.5962  0.1825 -0.3414
   92MOL     C334765   5.769   1.007   4.463 -0.2521  0.1899  0.2216
   92MOL     C434766   5.826   0.905   4.562  0.1256  0.3433  0.5473
   92MOL     C534767   5.714   0.837   4.647  0.1701  0.6222 -0.7452
   92MOL     C634768   5.768   0.724   4.741  0.0737  1.1241 -0.2893
   92MOL     C734769   5.916   0.810   4.474  0.5644  0.4074 -0.1568
   92MOL     H834770   5.997   0.844   4.274 -0.4865  1.3754 -1.6293
   92MOL     H934771   5.797   0.989   4.252  0.3798  0.4567 -0.2363
   92MOL    H1034772   5.900   1.106   4.321 -0.3957  1.1577  2.6251
   92MOL    H1134773   5.784   1.095   4.524  1.8646  0.4731 -0.6764
   92MOL    H1234774   5.665   0.985   4.438  0.4659 -2.9773 -0.2625
   92MOL    H1334775   5.898   0.951   4.630 -0.0045  0.4611  0.6044
   92MOL    H1434776   5.647   0.908   4.695  1.1207  1.0092  0.0214
   92MOL    H1534777   5.648   0.784   4.579 -1.6923  2.1366 -0.1297
   92MOL    H1634778   5.805   0.641   4.679 -1.5515 -0.8030  1.2507
   92MOL    H1734779   5.861   0.756   4.788  0.4328 -1.4372  0.8713
   92MOL    H1834780   6.000   0.773   4.533  3.6339  2.9430 -2.7394
   92MOL    H1934781   5.864   0.729   4.422  1.0096  0.3249 -0.4794
   92MOL    H2034782   6.061   0.946   4.404 -0.4251 -0.0565 -0.2905
   92MOL    C2134783   5.675   0.667   4.855  0.0878  0.4970  0.4340
   92MOL    C2234784   5.755   0.579   4.953  0.2456 -0.0854 -0.3690
   92MOL    C2334785   5.782   0.678   5.064 -0.3120 -0.2819  0.2735
   92MOL    C2434786   5.653   0.750   5.084  0.0573  1.0600  0.3715
   92MOL    C2534787   5.668   0.879   5.167  0.2983 -0.1377  0.0062
   92MOL    C2634788   5.548   0.973   5.213 -0.9414  0.0317  0.2456
   92MOL    C2734789   5.612   0.778   4.944 -0.7472  0.6556 -0.0554
   92MOL    H2834790   5.602   0.604   4.804  0.1231  1.1020 -0.3881
   92MOL    H2934791   5.704   0.489   4.988  1.2739  0.6212  3.1114
   92MOL    H3034792   5.856   0.554   4.917  1.1149  1.0974  1.2064
   92MOL    H3134793   5.801   0.618   5.153  0.3098  0.8072  0.8859
   92MOL    H3234794   5.863   0.750   5.050 -1.8041  1.4949  0.7423
   92MOL    H3334795   5.576   0.697   5.140  0.8578 -0.3950  0.1035
   92MOL    H3434796   5.739   0.939   5.109 -2.3861  2.7833 -0.3710
   92MOL    H3534797   5.728   0.845   5.251 -0.8116 -0.3211  0.7295
   92MOL    H3634798   5.476   0.919   5.273  1.6197 -2.8638  0.8746
   92MOL    H3734799   5.497   1.015   5.126 -0.9717 -0.6524 -0.0689
   92MOL    H3834800   5.504   0.779   4.932 -1.0512 -1.6029  2.0953
   92MOL    H3934801   5.646   0.873   4.903  0.4679 -0.8422 -2.6991
   92MOL    C4034802   5.597   1.084   5.306  0.4453  0.6654 -0.5851
   92MOL    C4134803   5.702   1.173   5.246 -0.7189 -0.1979 -0.9846
   92MOL    C4234804   5.688   1.312   5.313 -0.0427  0.2920 -0.8726
   92MOL    C4334805   5.541   1.321   5.344  0.7806 -0.0723 -0.1459
   92MOL    C4434806   5.505   1.412   5.469 -0.6860  0.0689  0.7611
   92MOL    C4534807   5.577   1.549   5.474  0.4678  0.3347 -0.0265
   92MOL    C4634808   5.481   1.176   5.351 -1.0072 -0.3275 -0.0220
   92MOL    H4734809   5.643   1.043   5.395  0.9747 -2.2117 -2.1289
   92MOL    H4834810   5.690   1.188   5.138 -0.6750  0.9668 -0.8286
   92MOL    H4934811   5.807   1.145   5.254 -0.8575 -1.2593 -2.4844
   92MOL    H5034812   5.751   1.319   5.401 -1.5393  0.8316  0.1696
   92MOL    H5134813   5.717   1.398   5.252 -0.4344 -0.3538 -1.9960
   92MOL    H5234814   5.493   1.375   5.262  0.9650  1.4120  0.6892
   92MOL    H5334815   5.397   1.420   5.466 -0.4792  3.4215  0.0085
   92MOL    H5434816   5.547   1.367   5.559  0.0296 -0.2832  0.2622
   92MOL    H5534817   5.581   1.592   5.374  1.5014  0.7521  0.1805
   92MOL    H5634818   5.683   1.531   5.493  0.3346  0.6560  1.0236
   92MOL    H5734819   5.448   1.156   5.453 -1.9572  1.6248  0.0751
   92MOL    H5834820   5.392   1.169   5.288 -0.4046  1.7590 -1.1445
   92MOL    C5934821   5.513   1.645   5.571 -0.4705 -0.0406  0.0650
   92MOL    C6034822   5.597   1.776   5.572  0.2595  0.2502  0.2619
   92MOL    C6134823   5.504   1.868   5.650 -0.4110 -0.3469 -0.2434
   92MOL    C6234824   5.362   1.823   5.627  0.7535 -0.7442 -0.0146
   92MOL    C6334825   5.276   1.846   5.744  0.1994 -0.0283 -0.0672
   92MOL    C6434826   5.321   1.756   5.866  0.0790 -0.5192  0.6452
   92MOL    C6534827   5.368   1.680   5.562 -0.0347 -0.2288  0.0541
   92MOL    H6634828   5.520   1.599   5.669 -0.9628 -1.3168 -0.4888
   92MOL    H6734829   5.687   1.770   5.634  0.0306  1.0600  0.6660
   92MOL    H6834830   5.631   1.809   5.473 -0.4119 -0.1720 -0.1135
   92MOL    H6934831   5.526   1.883   5.755  1.1246 -0.9618 -0.4645
   92MOL    H7034832   5.524   1.970   5.618 -0.3710  0.1025  1.2268
   92MOL    H7134833   5.318   1.885   5.549  0.7116 -0.9135 -0.1270
   92MOL    H7234834   5.179   1.813   5.708 -0.0161 -0.6320  1.0525
   92MOL    H7334835   5.271   1.952   5.768  0.7290 -0.0120 -0.0133
   92MOL    H7434836   5.304   1.652   5.842 -4.5728  0.0018  1.3679
   92MOL    H7534837   5.427   1.757   5.895  0.6458 -0.2437 -1.3388
   92MOL    H7634838   5.305   1.610   5.617 -1.2300  2.8567  2.7193
   92MOL    H7734839   5.336   1.683   5.458  0.4954  0.1867 -0.1002
   92MOL    C7834840   5.247   1.792   5.995 -0.0174 -0.3474  0.4079
   92MOL    C7934841   5.096   1.778   5.987 -0.3562  0.2590 -0.2220
   92MOL    C8034842   5.050   1.717   6.120 -0.0017  0.5741 -0.2122
   92MOL    C8134843   5.174   1.707   6.204  0.4012 -0.5276 -0.2457
   92MOL    C8234844   5.182   1.593   6.307 -0.4529 -0.1475 -0.9384
   92MOL    C8334845   5.315   1.577   6.389  0.5396 -0.4212  0.5124
   92MOL    C8434846   5.286   1.702   6.108  0.7047  0.0496 -0.5156
   92MOL    H8534847   5.267   1.895   6.024  0.3872 -0.7898  1.7236
   92MOL    H8634848   5.047   1.875   5.975  1.8185  1.6783  1.7989
   92MOL    H8734849   5.064   1.725   5.897 -0.5166  1.1047 -0.6719
   92MOL    H8834850   4.966   1.776   6.156 -0.2372  1.0397 -1.4929
   92MOL    H8934851   5.007   1.617   6.111  1.6087 -0.1379 -0.2827
   92MOL    H9034852   5.197   1.803   6.251  1.5188 -1.5420  1.3507
   92MOL    H9134853   5.153   1.501   6.256 -2.0190  1.7823 -3.6427
   92MOL    H9234854   5.107   1.615   6.382  1.5554 -2.2975  1.8138
   92MOL    H9334855   5.401   1.564   6.323 -0.6410 -0.5462 -1.0159
   92MOL    H9434856   5.305   1.497   6.463  0.7304  0.2577  1.2791
   92MOL    H9534857   5.299   1.601   6.068  1.0079 -0.2292  0.2802
   92MOL    H9634858   5.379   1.729   6.159 -0.1391 -0.5286  1.3821
   92MOL    C9734859   5.360   1.695   6.482  0.2431 -0.3262 -0.3253
   92MOL    C9834860   5.487   1.672   6.563  0.7941 -0.0457  0.6700
   92MOL    C9934861   5.477   1.754   6.695  0.0156 -0.1375  0.5163
   92MOL   C10034862   5.332   1.803   6.708  0.1669  0.5007 -0.2736
   92MOL   C10134863   5.278   1.807   6.850 -0.8208  0.0491  0.1156
   92MOL   C10234864   5.212   1.945   6.890 -0.0550  0.7729 -0.3556
   92MOL   C10334865   5.255   1.726   6.596 -0.3726  0.1194  0.1122
   92MOL   H10434866   5.375   1.784   6.422  0.7536 -0.1986 -0.0036
   92MOL   H10534867   5.488   1.565   6.588 -0.3345  0.1761  1.7369
   92MOL   H10634868   5.572   1.712   6.510 -1.9955  1.0034 -3.2188
   92MOL   H10734869   5.516   1.698   6.780  1.6478  0.4314  0.1768
   92MOL   H10834870   5.540   1.843   6.688  0.9238 -0.4844  3.3734
   92MOL   H10934871   5.324   1.902   6.662  0.3680  0.9638  0.6749
   92MOL   H11034872   5.207   1.727   6.868 -1.8086  1.3700  2.3014
   92MOL   H11134873   5.363   1.801   6.918 -0.6133 -1.1807 -0.2460
   92MOL   H11234874   5.229   1.966   6.995 -0.5826 -1.0567  0.1187
   92MOL   H11334875   5.262   2.024   6.834 -0.9800  0.3588 -1.8017
   92MOL   H11434876   5.212   1.634   6.637  1.6147 -1.1492 -0.5966
   92MOL   H11534877   5.177   1.790   6.553  1.1169  1.3256 -0.8265
   92MOL   C11634878   5.063   1.951   6.882  0.4783  0.6870 -0.0059
   92MOL   C11734879   5.015   2.084   6.938  0.2881 -0.2111 -0.0536
   92MOL   C11834880   4.874   2.094   6.882 -0.0078  0.4556 -0.2402
   92MOL   C11934881   4.871   2.011   6.757 -0.6032  0.9541 -0.2431
   92MOL   C12034882   4.841   2.090   6.626 -0.1023  0.0875  0.1114
   92MOL   C12134883   4.847   2.007   6.500 -0.3702  0.0931  0.4511
   92MOL   C12234884   5.005   1.943   6.746 -0.0376  0.1977  0.1307
   92MOL   H12334885   5.022   1.877   6.951  1.9143 -1.6105 -1.5265
   92MOL   H12434886   5.073   2.160   6.884 -0.9522 -0.1216 -1.2776
   92MOL   H12534887   5.026   2.114   7.042 -0.4775 -0.3572  0.0684
   92MOL   H12634888   4.845   2.195   6.853 -1.0569 -0.0714 -1.0871
   92MOL   H12734889   4.806   2.062   6.961 -0.6819  3.6949  0.5577
   92MOL   H12834890   4.801   1.927   6.755 -2.4371  2.4507  0.2940
   92MOL   H12934891   4.909   2.172   6.602 -1.0234  1.0452  0.6954
   92MOL   H13034892   4.736   2.119   6.632 -0.5968 -1.8507  0.9972
   92MOL   H13134893   4.789   1.915   6.504 -0.5763  0.1083 -1.7968
   92MOL   H13234894   4.952   1.988   6.481 -0.7042 -1.3780  0.0164
   92MOL   H13334895   4.999   1.841   6.710  2.7860  0.8518 -2.4209
   92MOL   H13434896   5.065   2.001   6.676 -0.2293  0.8663  0.5149
   92MOL   C13534897   4.807   2.081   6.372  0.1872  0.2310  0.4408
   92MOL   C13634898   4.846   2.013   6.245 -0.1466 -0.7761  0.7390
   92MOL   C13734899   4.731   2.032   6.139  0.1478  0.8559  0.0040
   92MOL   C13834900   4.599   2.032   6.227  0.1209  0.0997 -0.4799
   92MOL   C13934901   4.477   2.104   6.171  0.3048  0.1840 -0.5684
   92MOL   C14034902   4.419   2.041   6.045 -0.0637 -0.4831 -0.5734
   92MOL   C14134903   4.653   2.095   6.361 -0.0943  0.7696 -0.6201
   92MOL   H14234904   4.851   2.181   6.376  0.6498 -0.0286  2.1582
   92MOL   H14334905   4.943   2.054   6.215  0.1346 -1.1361  1.1501
   92MOL   H14434906   4.867   1.910   6.275 -0.7660 -0.3980  2.5099
   92MOL   H14534907   4.747   2.131   6.095  1.7583  0.1661 -1.0176
   92MOL   H14634908   4.727   1.954   6.063 -1.5184 -0.2972  1.2642
   92MOL   H14734909   4.576   1.928   6.248  1.2068  0.2753  1.7719
   92MOL   H14834910   4.511   2.205   6.152  4.1368 -0.9858 -0.4151
   92MOL   H14934911   4.401   2.125   6.246  2.0049  1.4317  0.8608
   92MOL   H15034912   4.506   2.016   5.984  1.3787  2.4168  0.1817
   92MOL   H15134913   4.377   1.946   6.077 -1.6480  0.7312  1.0260
   92MOL   H15234914   4.604   2.047   6.446 -0.7939 -0.4654 -1.6996
   92MOL   H15334915   4.636   2.202   6.365 -1.4533  0.5892 -1.1235
   92MOL   C15434916   4.313   2.119   5.954  0.1678 -0.2139 -0.0275
   92MOL   C15534917   4.232   2.027   5.855 -0.3186 -0.0966  0.2488
   92MOL   C15634918   4.312   2.030   5.726 -0.1691 -0.2316 -0.2550
   92MOL   C15734919   4.359   2.175   5.711 -0.3621  0.3387  0.0969
   92MOL   C15834920   4.488   2.185   5.630  0.1761 -0.0275  0.0490
   92MOL   C15934921   4.474   2.131   5.483 -0.1239 -0.0515 -0.2620
   92MOL   C16034922   4.371   2.217   5.857 -0.1009 -0.5322  0.1473
   92MOL   H16134923   4.238   2.154   6.026 -0.9067 -2.0268 -0.2379
   92MOL   H16234924   4.236   1.925   5.892  0.6705  0.9436  3.1733
   92MOL   H16334925   4.130   2.059   5.838  0.8073  1.7960 -3.3538
   92MOL   H16434926   4.379   1.944   5.725 -0.1424 -0.2225  0.4296
   92MOL   H16534927   4.243   2.002   5.646 -0.5689 -0.3833  0.1368
   92MOL   H16634928   4.275   2.229   5.666 -0.9692  0.3659  1.2472
   92MOL   H16734929   4.573   2.137   5.679 -1.1691 -0.8545  1.6101
   92MOL   H16834930   4.523   2.288   5.631  4.5819 -1.3294 -3.2327
   92MOL   H16934931   4.430   2.031   5.484  1.0490 -0.5789  1.0200
   92MOL   H17034932   4.395   2.192   5.439  1.1755  1.5061 -0.4832
   92MOL   H17134933   4.318   2.312   5.863  1.7872  0.6894 -1.8181
   92MOL   H17234934   4.471   2.253   5.883 -0.2028  0.9281 -1.4099
   92MOL   C17334935   4.605   2.145   5.394 -0.6559 -0.2644 -0.2620
   92MOL   C17434936   4.595   2.094   5.256  0.5178  0.6763 -0.3923
   92MOL   C17534937   4.611   2.213   5.164 -0.1581 -0.4226  0.1131
   92MOL   C17634938   4.699   2.305   5.249 -0.1539  0.0532 -0.4600
   92MOL   C17734939   4.711   2.447   5.191  0.3634 -0.3954  0.0400
   92MOL   C17834940   4.807   2.536   5.273  0.1023  0.6032 -0.0251
   92MOL   C17934941   4.651   2.293   5.388 -0.7753  0.4825 -0.1181
   92MOL   H18034942   4.689   2.096   5.442 -1.2636  0.6214  1.7576
   92MOL   H18134943   4.495   2.056   5.235  0.4704  0.1905  0.6970
   92MOL   H18234944   4.668   2.017   5.230  0.5843  0.7258 -0.3507
   92MOL   H18334945   4.673   2.188   5.078  1.6850 -0.5920  1.4611
   92MOL   H18434946   4.517   2.261   5.135  1.1896  2.3493  0.0815
   92MOL   H18534947   4.796   2.255   5.249  0.7069  1.7042 -0.8206
   92MOL   H18634948   4.611   2.491   5.198  1.7351  3.4610 -3.2304
   92MOL   H18734949   4.741   2.437   5.087  0.3819  2.5512 -0.2616
   92MOL   H18834950   4.902   2.484   5.266  0.8251  1.9914 -0.7575
   92MOL   H18934951   4.780   2.538   5.379  2.9084  0.4224  0.7188
   92MOL   H19034952   4.566   2.361   5.392 -1.4708 -0.2352 -2.0928
   92MOL   H19134953   4.726   2.318   5.462  0.4857 -1.9247 -0.5397
   92MOL   C19234954   4.822   2.687   5.217 -0.0659  0.2728 -0.0247
   92MOL   C19334955   4.940   2.758   5.291  0.5207  0.7937  0.4187
   92MOL   C19434956   4.898   2.904   5.278  0.1513 -0.5182 -0.6128
   92MOL   C19534957   4.746   2.910   5.299 -0.1932  0.0272 -0.4062
   92MOL   C19634958   4.675   3.021   5.226 -0.2035 -0.2291 -0.7150
   92MOL   C19734959   4.718   3.157   5.295 -0.1730  0.2657  0.0640
   92MOL   C19834960   4.697   2.774   5.250  0.8171 -0.0979 -0.2621
   92MOL   H19934961   4.846   2.690   5.111 -1.4508  0.4487 -0.3389
   92MOL   H20034962   4.946   2.727   5.395 -1.2284  0.6440  0.4931
   92MOL   H20134963   5.038   2.736   5.248  0.6253 -0.4903  1.3017
   92MOL   H20234964   4.909   2.948   5.178  2.4140  0.0406 -0.1515
   92MOL   H20334965   4.939   2.969   5.355 -0.7344 -0.8239  0.1195
   92MOL   H20434966   4.722   2.919   5.405  0.8620 -1.9932  0.0188
   92MOL   H20534967   4.568   3.015   5.242  0.1176 -1.3987  1.1596
   92MOL   H20634968   4.690   3.016   5.118 -0.9717  1.0214 -0.8874
   92MOL   H20734969   4.824   3.182   5.295  0.2211 -1.3357  0.0883
   92MOL   H20834970   4.689   3.152   5.400  3.8086  0.6491  1.2729
   92MOL   H20934971   4.635   2.789   5.161 -0.7964  1.1732  1.0522
   92MOL   H21034972   4.628   2.740   5.327  1.6659  1.4299  1.2121
   92MOL   C21134973   4.650   3.277   5.230  0.5153 -0.7805 -0.1920
   92MOL   C21234974   4.713   3.415   5.278 -0.7716  0.0153 -0.5548
   92MOL   C21334975   4.603   3.519   5.271  0.2422  0.0826  0.0121
   92MOL   C21434976   4.472   3.438   5.248 -0.0676 -0.1244 -0.1764
   92MOL   C21534977   4.346   3.493   5.325  0.0473 -0.1723  0.1929
   92MOL   C21634978   4.307   3.636   5.275  0.0632  0.7217  0.0828
   92MOL   C21734979   4.506   3.295   5.271  0.5634  0.3265  0.0422
   92MOL   H21834980   4.652   3.274   5.121  1.7800  1.0271 -0.2459
   92MOL   H21934981   4.741   3.408   5.383 -0.4446  0.0712 -0.6383
   92MOL   H22034982   4.804   3.461   5.240 -1.1492  0.6378 -0.7179
   92MOL   H22134983   4.598   3.562   5.371  1.5479  1.7646 -0.6236
   92MOL   H22234984   4.623   3.606   5.208  2.8803 -0.6711 -0.2505
   92MOL   H22334985   4.452   3.436   5.141 -0.1864 -0.4003 -0.1494
   92MOL   H22434986   4.363   3.506   5.432  0.7114  0.1301  0.0538
   92MOL   H22534987   4.251   3.442   5.307 -1.0447  1.9075 -0.1641
   92MOL   H22634988   4.238   3.678   5.348 -0.2024  1.1003 -0.3821
   92MOL   H22734989   4.398   3.696   5.276  0.4690  0.1150 -0.2252
   92MOL   H22834990   4.436   3.227   5.222  1.1146  1.7523 -2.8247
   92MOL   H22934991   4.499   3.285   5.379  0.1130  0.7185  0.0515
   92MOL   C23034992   4.231   3.647   5.140 -0.0677 -0.5768 -0.1120
   92MOL   C23134993   4.312   3.631   5.017  0.2980 -0.6295 -0.2140
   92MOL   C23234994   4.223   3.704   4.917 -0.0297  0.0829 -0.0686
   92MOL   C23334995   4.183   3.836   4.983 -0.3332  0.3664 -0.2501
   92MOL   C23434996   4.066   3.912   4.916  0.4252  0.9050  0.3346
   92MOL   C23534997   4.089   3.964   4.775 -0.1668  0.0414  0.2588
   92MOL   C23634998   4.158   3.784   5.125 -0.5089  0.4161  0.1755
   92MOL   H23734999   4.147   3.578   5.140 -1.8314  1.5196 -0.9321
   92MOL   H23835000   4.399   3.696   5.030 -1.1175  1.1894  0.3697
   92MOL   H23935001   4.356   3.535   4.992 -1.4984 -0.9866 -2.1255
   92MOL   H24035002   4.135   3.643   4.893  1.0506 -1.5752  0.0728
   92MOL   H24135003   4.275   3.722   4.823  2.4396  0.6166  1.3780
   92MOL   H24235004   4.275   3.893   4.968 -0.2257  0.1746 -0.3255
   92MOL   H24335005   4.022   3.987   4.983 -0.0974 -1.6478  2.9440
   92MOL   H24435006   3.984   3.841   4.910  1.1430  0.1180 -0.2077
   92MOL   H24535007   4.125   4.066   4.787  2.1978 -0.7164 -0.1523
   92MOL   H24635008   4.164   3.899   4.729 -0.4373 -0.3260  0.3313
   92MOL   H24735009   4.050   3.782   5.135 -0.6765  0.7764 -1.3492
   92MOL   H24835010   4.192   3.863   5.191  0.2971 -0.1242  0.4135
   92MOL   C24935011   3.958   3.953   4.691  0.3740  0.2159 -0.6090
   92MOL   C25035012   3.841   4.048   4.727  0.5111 -0.4921 -0.1849
   92MOL   C25135013   3.860   4.182   4.664 -0.0146  0.0547  0.9937
   92MOL   C25235014   3.964   4.151   4.556  0.2188  0.1873 -0.4373
   92MOL   C25335015   3.928   4.195   4.421 -0.4514  0.4952  0.3313
   92MOL   C25435016   4.046   4.197   4.318 -0.8243  0.4351 -0.2464
   92MOL   C25535017   3.985   4.005   4.557 -0.2042  0.1373 -0.1833
   92MOL   H25635018   3.927   3.849   4.699  0.4054  0.1995 -0.6957
   92MOL   H25735019   3.749   4.013   4.679  0.3921 -0.9176  0.3486
   92MOL   H25835020   3.828   4.063   4.834 -1.3298 -1.5868 -0.2363
   92MOL   H25935021   3.896   4.258   4.733 -2.4635  1.4027  0.8256
   92MOL   H26035022   3.776   4.218   4.605  0.3351  2.2539  1.8000
   92MOL   H26135023   4.051   4.206   4.592  0.0484  0.5959 -0.6479
   92MOL   H26235024   3.879   4.292   4.417 -0.8192  0.2923 -0.2560
   92MOL   H26335025   3.844   4.135   4.383  0.7566 -0.9909 -0.0470
   92MOL   H26435026   4.123   4.123   4.338  1.3408  3.1057  1.7537
   92MOL   H26535027   4.106   4.287   4.334  0.8974 -0.4999 -1.2895
   92MOL   H26635028   4.090   3.982   4.541 -0.0408  1.3137 -0.8624
   92MOL   H26735029   3.919   3.955   4.486  0.7482 -1.7714  0.2189
   92MOL   C26835030   4.004   4.190   4.176  0.1213  0.4703 -0.0887
   92MOL   C26935031   3.933   4.059   4.137 -0.6750 -0.5969  0.0721
   92MOL   C27035032   3.942   4.049   3.984  0.6413  0.1123  0.3767
   92MOL   C27135033   4.055   4.150   3.942 -0.5006  0.3894 -0.1022
   92MOL   C27235034   4.154   4.084   3.850 -0.4647 -0.1463 -0.0243
   92MOL   C27335035   4.097   4.031   3.719 -0.4045 -0.0013 -0.2693
   92MOL   C27435036   4.117   4.185   4.074 -0.4122 -0.5344 -0.3374
   92MOL   H27535037   3.943   4.278   4.154  0.5750  0.7645 -0.1671
   92MOL   H27635038   3.976   3.971   4.183 -2.6414 -2.6823 -1.9376
   92MOL   H27735039   3.830   4.064   4.172 -0.2604  1.0514  1.1405
   92MOL   H27835040   3.961   3.946   3.955 -1.7643  0.6623 -3.5054
   92MOL   H27935041   3.855   4.083   3.928  0.7154  0.1975  0.3128
   92MOL   H28035042   4.016   4.237   3.889  0.3128  0.9163  0.1477
   92MOL   H28135043   4.195   4.004   3.911  2.0302  0.9616 -0.1668
   92MOL   H28235044   4.239   4.151   3.839 -0.9610  0.5952  0.6329
   92MOL   H28335045   4.029   3.952   3.750 -1.3452  0.7371 -0.4214
   92MOL   H28435046   4.034   4.106   3.670 -1.9030 -0.4956  0.8571
   92MOL   H28535047   4.190   4.106   4.090  0.8230  0.0573 -2.8154
   92MOL   H28635048   4.172   4.279   4.080  1.6309 -1.8147  2.2223
   92MOL   C28735049   4.209   3.978   3.622  0.0783 -0.2227  0.0956
   92MOL   C28835050   4.163   3.945   3.479 -0.8965 -0.1956  0.7461
   92MOL   C28935051   4.260   4.020   3.382 -1.1435  0.2827  0.0645
   92MOL   C29035052   4.382   4.050   3.468  0.0185  0.3619 -0.3711
   92MOL   C29135053   4.469   4.155   3.410 -0.5377 -0.5305 -0.2461
   92MOL   C29235054   4.571   4.214   3.501 -0.3484 -0.0089  0.3129
   92MOL   C29335055   4.314   4.090   3.597 -0.3879  0.0301 -0.1862
   92MOL   H29435056   4.266   3.903   3.677  1.6251  0.7319 -0.1590
   92MOL   H29535057   4.171   3.838   3.466  1.4133  0.0663 -0.1426
   92MOL   H29635058   4.060   3.973   3.457 -1.2966 -0.2417  2.4308
   92MOL   H29735059   4.203   4.107   3.351  2.1211  1.6693 -2.3019
   92MOL   H29835060   4.282   3.954   3.298  2.4956 -2.6357  3.1073
   92MOL   H29935061   4.436   3.957   3.485  1.2258  0.6100 -2.6458
   92MOL   H30035062   4.412   4.243   3.382 -0.4521 -0.4444 -0.1476
   92MOL   H30135063   4.505   4.116   3.315  0.4609 -1.9721  0.6989
   92MOL   H30235064   4.619   4.126   3.544 -4.7084 -3.8161 -2.2111
   92MOL   H30335065   4.529   4.263   3.588  1.4034  1.6327  0.2761
   92MOL   H30435066   4.263   4.184   3.576 -0.5785  0.0723  0.4540
   92MOL   H30535067   4.382   4.116   3.679  0.0825 -1.3606 -0.1275
   92MOL   C30635068   4.665   4.312   3.443 -0.1158  0.1657  0.2886
   92MOL   C30735069   4.755   4.392   3.545 -0.4652 -0.4419  0.0014
   92MOL   C30835070   4.862   4.460   3.462 -0.2038 -0.2193 -0.0868
   92MOL   C30935071   4.866   4.391   3.324  0.7221  0.2642 -0.2197
   92MOL   C31035072   5.002   4.351   3.262 -0.5014 -0.2550  0.2604
   92MOL   C31135073   5.099   4.468   3.242  0.6554 -0.2050 -0.9365
   92MOL   C31235074   4.767   4.269   3.339 -0.5474 -0.3661 -0.1761
   92MOL   H31335075   4.614   4.387   3.383 -0.0689 -1.2468 -1.5594
   92MOL   H31435076   4.689   4.466   3.589 -3.3976 -1.2871 -2.8239
   92MOL   H31535077   4.806   4.331   3.620 -1.7350 -2.5731 -0.8244
   92MOL   H31635078   4.830   4.563   3.450 -1.4495 -0.5930 -0.0476
   92MOL   H31735079   4.957   4.466   3.514 -0.7891  0.0567  0.9562
   92MOL   H31835080   4.812   4.462   3.262  0.2594 -0.7584 -0.9910
   92MOL   H31935081   5.047   4.269   3.318 -0.5719  1.1186  2.3795
   92MOL   H32035082   4.979   4.308   3.164 -2.2565  0.9135  0.1442
   92MOL   H32135083   5.121   4.523   3.333 -0.6025  0.5549 -1.0799
   92MOL   H32235084   5.058   4.543   3.175 -1.0147 -1.4890 -1.3955
   92MOL   H32335085   4.818   4.177   3.370  0.8201  0.9315  1.5494
   92MOL   H32435086   4.719   4.246   3.244 -1.7360 -1.4309  0.6705
   92MOL   C32535087   5.227   4.425   3.176 -0.4113 -0.4317  0.0769
   92MOL   C32635088   5.302   4.539   3.114  1.6039 -0.6459 -0.0901
   92MOL   C32735089   5.442   4.500   3.094 -0.1308  0.1155  0.0808
   92MOL   C32835090   5.450   4.368   3.173 -0.4417 -0.1201 -0.1990
   92MOL   C32935091   5.446   4.252   3.072  0.1676 -0.3509  0.4100
   92MOL   C33035092   5.492   4.125   3.143  0.6981  0.3116 -0.3052
   92MOL   C33135093   5.331   4.364   3.268  0.3430  0.2317 -0.1341
   92MOL   H33235094   5.200   4.358   3.095  0.4244 -0.0735 -0.5005
   92MOL   H33335095   5.306   4.627   3.178 -0.1838 -2.8159  3.1947
   92MOL   H33435096   5.264   4.580   3.021  0.7428  1.5640  1.1994
   92MOL   H33535097   5.485   4.512   2.995 -0.2013  0.7478  0.1261
   92MOL   H33635098   5.508   4.557   3.159 -0.4043 -1.9628  2.2559
   92MOL   H33735099   5.542   4.367   3.233 -1.5295 -1.8186  1.5331
   92MOL   H33835100   5.349   4.241   3.025  0.6182 -1.7691 -0.2230
   92MOL   H33935101   5.506   4.270   2.982 -2.1349  0.1178 -1.0566
   92MOL   H34035102   5.601   4.123   3.147  0.6804 -1.7014 -0.6108
   92MOL   H34135103   5.464   4.129   3.248  1.4253  0.3173 -0.1032
   92MOL   H34235104   5.355   4.429   3.352 -0.7400 -0.9056  1.0725
   92MOL   H34335105   5.302   4.264   3.301  0.3790  0.7062  1.3452
   92MOL   C34435106   5.435   3.992   3.095 -0.1881  1.0215 -0.0930
   92MOL   C34535107   5.286   3.981   3.108 -0.7208 -0.3705  0.2313
   92MOL   C34635108   5.257   3.832   3.125 -1.2659 -0.8264 -0.8246
   92MOL   C34735109   5.373   3.784   3.216 -0.1571  0.2212 -0.3632
   92MOL   C34835110   5.397   3.633   3.231 -0.1037 -0.5682  0.0544
   92MOL   C34935111   5.314   3.559   3.328 -0.1277  0.3825  0.9286
   92MOL   C35035112   5.492   3.871   3.172  0.2384  0.4457  0.1153
   92MOL   H35135113   5.468   3.975   2.992  1.3605  0.6882  0.4362
   92MOL   H35235114   5.234   4.025   3.023  0.5138  0.9263  0.1362
   92MOL   H35335115   5.246   4.033   3.195 -1.8281  0.0767 -0.5220
   92MOL   H35435116   5.157   3.813   3.166 -0.1217 -0.6926  2.1215
   92MOL   H35535117   5.276   3.780   3.031  0.3404  2.8746 -2.6566
   92MOL   H35635118   5.350   3.818   3.317  0.2448 -1.5010  0.3143
   92MOL   H35735119   5.393   3.581   3.136 -1.7682  0.3746 -0.4100
   92MOL   H35835120   5.499   3.641   3.270  0.1944 -0.6105 -0.6937
   92MOL   H35935121   5.230   3.524   3.269  0.4917  0.1075  0.2024
   92MOL   H36035122   5.266   3.622   3.402 -3.5128 -1.9561  0.8686
   92MOL   H36135123   5.561   3.904   3.250  1.4474  1.0684 -1.1897
   92MOL   H36235124   5.541   3.806   3.100  1.4732  0.4643  0.9217
   92MOL   C36335125   5.396   3.450   3.391 -0.1854 -0.0153 -0.6117
   92MOL   C36435126   5.312   3.342   3.459  0.0374 -0.4482  0.1710
   92MOL   C36535127   5.401   3.279   3.560 -0.4152 -0.1800 -0.5232
   92MOL   C36635128   5.529   3.358   3.576  0.4292 -0.0522  0.6527
   92MOL   C36735129   5.575   3.363   3.727 -0.5074  0.0062  0.6189
   92MOL   C36835130   5.694   3.463   3.737 -0.1411 -0.1746 -0.3610
   92MOL   C36935131   5.490   3.487   3.508 -0.3359  0.4164 -0.3408
   92MOL   H37035132   5.450   3.403   3.309  1.4087  0.4254  0.1756
   92MOL   H37135133   5.225   3.380   3.513 -0.1578  2.9176 -2.3553
   92MOL   H37235134   5.288   3.259   3.393  0.4117  1.6831 -2.7677
   92MOL   H37335135   5.350   3.294   3.655  1.4219  1.7845  0.1896
   92MOL   H37435136   5.425   3.175   3.541  1.7691  0.4613 -1.3651
   92MOL   H37535137   5.609   3.323   3.510 -0.7278 -0.1910 -0.6936
   92MOL   H37635138   5.488   3.390   3.786 -1.7638 -0.2711 -1.0749
   92MOL   H37735139   5.598   3.262   3.760  3.8249  0.2968 -1.2043
   92MOL   H37835140   5.779   3.435   3.676 -1.5770 -2.8633 -1.2179
   92MOL   H37935141   5.728   3.469   3.841 -0.9181  1.0664 -0.1698
   92MOL   H38035142   5.445   3.544   3.590  0.4395  2.0205 -1.0023
   92MOL   H38135143   5.575   3.544   3.472 -0.5010  0.0076 -1.3915
   92MOL   H38235144   5.661   3.566   3.718 -0.0408  0.2066  1.4529
   93MOL     C135145   4.910   0.031   5.684  1.2371 -0.7276 -0.2994
   93MOL     C235146   4.954   7.573   5.787 -0.2588  0.1359 -0.3739
   93MOL     C335147   5.101   7.590   5.819  0.1292  0.5603  0.4052
   93MOL     C435148   5.148   0.065   5.735 -0.1049  0.5205  0.3642
   93MOL     C535149   5.292   0.070   5.684 -0.7274  0.1157  0.3429
   93MOL     C635150   5.378   0.102   5.804 -0.5798  0.0519 -0.8006
   93MOL     C735151   5.047   0.070   5.623 -0.1129  0.0315 -0.3416
   93MOL     H835152   4.833   0.001   5.613 -1.4382 -1.3016  2.6731
   93MOL     H935153   4.933   7.478   5.737 -1.1493  0.5006 -0.7007
   93MOL    H1035154   4.883   7.591   5.868 -0.7819 -0.2045 -0.7550
   93MOL    H1135155   5.123   7.609   5.924 -0.2624  0.2676  0.5446
   93MOL    H1235156   5.162   7.504   5.793 -1.6081 -1.0285  1.4538
   93MOL    H1335157   5.140   0.155   5.796  0.4765  0.6698  0.2249
   93MOL    H1435158   5.316   7.628   5.625  1.0330  2.9904 -3.4896
   93MOL    H1535159   5.296   0.154   5.615 -0.7987 -1.3907 -1.5386
   93MOL    H1635160   5.353   0.206   5.824 -0.1342  0.2266 -1.1490
   93MOL    H1735161   5.353   0.040   5.891  0.5588  0.2675 -0.3043
   93MOL    H1835162   5.046   0.169   5.577 -2.2615 -0.6121 -1.7624
   93MOL    H1935163   5.065   7.644   5.544  0.3363  0.5828 -0.7566
   93MOL    H2035164   4.869   0.122   5.730  1.8379 -0.6985  0.1746
   93MOL    C2135165   5.530   0.108   5.787  0.0442  0.0633  0.4665
   93MOL    C2235166   5.578   0.219   5.700  0.1005  0.1132  0.1329
   93MOL    C2335167   5.704   0.265   5.776 -0.5294  0.1832  0.2777
   93MOL    C2435168   5.747   0.156   5.873 -0.0998 -0.5254 -0.0062
   93MOL    C2535169   5.845   0.196   5.992 -0.0462  0.3229  0.4887
   93MOL    C2635170   5.878   0.073   6.073 -0.8338  0.5910 -0.6899
   93MOL    C2735171   5.610   0.109   5.918 -0.1795 -0.0001 -0.8333
   93MOL    H2835172   5.556   0.016   5.735 -1.1648 -0.8650  1.4974
   93MOL    H2935173   5.612   0.171   5.608  0.6535  1.9500 -0.6443
   93MOL    H3035174   5.499   0.290   5.676  0.5477  0.8643  0.8679
   93MOL    H3135175   5.786   0.280   5.705  0.4047  0.2021  1.3418
   93MOL    H3235176   5.684   0.362   5.822 -2.0346 -0.5628  1.2347
   93MOL    H3335177   5.788   0.080   5.806 -1.1791  0.7823 -2.1879
   93MOL    H3435178   5.792   0.266   6.056 -0.4564  1.5883 -1.1880
   93MOL    H3535179   5.936   0.250   5.967 -0.4737  1.4282  1.2845
   93MOL    H3635180   5.914   7.646   6.002 -2.0767  1.0589 -1.8365
   93MOL    H3735181   5.789   0.031   6.121 -0.2625  1.5125  1.2238
   93MOL    H3835182   5.615   0.014   5.972  0.2573 -1.2735 -3.0036
   93MOL    H3935183   5.570   0.180   5.989  0.2028  2.0068 -2.5777
   93MOL    C4035184   5.968   0.095   6.195 -0.0323  0.3437  0.1506
   93MOL    C4135185   5.914   0.181   6.309 -0.0247 -0.2747 -0.7532
   93MOL    C4235186   5.992   0.128   6.432 -0.3903 -0.1155  0.2907
   93MOL    C4335187   5.966   7.624   6.410  0.5419  0.0188  0.2284
   93MOL    C4435188   6.060   7.545   6.494 -0.1593  1.0985  0.8278
   93MOL    C4535189   6.036   7.538   6.644  0.8139  0.3582  0.8217
   93MOL    C4635190   5.995   7.608   6.261 -0.6490 -0.3085  0.6182
   93MOL    H4735191   6.063   0.131   6.154 -0.7782  2.3316  0.1180
   93MOL    H4835192   5.806   0.176   6.320  0.1891 -2.0531  0.9544
   93MOL    H4935193   5.942   0.282   6.280  1.3054 -0.3534  0.1625
   93MOL    H5035194   6.098   0.155   6.428 -0.1192 -0.6860  3.0273
   93MOL    H5135195   5.954   0.162   6.528 -2.5881  1.9232 -1.2285
   93MOL    H5235196   5.861   7.605   6.430  0.0865  3.0127  0.8702
   93MOL    H5335197   6.047   7.443   6.457 -3.6204  0.9016  2.4155
   93MOL    H5435198   6.156   7.573   6.451  0.9438 -1.4558  1.5384
   93MOL    H5535199   5.971   7.452   6.662  1.1632 -0.5556 -1.9931
   93MOL    H5635200   6.003   7.633   6.687  3.6020  1.5535  0.4045
   93MOL    H5735201   6.102   7.584   6.252 -0.8175 -0.7464 -0.3723
   93MOL    H5835202   5.934   7.524   6.229 -0.1487 -0.9105  1.2249
   93MOL    C5935203   6.166   7.505   6.716 -0.2532  0.1401  0.5234
   93MOL    C6035204   6.258   7.627   6.737  0.4929  0.4608  0.2336
   93MOL    C6135205   6.289   7.642   6.877 -0.3894 -0.0608 -0.5112
   93MOL    C6235206   6.169   7.576   6.948 -0.7343 -0.7622  0.0168
   93MOL    C6335207   6.186   7.561   7.099  1.0447  0.3677  0.1876
   93MOL    C6435208   6.183   0.048   7.172  0.3234 -0.2375  0.1422
   93MOL    C6535209   6.145   7.453   6.861 -0.1721  0.7074  0.2949
   93MOL    H6635210   6.204   7.417   6.665 -1.4044 -0.1095  0.0871
   93MOL    H6735211   6.345   7.632   6.671 -0.3232  1.9995 -0.7393
   93MOL    H6835212   6.206   0.071   6.707 -1.3738 -0.4697  0.5474
   93MOL    H6935213   6.388   7.602   6.900  0.0517  1.1131 -0.3359
   93MOL    H7035214   6.295   0.101   6.902 -0.1110 -0.3279  0.5892
   93MOL    H7135215   6.084   7.643   6.937  0.5763  1.0471  0.7497
   93MOL    H7235216   6.283   7.510   7.107  0.8177  0.1982  2.0337
   93MOL    H7335217   6.120   7.488   7.145 -1.4309  0.4088 -3.0938
   93MOL    H7435218   6.207   0.020   7.275 -1.8074  0.3164  0.8141
   93MOL    H7535219   6.257   0.120   7.137 -0.9324  0.8967 -0.2120
   93MOL    H7635220   6.226   7.383   6.877  0.2931  1.7472  2.6070
   93MOL    H7735221   6.051   7.402   6.886  0.6850 -1.1319 -0.1320
   93MOL    C7835222   6.049   0.110   7.173 -0.2964 -1.3372 -0.8075
   93MOL    C7935223   5.932   0.023   7.201  0.3670 -0.3929  0.7168
   93MOL    C8035224   5.822   0.117   7.255  0.3955 -0.4923  0.0786
   93MOL    C8135225   5.890   0.247   7.280  0.6546  0.2653 -0.2466
   93MOL    C8235226   5.840   0.324   7.402 -0.5020  0.2325 -0.9782
   93MOL    C8335227   5.686   0.349   7.415  0.0343 -0.4369  0.0438
   93MOL    C8435228   6.041   0.222   7.277  0.0297  0.4829 -0.6451
   93MOL    H8535229   6.036   0.149   7.073  0.4357  1.0675 -0.0066
   93MOL    H8635230   5.891   7.624   7.111 -0.6414  3.1123 -0.7159
   93MOL    H8735231   5.954   7.595   7.277 -0.6880 -1.6449 -0.1842
   93MOL    H8835232   5.730   0.125   7.197  0.4476  1.8330  0.2658
   93MOL    H8935233   5.789   0.062   7.343  0.0840 -0.0615  0.2306
   93MOL    H9035234   5.872   0.314   7.196 -1.9289  1.3046  1.0733
   93MOL    H9135235   5.897   0.415   7.424 -1.8443  0.1328  3.3452
   93MOL    H9235236   5.871   0.253   7.479  1.2436  0.6198 -1.2947
   93MOL    H9335237   5.648   0.248   7.398 -0.0204 -0.3039 -0.6443
   93MOL    H9435238   5.663   0.417   7.333  2.3212 -0.7398 -0.8873
   93MOL    H9535239   6.073   0.166   7.364 -0.7357 -0.8142 -1.1814
   93MOL    H9635240   6.100   0.313   7.267  0.4268  0.3938  0.8138
   93MOL    C9735241   5.641   0.403   7.547  0.2246 -0.1702  0.6376
   93MOL    C9835242   5.676   0.322   0.020 -0.1482  0.8771 -0.3179
   93MOL    C9935243   5.572   0.366   0.133 -0.5251  0.1473  0.0848
   93MOL   C10035244   5.465   0.446   0.057 -0.1523 -0.0090  0.0304
   93MOL   C10135245   5.323   0.414   0.112  0.3540  0.3210 -0.0720
   93MOL   C10235246   5.214   0.492   0.035 -0.8060 -0.1444  0.1886
   93MOL   C10335247   5.494   0.421   7.556  0.1921  0.4741  0.0785
   93MOL   H10435248   5.672   0.506   7.567  0.1843 -0.1731  0.7130
   93MOL   H10535249   5.673   0.215   0.002  0.4872  0.9697 -1.0079
   93MOL   H10635250   5.773   0.353   0.058 -0.2356 -1.7709  2.2390
   93MOL   H10735251   5.530   0.275   0.177 -1.3481  0.8000  0.6799
   93MOL   H10835252   5.614   0.426   0.214 -1.8044  1.5992 -0.3156
   93MOL   H10935253   5.471   0.551   0.086  0.3460 -0.0035 -0.0927
   93MOL   H11035254   5.311   0.306   0.117 -3.0623  0.7356  1.7921
   93MOL   H11135255   5.322   0.446   0.216  2.1795  1.6933 -0.4379
   93MOL   H11235256   5.240   0.597   0.030 -1.3902 -0.0729 -1.6722
   93MOL   H11335257   5.198   0.460   7.579  0.1225  1.0631 -0.3369
   93MOL   H11435258   5.441   0.330   7.528  0.6128  0.3219 -0.2262
   93MOL   H11535259   5.464   0.501   7.488 -1.6082 -1.5125 -1.5310
   93MOL   C11635260   5.079   0.475   0.108  0.3702 -0.0862 -0.1827
   93MOL   C11735261   5.062   0.534   0.249 -0.2206  0.2448 -0.2193
   93MOL   C11835262   4.921   0.591   0.252 -0.2566 -0.1926 -0.0514
   93MOL   C11935263   4.841   0.517   0.146 -0.0947 -0.0693 -0.0846
   93MOL   C12035264   4.721   0.597   0.092  0.0881  0.2350 -0.1071
   93MOL   C12135265   4.606   0.622   0.192 -0.4046 -0.0401  0.3212
   93MOL   C12235266   4.947   0.512   0.034 -0.5952 -0.3391 -0.4555
   93MOL   H12335267   5.062   0.368   0.120 -0.1037  0.0946  0.7507
   93MOL   H12435268   5.142   0.607   0.259 -0.2353  0.3398 -0.7714
   93MOL   H12535269   5.085   0.456   0.321 -1.1620  0.5486  0.4176
   93MOL   H12635270   4.923   0.694   0.216 -0.4446 -0.1320  0.1106
   93MOL   H12735271   4.880   0.579   0.352 -0.5816  0.3893 -0.1152
   93MOL   H12835272   4.815   0.415   0.175  1.3035 -0.4083  0.0067
   93MOL   H12935273   4.671   0.549   0.007  1.7859  0.2360 -1.1398
   93MOL   H13035274   4.740   0.692   0.042 -0.6485 -0.4735 -1.8093
   93MOL   H13135275   4.644   0.644   0.292  1.0573  0.1518 -0.2774
   93MOL   H13235276   4.560   0.525   0.213  1.3046 -0.7619  0.7815
   93MOL   H13335277   4.924   0.446   7.598  1.8387  1.1148 -2.3365
   93MOL   H13435278   4.948   0.610   7.633 -1.3398 -0.8002 -1.4226
   93MOL   C13535279   4.499   0.722   0.164 -0.3939 -0.0175 -0.0106
   93MOL   C13635280   4.384   0.716   0.268  0.6065 -0.0455  0.2770
   93MOL   C13735281   4.327   0.865   0.263 -0.5424  0.3558  0.4198
   93MOL   C13835282   4.432   0.953   0.199  0.2878 -0.2483 -0.1859
   93MOL   C13935283   4.384   1.033   0.078 -0.0997  0.5511  0.5822
   93MOL   C14035284   4.303   1.159   0.118  0.2540  0.2731  0.6280
   93MOL   C14135285   4.552   0.866   0.173 -0.2554 -0.3825 -0.0684
   93MOL   H14235286   4.445   0.701   0.071  0.5793 -2.4414 -0.0650
   93MOL   H14335287   4.302   0.650   0.238 -1.3898  1.3007  2.5616
   93MOL   H14435288   4.417   0.678   0.365  1.4065 -2.6429 -0.9615
   93MOL   H14535289   4.234   0.865   0.206 -2.1470  0.4578  2.9442
   93MOL   H14635290   4.304   0.899   0.364 -0.5794 -1.8289  1.1771
   93MOL   H14735291   4.468   1.034   0.263  0.2022 -0.2685 -0.1119
   93MOL   H14835292   4.331   0.966   0.011  2.4759  0.7153 -1.7196
   93MOL   H14935293   4.473   1.069   0.026 -0.6534 -0.2665 -0.9670
   93MOL   H15035294   4.237   1.134   0.201  1.0665  3.4465  2.3125
   93MOL   H15135295   4.376   1.227   0.161  1.8753 -1.6913  1.1044
   93MOL   H15235296   4.624   0.889   0.252 -1.1963  0.9721  0.3867
   93MOL   H15335297   4.601   0.900   0.081  1.9672 -1.0058  0.8458
   93MOL   C15435298   4.229   1.232   0.006 -0.2428  0.9232  0.3616
   93MOL   C15535299   4.125   1.339   0.054 -0.2832  0.0585  0.0595
   93MOL   C15635300   4.028   1.362   7.587 -0.7011 -0.1383 -0.3319
   93MOL   C15735301   4.008   1.225   7.525  0.4732  0.6096  0.2422
   93MOL   C15835302   3.869   1.168   7.561  0.6458  0.2057  0.0555
   93MOL   C15935303   3.841   1.032   7.482  0.1899 -0.5258  0.4238
   93MOL   C16035304   4.127   1.134   7.577 -0.1330  0.2976  0.1081
   93MOL   H16135305   4.314   1.262   7.591  0.8701 -0.1272  1.3523
   93MOL   H16235306   4.063   1.288   0.128 -1.0456 -0.7435 -1.1089
   93MOL   H16335307   4.178   1.426   0.092  0.2190  0.1705 -0.8849
   93MOL   H16435308   3.941   1.415   7.626  0.1458  0.5508  0.6251
   93MOL   H16535309   4.075   1.435   7.521 -0.2319 -0.4098 -0.3015
   93MOL   H16635310   4.029   1.235   7.419  0.2658  3.2460  0.4191
   93MOL   H16735311   3.787   1.238   7.543  1.8787  2.2781  2.0235
   93MOL   H16835312   3.862   1.148   0.021 -0.9624  0.5647  0.0387
   93MOL   H16935313   3.849   1.048   7.374 -0.4656  0.5384  0.5200
   93MOL   H17035314   3.919   0.962   7.511  0.6644  1.4531  4.1454
   93MOL   H17135315   4.181   1.082   7.498 -2.0480 -1.3802 -0.1436
   93MOL   H17235316   4.102   1.051   7.644  0.0915 -0.3186 -0.5682
   93MOL   C17335317   3.713   0.957   7.519 -0.1106  0.3585 -0.8964
   93MOL   C17435318   3.588   1.014   7.459 -0.3469 -0.2817  0.3964
   93MOL   C17535319   3.489   0.896   7.439 -0.0901  0.2665 -1.0264
   93MOL   C17635320   3.560   0.770   7.486 -0.8523  0.0496  0.2613
   93MOL   C17735321   3.526   0.653   7.392  1.2630  0.2491 -0.9617
   93MOL   C17835322   3.586   0.520   7.428  0.3451 -0.0631  0.0759
   93MOL   C17935323   3.705   0.809   7.471 -0.0737 -0.2852  0.6902
   93MOL   H18035324   3.707   0.946   7.627 -0.9720 -1.5888 -1.1140
   93MOL   H18135325   3.610   1.053   7.360 -2.9207 -2.7534 -1.2113
   93MOL   H18235326   3.549   1.097   7.519  1.2055  1.1382 -0.4895
   93MOL   H18335327   3.396   0.905   7.496  0.9246 -0.8008  0.8350
   93MOL   H18435328   3.427   0.892   7.349 -3.2859 -0.8793  1.1468
   93MOL   H18535329   3.528   0.752   7.589 -2.7618  0.3500 -0.2530
   93MOL   H18635330   3.554   0.673   7.289 -1.0526 -0.4833 -1.7682
   93MOL   H18735331   3.419   0.633   7.389  1.2904  0.1708 -1.4842
   93MOL   H18835332   3.591   0.508   7.536  0.9850 -2.9760 -0.2209
   93MOL   H18935333   3.692   0.530   7.402  0.0909  0.8928 -0.6205
   93MOL   H19035334   3.732   0.810   7.366 -1.6565  0.0956  0.2820
   93MOL   H19135335   3.770   0.743   7.529  0.5246 -1.8374 -1.6783
   93MOL   C19235336   3.522   0.412   7.338 -0.5672  0.6157  0.3265
   93MOL   C19335337   3.566   0.270   7.385  0.2809  0.0744 -0.4612
   93MOL   C19435338   3.555   0.177   7.260 -0.3987 -0.5094  0.0064
   93MOL   C19535339   3.593   0.266   7.149 -0.9324 -0.4090  0.4489
   93MOL   C19635340   3.538   0.234   7.008 -0.0968  0.1453 -0.2223
   93MOL   C19735341   3.595   0.313   6.896  0.1910  0.2922 -0.0323
   93MOL   C19835342   3.562   0.414   7.189  0.1971 -0.5435 -0.3814
   93MOL   H19935343   3.414   0.427   7.341 -0.3684  2.4669 -0.7645
   93MOL   H20035344   3.667   0.280   7.424  0.5800  0.5052 -1.3267
   93MOL   H20135345   3.503   0.226   7.462 -1.5434  3.1705 -0.0681
   93MOL   H20235346   3.450   0.153   7.242 -1.3295  1.3797  2.4991
   93MOL   H20335347   3.610   0.083   7.264  1.3999  0.5898  2.9057
   93MOL   H20435348   3.701   0.257   7.135 -0.8328 -0.7083  1.3627
   93MOL   H20535349   3.433   0.261   7.020  0.0542  1.0430 -0.8850
   93MOL   H20635350   3.539   0.125   7.003  0.8455  0.1693 -0.6378
   93MOL   H20735351   3.702   0.306   6.919  0.3994 -4.3869 -1.9409
   93MOL   H20835352   3.568   0.418   6.889 -1.0024 -0.0506 -0.6308
   93MOL   H20935353   3.488   0.458   7.121 -1.3482  0.2326  1.7550
   93MOL   H21035354   3.656   0.467   7.175  1.0037 -1.6397  0.8710
   93MOL   C21135355   3.563   0.244   6.759  0.5889  0.5122  0.6307
   93MOL   C21235356   3.625   0.331   6.647  0.4812  0.5971  0.7118
   93MOL   C21335357   3.513   0.354   6.544 -0.3752 -0.5703 -0.6072
   93MOL   C21435358   3.411   0.243   6.571 -0.0281 -0.0755 -0.0112
   93MOL   C21535359   3.266   0.278   6.524  0.3868  0.0855 -0.0816
   93MOL   C21635360   3.253   0.288   6.367  0.2948 -0.0906 -0.1370
   93MOL   C21735361   3.416   0.227   6.719 -0.7471 -0.1498 -0.7249
   93MOL   H21835362   3.613   0.148   6.749 -3.2785 -1.6311  1.3632
   93MOL   H21935363   3.678   0.420   6.682 -1.0206  1.5612  0.5639
   93MOL   H22035364   3.703   0.269   6.603  0.1703  0.0222  0.9612
   93MOL   H22135365   3.475   0.455   6.560 -3.6912 -1.9067  0.3490
   93MOL   H22235366   3.558   0.368   6.445  0.8063 -0.3690 -0.0547
   93MOL   H22335367   3.450   0.153   6.522  1.5783  1.6177 -1.9088
   93MOL   H22435368   3.235   0.375   6.562 -1.5362 -0.5313 -0.0052
   93MOL   H22535369   3.191   0.202   6.546 -1.5417  1.7156 -0.8236
   93MOL   H22635370   3.331   0.356   6.332  0.9682 -0.5165  0.5231
   93MOL   H22735371   3.262   0.194   6.312 -1.1908  1.3183 -2.8786
   93MOL   H22835372   3.375   0.134   6.757 -0.0600 -0.6462 -1.1926
   93MOL   H22935373   3.361   0.313   6.757  0.7137  1.0443 -1.2251
   93MOL   C23035374   3.128   0.359   6.325  1.2024  0.5279  0.2064
   93MOL   C23135375   3.011   0.266   6.316  0.1933 -0.1439 -0.0387
   93MOL   C23235376   2.909   0.327   6.226  0.4286  0.5906  0.8476
   93MOL   C23335377   2.999   0.396   6.118 -0.1585 -0.1742  0.1167
   93MOL   C23435378   2.936   0.526   6.064 -0.3557  0.6152  0.8757
   93MOL   C23535379   2.808   0.502   5.975 -0.3123 -0.0161 -0.0547
   93MOL   C23635380   3.133   0.433   6.181  0.5402  0.8626 -0.0210
   93MOL   H23735381   3.097   0.431   6.401 -1.8093  0.7531 -1.1790
   93MOL   H23835382   3.033   0.166   6.277  1.3810 -0.4413  1.3621
   93MOL   H23935383   2.961   0.257   6.413 -2.3791 -0.7752 -1.3607
   93MOL   H24035384   2.852   0.405   6.277 -1.1816  0.9767 -1.4464
   93MOL   H24135385   2.833   0.255   6.193  0.4277  0.1358  1.8112
   93MOL   H24235386   3.033   0.334   6.036 -1.9119  0.0177 -0.7773
   93MOL   H24335387   3.000   0.573   5.989 -3.1611  0.7336 -1.4970
   93MOL   H24435388   2.925   0.602   6.141 -0.8644  1.3857  0.0499
   93MOL   H24535389   2.842   0.458   5.881 -2.6406 -1.1693 -0.3885
   93MOL   H24635390   2.740   0.431   6.022 -0.5626 -0.2586 -0.7790
   93MOL   H24735391   3.146   0.540   6.194 -1.7403  1.0499  0.9963
   93MOL   H24835392   3.221   0.390   6.133 -0.2449  0.4855 -1.1313
   93MOL   C24935393   2.734   0.631   5.952 -0.0768 -0.7146 -0.4976
   93MOL   C25035394   2.800   0.722   5.852 -0.2492 -0.0304  0.6585
   93MOL   C25135395   2.716   0.715   5.721  0.0449 -0.4037  0.5879
   93MOL   C25235396   2.598   0.615   5.745 -0.1989 -0.0550 -0.2095
   93MOL   C25335397   2.467   0.669   5.682  0.6992  0.5179  0.0164
   93MOL   C25435398   2.375   0.562   5.637  0.5481  0.4142  0.0726
   93MOL   C25535399   2.593   0.602   5.899 -1.1576 -0.6221  0.4343
   93MOL   H25635400   2.733   0.666   6.056  1.3889  1.3155 -1.1394
   93MOL   H25735401   2.789   0.824   5.886  0.3418 -0.1093  1.0926
   93MOL   H25835402   2.903   0.694   5.831 -0.9897 -0.4402 -2.9013
   93MOL   H25935403   2.783   0.671   5.647 -0.2863  0.4454 -0.2273
   93MOL   H26035404   2.687   0.809   5.675  0.6337 -0.5752 -0.1557
   93MOL   H26135405   2.631   0.519   5.704  0.4775 -0.5492  1.4461
   93MOL   H26235406   2.493   0.737   5.601 -0.4577  3.3315  1.9031
   93MOL   H26335407   2.423   0.735   5.757 -1.3484 -0.3465 -0.4011
   93MOL   H26435408   2.351   0.504   5.726 -2.2367  0.7434 -0.4492
   93MOL   H26535409   2.419   0.492   5.565 -1.0839 -0.1664 -0.3787
   93MOL   H26635410   2.546   0.511   5.936 -0.4799 -1.0781  0.1799
   93MOL   H26735411   2.529   0.687   5.924 -1.2505 -0.7420  0.6083
   93MOL   C26835412   2.243   0.618   5.573  0.3593  0.2927 -0.3760
   93MOL   C26935413   2.155   0.700   5.666 -0.5609  0.1280 -0.1671
   93MOL   C27035414   2.008   0.666   5.636  0.1672 -0.3863 -0.0257
   93MOL   C27135415   2.019   0.587   5.503  0.3540 -0.3552 -0.1790
   93MOL   C27235416   1.893   0.508   5.469 -0.7465  0.5820  0.1366
   93MOL   C27335417   1.908   0.407   5.350 -0.0724 -0.0749 -0.1827
   93MOL   C27435418   2.149   0.517   5.514 -0.4025 -0.4420  0.5657
   93MOL   H27535419   2.279   0.680   5.491  1.8863 -0.2526 -0.1331
   93MOL   H27635420   2.169   0.683   5.773 -0.1401  1.6833  0.0419
   93MOL   H27735421   2.171   0.806   5.646 -0.5792  0.4475  1.4599
   93MOL   H27835422   1.978   0.610   5.724  0.2104  1.4418  1.1702
   93MOL   H27935423   1.946   0.756   5.626  2.3413  1.2600  0.9138
   93MOL   H28035424   2.041   0.654   5.419  3.6983 -0.2839  0.6793
   93MOL   H28135425   1.801   0.563   5.447  0.6854  2.9711  0.0072
   93MOL   H28235426   1.860   0.450   5.556 -1.0954 -0.4041 -0.6448
   93MOL   H28335427   2.003   0.354   5.352 -0.0185  0.0686  1.5411
   93MOL   H28435428   1.827   0.340   5.380 -1.7775  1.1923 -1.8538
   93MOL   H28535429   2.142   0.438   5.589 -1.0985  0.4975  1.5028
   93MOL   H28635430   2.191   0.474   5.423 -0.8319 -1.6738  0.9366
   93MOL   C28735431   1.888   0.484   5.220 -0.1517 -0.3435  0.1353
   93MOL   C28835432   2.015   0.554   5.175  0.2533 -0.7434 -0.1841
   93MOL   C28935433   2.003   0.581   5.027  0.5690  0.2399  0.6039
   93MOL   C29035434   1.931   0.448   4.986  0.1258  0.0372 -0.1956
   93MOL   C29135435   2.002   0.338   4.910  0.4902 -0.6278 -0.2043
   93MOL   C29235436   2.140   0.291   4.964 -0.6933  0.1801 -0.0269
   93MOL   C29335437   1.866   0.381   5.115  0.4419 -0.8301  0.2912
   93MOL   H29435438   1.797   0.544   5.220  0.6323  0.8759  0.1415
   93MOL   H29535439   2.011   0.655   5.217  2.6688 -1.5988  2.2551
   93MOL   H29635440   2.106   0.499   5.199 -0.1207 -0.3966  2.1835
   93MOL   H29735441   2.088   0.600   4.961  0.3357 -2.6040 -0.5818
   93MOL   H29835442   1.938   0.664   5.001 -0.7378 -1.5407 -2.0383
   93MOL   H29935443   1.847   0.487   4.928  0.5090 -0.2127 -0.9322
   93MOL   H30035444   1.997   0.380   4.810 -0.9985  2.2047  0.9977
   93MOL   H30135445   1.936   0.252   4.901  1.1523 -1.2864  1.1274
   93MOL   H30235446   2.131   0.260   5.068 -0.4096  0.9990  0.2488
   93MOL   H30335447   2.216   0.370   4.960 -1.3679  0.9091  1.3055
   93MOL   H30435448   1.915   0.287   5.136 -0.9576 -1.2080  1.9437
   93MOL   H30535449   1.762   0.354   5.097 -0.0421  1.0073  0.1913
   93MOL   C30635450   2.201   0.171   4.890 -0.5043  0.3573 -0.0845
   93MOL   C30735451   2.328   0.120   4.961 -0.2587  0.2194  0.0366
   93MOL   C30835452   2.302   7.626   5.006  0.4319 -0.0995 -0.1679
   93MOL   C30935453   2.198   7.571   4.911  0.2233  0.2720 -0.1603
   93MOL   C31035454   2.122   7.450   4.957 -0.1599  0.9557 -0.2089
   93MOL   C31135455   2.067   7.366   4.839  0.3370 -0.6192  0.7055
   93MOL   C31235456   2.112   0.046   4.881 -0.0563  0.4352 -0.7720
   93MOL   H31335457   2.220   0.207   4.789 -0.6718  0.9764  0.0970
   93MOL   H31435458   2.407   0.123   4.886 -0.2226  0.8635  0.0914
   93MOL   H31535459   2.363   0.184   5.042  2.7766 -1.2044 -0.0996
   93MOL   H31635460   2.387   7.561   5.027  0.6047  0.4352  0.8082
   93MOL   H31735461   2.262   7.635   5.107 -2.4079  1.2152 -1.3397
   93MOL   H31835462   2.249   7.553   4.817  0.2704 -0.3181 -0.0236
   93MOL   H31935463   2.192   7.387   5.012 -1.1112 -0.6191 -0.7568
   93MOL   H32035464   2.040   7.464   5.028 -0.1398 -0.9708  0.2257
   93MOL   H32135465   2.150   7.335   4.776  0.8284  1.0201  0.5153
   93MOL   H32235466   2.007   7.425   4.770 -2.2417  0.9266  4.1104
   93MOL   H32335467   2.030   0.051   4.953 -1.2731  2.7870 -2.2391
   93MOL   H32435468   2.073   0.042   4.779 -0.0067  1.7684 -0.8509
   93MOL   C32535469   1.977   7.248   4.871 -0.2224 -0.1458  0.0007
   93MOL   C32635470   1.927   7.188   4.741  0.0385  0.2202 -0.4262
   93MOL   C32735471   2.048   7.103   4.694 -0.7025  0.2488  0.0372
   93MOL   C32835472   2.121   7.051   4.817  0.3077 -0.1250  0.4336
   93MOL   C32935473   2.091   6.896   4.838 -0.1003 -0.5832  0.3723
   93MOL   C33035474   2.127   6.803   4.727  0.2460  0.6094  0.0548
   93MOL   C33135475   2.071   7.134   4.935 -0.0312 -0.3459 -0.3803
   93MOL   H33235476   1.888   7.277   4.927 -0.0390 -0.3279  0.3864
   93MOL   H33335477   1.890   7.248   4.657 -1.7707  0.4071  0.5024
   93MOL   H33435478   1.856   7.114   4.777  1.0652 -0.2020  0.7749
   93MOL   H33535479   1.998   7.029   4.632 -0.2610  0.8322 -1.0347
   93MOL   H33635480   2.106   7.171   4.631 -1.6591  1.5531  0.5283
   93MOL   H33735481   2.229   7.057   4.803  0.0624  1.0478 -1.1543
   93MOL   H33835482   2.131   6.847   4.927 -1.2730 -3.5400 -0.6578
   93MOL   H33935483   1.987   6.885   4.868 -0.2652 -3.0433 -0.9396
   93MOL   H34035484   2.061   6.820   4.642  0.0643 -1.5227 -0.2657
   93MOL   H34135485   2.227   6.832   4.693  0.3550 -0.7782 -0.8881
   93MOL   H34235486   2.160   7.176   4.982  0.1378  0.7263 -1.6299
   93MOL   H34335487   2.017   7.074   5.008 -1.7087 -1.4647 -2.4845
   93MOL   C34435488   2.142   6.650   4.773  0.6368 -0.3748 -0.3944
   93MOL   C34535489   2.221   6.562   4.669  0.2167 -0.1475  0.9561
   93MOL   C34635490   2.133   6.435   4.658  0.4811  0.5847 -0.0400
   93MOL   C34735491   2.028   6.442   4.768 -0.4535  0.2660 -0.6062
   93MOL   C34835492   2.068   6.384   4.906 -0.1615 -0.4597 -0.8382
   93MOL   C34935493   1.975   6.423   5.026  0.5251 -0.0645  0.6016
   93MOL   C35035494   1.996   6.590   4.775  0.3956 -0.2621 -0.5718
   93MOL   H35135495   2.199   6.641   4.865  0.9589  1.0977 -0.4342
   93MOL   H35235496   2.321   6.532   4.700  0.5361  0.7872  0.8615
   93MOL   H35335497   2.225   6.601   4.568  1.4100  0.1795  1.1246
   93MOL   H35435498   2.078   6.426   4.564  0.7428 -0.3570 -0.1109
   93MOL   H35535499   2.190   6.342   4.669  0.2091  0.1782 -1.9084
   93MOL   H35635500   1.943   6.382   4.737 -2.2969  1.8791  1.1199
   93MOL   H35735501   2.081   6.277   4.891 -0.0216 -0.3632 -1.4198
   93MOL   H35835502   2.167   6.420   4.932 -1.5398  2.0754  1.1393
   93MOL   H35935503   1.988   6.525   5.063  1.2105 -0.0139  0.2257
   93MOL   H36035504   1.997   6.348   5.103 -1.6456 -0.9049  0.4265
   93MOL   H36135505   1.934   6.615   4.688 -0.8513  0.6061  0.5361
   93MOL   H36235506   1.942   6.621   4.865  0.2670 -0.3895 -0.6042
   93MOL   C36335507   1.824   6.402   5.009  0.2858  0.5845  0.4350
   93MOL   C36435508   1.746   6.412   5.140  0.4469 -0.2585  0.2952
   93MOL   C36535509   1.649   6.293   5.145 -1.1488  0.1939  0.2846
   93MOL   C36635510   1.655   6.233   5.006 -0.4752  0.0836 -0.3183
   93MOL   C36735511   1.617   6.087   5.016  0.3283 -0.0967  0.0251
   93MOL   C36835512   1.588   6.033   4.881 -0.3662 -0.3467  0.0409
   93MOL   C36935513   1.798   6.252   4.960  0.6851 -0.3457 -0.3101
   93MOL   H37035514   1.777   6.471   4.940  2.3509  0.8181 -0.7820
   93MOL   H37135515   1.812   6.410   5.226  0.4079 -1.9028  0.2983
   93MOL   H37235516   1.702   6.511   5.152 -0.3469 -0.7778  1.7783
   93MOL   H37335517   1.674   6.228   5.229 -0.3513  1.9639  1.4512
   93MOL   H37435518   1.552   6.339   5.163 -0.8471  0.6753  0.7077
   93MOL   H37535519   1.585   6.290   4.946 -0.4345  1.0939  0.5772
   93MOL   H37635520   1.702   6.030   5.054  0.2638  0.1183  0.4883
   93MOL   H37735521   1.540   6.063   5.089 -0.0473 -0.6391 -0.5390
   93MOL   H37835522   1.516   6.095   4.828  0.8078 -0.4217 -1.7106
   93MOL   H37935523   1.545   5.933   4.875  0.6389 -0.8416  0.9789
   93MOL   H38035524   1.870   6.187   5.010  0.9629  0.8869  0.9358
   93MOL   H38135525   1.804   6.238   4.853 -2.5630 -0.3058 -0.5420
   93MOL   H38235526   1.677   6.022   4.818  1.2342 -3.2572  2.6373
   94MOL     C135527   2.591   2.204   2.406 -0.0532  0.7388  0.3416
   94MOL     C235528   2.708   2.112   2.444 -1.0307 -0.0962 -0.3038
   94MOL     C335529   2.671   2.028   2.563 -0.3028  0.8771  0.2336
   94MOL     C435530   2.525   2.004   2.534 -0.1357  0.0487  0.2194
   94MOL     C535531   2.449   1.937   2.650 -0.0041  0.3471 -0.6184
   94MOL     C635532   2.436   1.788   2.641  0.7705  0.6413 -0.3544
   94MOL     C735533   2.480   2.147   2.502  0.0281 -0.0272 -0.1832
   94MOL     H835534   2.614   2.308   2.426  3.4591  0.3198 -1.1752
   94MOL     H935535   2.797   2.173   2.460  0.1664 -1.8213 -0.1947
   94MOL    H1035536   2.720   2.045   2.358 -2.5697 -1.4235  0.5059
   94MOL    H1135537   2.721   1.931   2.565 -0.3026  0.8726  0.0662
   94MOL    H1235538   2.700   2.088   2.649 -1.1276 -0.1636  1.2520
   94MOL    H1335539   2.511   1.948   2.442  1.9855 -0.0792 -0.0580
   94MOL    H1435540   2.494   1.964   2.745 -0.1292  0.0346 -0.4705
   94MOL    H1535541   2.350   1.983   2.647 -0.8408 -1.3398  0.3379
   94MOL    H1635542   2.368   1.763   2.560  1.9009 -0.7972 -0.8891
   94MOL    H1735543   2.532   1.739   2.628  0.6020  0.7555 -2.0807
   94MOL    H1835544   2.383   2.143   2.453  0.2756  2.1701 -0.8860
   94MOL    H1935545   2.480   2.213   2.589 -0.7973  0.0585 -0.2526
   94MOL    H2035546   2.570   2.204   2.299  0.5819 -1.0056  0.1956
   94MOL    C2135547   2.377   1.728   2.765 -0.0143 -0.5947  0.8095
   94MOL    C2235548   2.367   1.576   2.756 -0.1278  0.2941 -0.7966
   94MOL    C2335549   2.370   1.526   2.907 -0.0641  0.8652 -0.0042
   94MOL    C2435550   2.379   1.651   2.991  0.2936 -0.0918  0.0293
   94MOL    C2535551   2.464   1.632   3.124 -0.5333  0.2357 -0.0617
   94MOL    C2635552   2.383   1.575   3.239  0.7115 -0.4971 -0.6347
   94MOL    C2735553   2.443   1.758   2.898 -0.1504 -0.3618  0.1028
   94MOL    H2835554   2.275   1.767   2.771  0.4187  0.9599 -1.2379
   94MOL    H2935555   2.275   1.542   2.708  0.5281 -1.5188 -0.8044
   94MOL    H3035556   2.451   1.533   2.702  1.2695  0.8248  0.9384
   94MOL    H3135557   2.301   1.446   2.931  0.8363  0.4291  1.2073
   94MOL    H3235558   2.462   1.469   2.919 -0.6408  0.3959  2.6110
   94MOL    H3335559   2.274   1.670   3.013  0.3656 -0.8012  1.0240
   94MOL    H3435560   2.504   1.728   3.155 -0.7785  0.9294 -1.8421
   94MOL    H3535561   2.548   1.565   3.104 -1.3507 -0.3826 -1.5268
   94MOL    H3635562   2.362   1.472   3.210 -1.8395  0.1248 -1.1670
   94MOL    H3735563   2.291   1.633   3.251  0.8661 -0.7666  2.2776
   94MOL    H3835564   2.421   1.853   2.946  0.8806 -0.4080  0.6757
   94MOL    H3935565   2.551   1.743   2.898 -0.0160  0.5187  2.1859
   94MOL    C4035566   2.465   1.582   3.376 -0.3040 -0.0703  0.8667
   94MOL    C4135567   2.511   1.720   3.437 -0.9725 -0.1272 -0.0144
   94MOL    C4235568   2.526   1.701   3.586 -0.0403 -0.6086  0.1215
   94MOL    C4335569   2.441   1.577   3.626 -0.0168 -0.7550 -0.2049
   94MOL    C4435570   2.517   1.461   3.705 -0.2492 -1.2164 -0.2601
   94MOL    C4535571   2.597   1.516   3.824 -0.0229  0.7253  0.3946
   94MOL    C4635572   2.376   1.536   3.493 -0.1367  0.0262  0.8917
   94MOL    H4735573   2.559   1.529   3.361  0.8054  2.8013 -2.9760
   94MOL    H4835574   2.424   1.784   3.419 -0.5468  0.2301 -0.8164
   94MOL    H4935575   2.593   1.767   3.383  0.5335 -1.1156  1.3636
   94MOL    H5035576   2.630   1.679   3.610 -0.3468 -0.1616  1.9317
   94MOL    H5135577   2.495   1.790   3.643 -0.2520 -1.1503  0.8557
   94MOL    H5235578   2.367   1.611   3.699  0.5944 -2.5714  1.3152
   94MOL    H5335579   2.452   1.378   3.734  0.1280 -1.0247  1.1170
   94MOL    H5435580   2.584   1.418   3.630 -1.0190  0.6140 -2.0557
   94MOL    H5535581   2.559   1.611   3.859 -2.2534 -0.1897  0.5505
   94MOL    H5635582   2.699   1.538   3.791  0.6235 -2.1822  0.2378
   94MOL    H5735583   2.360   1.429   3.498 -1.8956  0.2698  0.9457
   94MOL    H5835584   2.278   1.584   3.494 -0.1387  0.1286 -0.9871
   94MOL    C5935585   2.609   1.413   3.937  0.0799  0.0512 -0.0482
   94MOL    C6035586   2.716   1.448   4.039  0.3775  0.0263 -0.2266
   94MOL    C6135587   2.658   1.404   4.179  0.6543 -0.2237 -0.1247
   94MOL    C6235588   2.509   1.440   4.166  0.0977 -0.1361 -0.3198
   94MOL    C6335589   2.411   1.370   4.268  0.0353 -0.0709 -0.0250
   94MOL    C6435590   2.408   1.423   4.416 -0.2191  0.2884  0.0888
   94MOL    C6535591   2.475   1.407   4.023  0.8937 -0.3876  0.7643
   94MOL    H6635592   2.619   1.319   3.883 -2.4880  0.2574 -0.9339
   94MOL    H6735593   2.810   1.397   4.018  0.6006  1.1022 -2.0045
   94MOL    H6835594   2.736   1.555   4.048  0.8806  0.0114 -1.0886
   94MOL    H6935595   2.670   1.297   4.195 -0.1296 -0.6562 -2.3236
   94MOL    H7035596   2.709   1.451   4.264 -0.3138  0.5865  0.0234
   94MOL    H7135597   2.503   1.548   4.178 -0.4265 -0.3315  1.3626
   94MOL    H7235598   2.426   1.262   4.268  1.5349  0.0449 -3.9630
   94MOL    H7335599   2.313   1.388   4.224  0.1736  0.3787 -0.1512
   94MOL    H7435600   2.502   1.436   4.469  0.6494 -0.1242 -1.3178
   94MOL    H7535601   2.381   1.528   4.413  0.7950  0.6658  2.5678
   94MOL    H7635602   2.431   1.307   4.019 -0.0078  0.0310 -0.2295
   94MOL    H7735603   2.402   1.482   3.991  0.6427 -1.2003 -0.5949
   94MOL    C7835604   2.311   1.339   4.505 -0.4346 -0.2810 -0.0399
   94MOL    C7935605   2.362   1.195   4.531 -0.0286  0.1465  0.0179
   94MOL    C8035606   2.352   1.175   4.689 -0.4081  0.3931  0.3493
   94MOL    C8135607   2.251   1.285   4.728  0.2535  0.2934 -0.1984
   94MOL    C8235608   2.257   1.312   4.876  0.9521  0.0194 -0.4299
   94MOL    C8335609   2.167   1.420   4.931  0.4985 -0.3166 -0.1921
   94MOL    C8435610   2.284   1.406   4.642 -0.5583 -0.0763  0.0742
   94MOL    H8535611   2.216   1.320   4.455 -0.4727 -1.2116  0.3671
   94MOL    H8635612   2.305   1.125   4.469 -0.3205 -0.1904  0.6606
   94MOL    H8735613   2.468   1.188   4.509 -0.3405  1.1707 -2.0127
   94MOL    H8835614   2.324   1.070   4.702  2.5333 -0.5785 -0.6316
   94MOL    H8935615   2.450   1.179   4.737 -1.5759  0.7010  2.7564
   94MOL    H9035616   2.152   1.253   4.696 -0.1293  0.5325  0.7426
   94MOL    H9135617   2.363   1.313   4.900  1.0070 -2.6995 -0.3559
   94MOL    H9235618   2.217   1.220   4.920 -3.8315  1.3146 -1.7903
   94MOL    H9335619   2.069   1.406   4.885  0.1176  0.5152  0.3511
   94MOL    H9435620   2.201   1.517   4.894 -0.9158  0.6123  0.8803
   94MOL    H9535621   2.382   1.445   4.672  0.4057 -0.9572 -1.8433
   94MOL    H9635622   2.214   1.489   4.636  0.3602  0.5535 -2.4870
   94MOL    C9735623   2.157   1.424   5.083 -0.6825  0.3507  0.4494
   94MOL    C9835624   2.069   1.540   5.135  0.9379  0.2329 -0.4021
   94MOL    C9935625   2.095   1.546   5.281 -0.1345  0.3166  0.2731
   94MOL   C10035626   2.248   1.512   5.301  0.1916 -0.4950  0.0899
   94MOL   C10135627   2.333   1.640   5.337 -0.7563  0.7208 -0.1528
   94MOL   C10235628   2.479   1.608   5.372 -0.3628 -0.7748 -0.4470
   94MOL   C10335629   2.290   1.456   5.163  0.5998 -0.6511 -0.5139
   94MOL   H10435630   2.113   1.327   5.107  1.4750 -1.2174 -1.7413
   94MOL   H10535631   2.109   1.624   5.078 -0.2564  0.1964 -1.3161
   94MOL   H10635632   1.965   1.513   5.116  0.8011 -0.1312  0.8050
   94MOL   H10735633   2.058   1.641   5.319  1.2858  1.2723 -0.6842
   94MOL   H10835634   2.036   1.466   5.326  0.4076  0.2448  0.8679
   94MOL   H10935635   2.257   1.436   5.379  1.8115  0.1206  0.5128
   94MOL   H11035636   2.324   1.720   5.264  0.2660  0.3268 -0.7174
   94MOL   H11135637   2.293   1.688   5.426  0.2959 -0.9042  1.2361
   94MOL   H11235638   2.481   1.525   5.442 -2.1392  0.8413  1.5749
   94MOL   H11335639   2.537   1.574   5.285 -0.6940 -1.5679 -0.3662
   94MOL   H11435640   2.369   1.518   5.122 -0.5965  0.1647 -1.5957
   94MOL   H11535641   2.340   1.361   5.184  0.1896 -0.3688  1.9584
   94MOL   C11635642   2.559   1.714   5.439  0.1992 -0.1433 -0.4600
   94MOL   C11735643   2.700   1.671   5.478 -0.2536  0.1027  0.8219
   94MOL   C11835644   2.776   1.800   5.478 -0.6562  0.2200  0.2246
   94MOL   C11935645   2.726   1.887   5.365  0.1015  0.1677 -0.0838
   94MOL   C12035646   2.797   1.850   5.233  0.2351 -0.1857 -0.4670
   94MOL   C12135647   2.941   1.896   5.231 -0.0133 -0.4116 -0.4338
   94MOL   C12235648   2.578   1.848   5.364 -0.2470 -0.2614  0.3481
   94MOL   H12335649   2.506   1.739   5.531 -0.6577  2.3509 -1.5843
   94MOL   H12435650   2.726   1.598   5.401  1.7046  2.1423 -0.5099
   94MOL   H12535651   2.705   1.618   5.573 -1.2253 -1.0066  0.2711
   94MOL   H12635652   2.882   1.780   5.495 -0.6210  0.1320 -0.0954
   94MOL   H12735653   2.750   1.855   5.568 -0.5382  0.3406  0.1850
   94MOL   H12835654   2.743   1.992   5.389 -0.6990  0.5686 -1.2314
   94MOL   H12935655   2.735   1.885   5.151 -0.2561  0.9889  0.3902
   94MOL   H13035656   2.797   1.741   5.226  0.4579 -0.2487  0.4148
   94MOL   H13135657   3.002   1.844   5.304  2.7140  1.9644 -0.9421
   94MOL   H13235658   2.946   2.001   5.261  2.7183 -1.2833  2.3719
   94MOL   H13335659   2.521   1.918   5.425 -1.1370  0.7639 -1.6172
   94MOL   H13435660   2.547   1.851   5.259 -1.6486  1.6139  0.8005
   94MOL   C13535661   3.019   1.893   5.102 -0.4613 -0.2180 -0.6322
   94MOL   C13635662   3.155   1.955   5.095  0.6489 -0.0143 -0.0549
   94MOL   C13735663   3.241   1.871   5.005 -0.5042 -0.5915 -0.4247
   94MOL   C13835664   3.195   1.729   5.027 -0.3496  0.5935 -0.0536
   94MOL   C13935665   3.243   1.628   4.917 -0.6225 -0.5185 -0.8813
   94MOL   C14035666   3.385   1.587   4.951 -0.1447 -0.3092  0.0284
   94MOL   C14135667   3.043   1.750   5.049  0.6238  0.5652 -0.0271
   94MOL   H14235668   2.959   1.951   5.032  1.1692 -0.1354 -2.0086
   94MOL   H14335669   3.154   2.062   5.074 -1.1828  0.4583  2.2060
   94MOL   H14435670   3.197   1.969   5.194  0.5743  1.4267 -0.2136
   94MOL   H14535671   3.209   1.900   4.905 -1.7297  2.2026  0.7072
   94MOL   H14635672   3.346   1.895   5.021 -1.0559  1.9881 -0.3415
   94MOL   H14735673   3.223   1.696   5.127 -1.6757  0.0691  0.1506
   94MOL   H14835674   3.230   1.668   4.817 -1.5618 -0.4550 -0.7399
   94MOL   H14935675   3.186   1.535   4.919 -0.5028 -0.5717  1.7340
   94MOL   H15035676   3.427   1.688   4.961 -3.0454  0.9223  0.2698
   94MOL   H15135677   3.392   1.547   5.052  0.0785  2.9177  1.3547
   94MOL   H15235678   2.993   1.683   5.118 -0.7793 -1.2173 -2.6548
   94MOL   H15335679   3.005   1.735   4.948  0.8555  0.0993 -0.0499
   94MOL   C15435680   3.448   1.503   4.841 -0.0966 -0.3119 -0.3862
   94MOL   C15535681   3.397   1.358   4.832  0.2948  0.7760 -0.1317
   94MOL   C15635682   3.513   1.274   4.825 -0.0163  0.0363  0.6815
   94MOL   C15735683   3.634   1.361   4.769  0.6111  0.4624  0.0835
   94MOL   C15835684   3.770   1.294   4.805  0.4129 -0.7172 -0.7871
   94MOL   C15935685   3.813   1.181   4.713 -0.1992  0.6539  0.1595
   94MOL   C16035686   3.604   1.492   4.842 -0.5933 -0.7938 -0.0781
   94MOL   H16135687   3.425   1.552   4.747  2.5800  0.6570 -0.5686
   94MOL   H16235688   3.340   1.320   4.917  0.5546  0.9244  0.1088
   94MOL   H16335689   3.334   1.332   4.747  0.9315  2.4709 -1.1383
   94MOL   H16435690   3.520   1.250   4.931 -0.6344 -0.3782  0.6295
   94MOL   H16535691   3.495   1.187   4.762  0.5986  0.7805 -0.5405
   94MOL   H16635692   3.642   1.389   4.664 -0.7893 -0.0014 -0.1462
   94MOL   H16735693   3.768   1.255   4.907 -2.1450 -1.6556 -1.1467
   94MOL   H16835694   3.845   1.373   4.808 -0.8794  0.5064  0.1169
   94MOL   H16935695   3.722   1.125   4.694 -1.5238  2.5832  0.6737
   94MOL   H17035696   3.849   1.216   4.616  0.1262  1.9001  0.7152
   94MOL   H17135697   3.657   1.581   4.806  1.1199 -1.8180 -0.1737
   94MOL   H17235698   3.636   1.477   4.945  0.8573 -0.0035 -0.3933
   94MOL   C17335699   3.931   1.107   4.771 -0.1228 -0.0677  0.4839
   94MOL   C17435700   3.903   1.005   4.886 -0.4504  0.4664 -0.2083
   94MOL   C17535701   4.024   0.913   4.886  0.0630  0.6730 -0.0409
   94MOL   C17635702   4.080   0.916   4.744  0.4131 -0.9923 -0.0287
   94MOL   C17735703   4.068   0.785   4.667  0.2268 -0.8210  0.4124
   94MOL   C17835704   4.115   0.781   4.519  0.1543 -0.3610 -0.0983
   94MOL   C17935705   3.991   1.021   4.670  0.1535  0.6488  0.3214
   94MOL   H18035706   4.006   1.182   4.800 -0.6443  0.0673  1.5078
   94MOL   H18135707   3.817   0.951   4.845 -0.3218  0.2910 -0.2475
   94MOL   H18235708   3.867   1.031   4.985 -3.3613 -3.1688 -0.2010
   94MOL   H18335709   4.101   0.951   4.953 -0.4781  3.0915 -0.7538
   94MOL   H18435710   4.011   0.810   4.922 -1.9765  1.0098  0.2622
   94MOL   H18535711   4.183   0.951   4.741 -0.5226  1.9997  0.7373
   94MOL   H18635712   3.963   0.756   4.669  0.7580 -2.9707 -1.0806
   94MOL   H18735713   4.122   0.709   4.723  1.0725 -1.3904 -1.1344
   94MOL   H18835714   4.074   0.854   4.449  0.6090  0.0221  0.0300
   94MOL   H18935715   4.088   0.681   4.484  0.2932 -0.3160 -0.3371
   94MOL   H19035716   3.919   0.956   4.619  0.1139 -0.7511  2.1030
   94MOL   H19135717   4.035   1.079   4.589  3.4372 -0.4578  1.2223
   94MOL   C19235718   4.265   0.794   4.506 -0.3858  0.5446 -0.1000
   94MOL   C19335719   4.306   0.780   4.354  0.3890  0.0665 -0.2461
   94MOL   C19435720   4.445   0.723   4.355  0.0461 -0.2809 -0.1082
   94MOL   C19535721   4.456   0.639   4.482 -0.1598 -0.2864 -0.3007
   94MOL   C19635722   4.591   0.637   4.552 -0.3278 -0.0112  0.2949
   94MOL   C19735723   4.701   0.584   4.459 -0.5957  0.4232  0.3704
   94MOL   C19835724   4.348   0.686   4.582 -0.0491  0.7559 -0.9413
   94MOL   H19935725   4.299   0.893   4.536 -0.6717  0.2836  1.1079
   94MOL   H20035726   4.241   0.705   4.308 -1.8992  0.8718  1.5962
   94MOL   H20135727   4.293   0.869   4.291  0.5382  0.6067  0.4834
   94MOL   H20235728   4.515   0.805   4.345  0.4803 -0.4691  1.3083
   94MOL   H20335729   4.463   0.663   4.265 -0.7905 -0.7447  0.0237
   94MOL   H20435730   4.431   0.536   4.456 -0.0340 -0.3406 -0.2069
   94MOL   H20535731   4.583   0.578   4.643 -2.2776 -0.2943 -0.0583
   94MOL   H20635732   4.613   0.739   4.585  0.6070 -1.1268  3.3350
   94MOL   H20735733   4.707   0.640   4.366 -0.4625 -1.6754 -0.9251
   94MOL   H20835734   4.676   0.485   4.420  1.8606  1.3562 -3.8144
   94MOL   H20935735   4.377   0.725   4.680  0.1365  0.1540 -0.7518
   94MOL   H21035736   4.285   0.603   4.613  1.0745 -0.0245 -0.7189
   94MOL   C21135737   4.844   0.571   4.518  0.9604 -0.7156  0.9551
   94MOL   C21235738   4.947   0.504   4.427  0.4776  0.3008 -0.2788
   94MOL   C21335739   5.065   0.465   4.516  0.8738  0.1392 -0.7548
   94MOL   C21435740   5.013   0.471   4.665  0.8513  0.0253  0.6989
   94MOL   C21535741   5.058   0.347   4.751  0.2294 -0.2636  0.2758
   94MOL   C21635742   5.199   0.344   4.809  0.2875 -0.0513 -0.3328
   94MOL   C21735743   4.862   0.492   4.648 -0.5880  0.6582  0.1920
   94MOL   H21835744   4.872   0.675   4.535  0.8777 -0.5374 -0.0003
   94MOL   H21935745   4.893   0.420   4.383  1.7452 -0.7947  0.2330
   94MOL   H22035746   4.979   0.569   4.345 -3.1998  1.2914 -1.0599
   94MOL   H22135747   5.072   0.363   4.479 -0.4693 -0.2427  0.0098
   94MOL   H22235748   5.154   0.526   4.502  1.5365 -0.5439  0.3335
   94MOL   H22335749   5.045   0.567   4.706  0.0327  0.3550  0.5650
   94MOL   H22435750   5.031   0.254   4.700  1.4639 -0.7809  0.5347
   94MOL   H22535751   4.990   0.334   4.835 -0.7509  1.1775 -0.2861
   94MOL   H22635752   5.224   0.247   4.852  2.6417  0.3417 -0.7043
   94MOL   H22735753   5.264   0.359   4.722  1.0519  1.7342  0.5256
   94MOL   H22835754   4.817   0.537   4.737 -2.1629 -0.8374  0.1744
   94MOL   H22935755   4.809   0.398   4.635  1.1135 -0.0092 -2.1970
   94MOL   C23035756   5.207   0.454   4.925 -0.4277  0.5274 -0.7041
   94MOL   C23135757   5.351   0.470   4.969  0.6473  0.1956  0.1050
   94MOL   C23235758   5.331   0.532   5.109  0.3864  0.0991  0.1114
   94MOL   C23335759   5.215   0.458   5.167  0.6930  0.3982  0.0909
   94MOL   C23435760   5.142   0.525   5.288  0.1680  0.3150  0.4443
   94MOL   C23535761   5.050   0.425   5.368 -0.1760 -0.6831 -0.1519
   94MOL   C23635762   5.124   0.424   5.051  0.4909 -0.6265  0.1736
   94MOL   H23735763   5.174   0.553   4.894  0.2452  1.1031  0.4056
   94MOL   H23835764   5.409   0.377   4.972  0.6035  0.1478 -0.3950
   94MOL   H23935765   5.405   0.540   4.906  2.0271 -0.2945  0.7226
   94MOL   H24035766   5.297   0.633   5.086 -3.9904 -1.0335  1.1622
   94MOL   H24135767   5.422   0.522   5.168  1.4244  2.1191 -1.0972
   94MOL   H24235768   5.250   0.359   5.198  1.8692  0.8022  0.0512
   94MOL   H24335769   5.069   0.600   5.257 -1.7669 -1.4778  0.4833
   94MOL   H24435770   5.212   0.589   5.341  1.0208 -1.5621  1.6595
   94MOL   H24535771   4.992   0.357   5.305 -1.0916 -0.5588  0.5467
   94MOL   H24635772   5.116   0.362   5.427  0.7520 -0.2059 -0.6762
   94MOL   H24735773   5.036   0.487   5.052  0.7783 -0.1092 -2.6434
   94MOL   H24835774   5.087   0.322   5.059 -0.8320 -0.1580  0.1663
   94MOL   C24935775   4.957   0.508   5.464  0.2537  0.3161  0.5140
   94MOL   C25035776   4.847   0.590   5.391  0.7089 -0.2665 -0.4115
   94MOL   C25135777   4.740   0.608   5.503 -0.0638 -0.0351 -0.2057
   94MOL   C25235778   4.750   0.489   5.602  0.1962 -0.1852  0.0218
   94MOL   C25335779   4.721   0.523   5.751 -0.2738 -0.0485 -0.0678
   94MOL   C25435780   4.594   0.601   5.770  0.4681  0.2956 -0.6497
   94MOL   C25535781   4.884   0.414   5.562 -0.0380 -0.6125 -0.8755
   94MOL   H25635782   5.006   0.583   5.526 -0.0493  1.8302 -1.0588
   94MOL   H25735783   4.886   0.684   5.352  0.1068 -0.7965 -2.3423
   94MOL   H25835784   4.807   0.535   5.306  0.7974  1.9141 -1.9069
   94MOL   H25935785   4.636   0.610   5.473 -0.1884  0.8956  0.2580
   94MOL   H26035786   4.763   0.707   5.545  1.9777 -0.5285 -0.0711
   94MOL   H26135787   4.673   0.420   5.567  0.5514 -0.4204 -0.2921
   94MOL   H26235788   4.807   0.585   5.777 -1.0654  0.8790  0.3697
   94MOL   H26335789   4.728   0.434   5.814 -1.2617  0.4651  0.7845
   94MOL   H26435790   4.521   0.521   5.757 -0.4303  0.5583  2.3756
   94MOL   H26535791   4.567   0.673   5.693 -0.6257 -0.2203 -0.7576
   94MOL   H26635792   4.868   0.316   5.517  0.0216 -1.1342  0.2240
   94MOL   H26735793   4.936   0.398   5.656 -0.8595  1.0241 -0.1072
   94MOL   C26835794   4.557   0.660   5.917  0.0760  0.0306 -0.4414
   94MOL   C26935795   4.410   0.691   5.934  0.3044 -0.0042 -0.6185
   94MOL   C27035796   4.405   0.838   5.969  0.0092 -0.4692  0.0247
   94MOL   C27135797   4.538   0.871   6.029  0.6780  0.3581 -0.5994
   94MOL   C27235798   4.573   1.019   6.023 -0.4175  0.6706  0.8720
   94MOL   C27335799   4.696   1.064   6.094 -0.1363  0.9662  0.0168
   94MOL   C27435800   4.634   0.783   5.956  0.3384 -0.1660 -0.6612
   94MOL   H27535801   4.587   0.587   5.992 -0.1813  1.4138  1.0325
   94MOL   H27635802   4.353   0.661   5.846 -0.0254  2.7150 -1.3554
   94MOL   H27735803   4.374   0.627   6.015 -1.1223  1.2449 -0.2599
   94MOL   H27835804   4.375   0.892   5.879 -1.5305  0.2059  0.9280
   94MOL   H27935805   4.323   0.848   6.040  0.2359 -1.0342  0.3665
   94MOL   H28035806   4.532   0.838   6.133  0.4284 -0.7261 -0.9549
   94MOL   H28135807   4.491   1.072   6.071 -1.9516 -0.7266 -0.1330
   94MOL   H28235808   4.577   1.053   5.919 -0.2982  3.6545  1.8109
   94MOL   H28335809   4.685   1.038   6.199 -0.7510 -1.1086 -0.5345
   94MOL   H28435810   4.785   1.017   6.052  1.0323  0.4410  2.9842
   94MOL   H28535811   4.678   0.834   5.870 -0.3357 -0.5807 -1.2441
   94MOL   H28635812   4.716   0.759   6.024 -0.1420 -0.1235 -0.0647
   94MOL   C28735813   4.727   1.222   6.076  0.9627 -0.0476 -0.5326
   94MOL   C28835814   4.818   1.270   6.185 -0.4712 -0.2700  0.4340
   94MOL   C28935815   4.953   1.257   6.121  0.0260  0.4383 -0.4179
   94MOL   C29035816   4.939   1.316   5.985  0.0169  0.5891  0.1863
   94MOL   C29135817   5.045   1.282   5.877  0.0994 -0.3665 -0.1708
   94MOL   C29235818   5.186   1.336   5.912  0.7801 -1.0383 -0.3016
   94MOL   C29335819   4.806   1.254   5.947  0.4712 -0.3055  0.2247
   94MOL   H29435820   4.636   1.282   6.076 -0.4703 -2.1247  1.2665
   94MOL   H29535821   4.802   1.374   6.214 -3.9954 -0.5670 -0.1493
   94MOL   H29635822   4.812   1.201   6.270 -1.2375  0.0522  0.6455
   94MOL   H29735823   4.968   1.149   6.122 -1.1236  0.2679  1.1468
   94MOL   H29835824   5.042   1.294   6.173 -1.1467  1.4713  0.8926
   94MOL   H29935825   4.924   1.424   5.983 -0.9660  0.4634  0.2887
   94MOL   H30035826   5.018   1.307   5.774 -2.5083  1.2407  0.8651
   94MOL   H30135827   5.048   1.175   5.857 -0.3093 -0.4013 -0.0360
   94MOL   H30235828   5.212   1.287   6.006 -1.1476  0.7614  1.2089
   94MOL   H30335829   5.164   1.442   5.917  0.8787 -0.9941 -0.7275
   94MOL   H30435830   4.825   1.163   5.890 -1.0643  0.9580 -2.3750
   94MOL   H30535831   4.759   1.320   5.875 -0.1197 -1.0673 -0.0926
   94MOL   C30635832   5.294   1.297   5.819  0.6018  0.2074  0.2040
   94MOL   C30735833   5.436   1.332   5.878 -0.2491 -0.3364 -0.1832
   94MOL   C30835834   5.536   1.222   5.817  0.3132  0.0244  0.5311
   94MOL   C30935835   5.451   1.114   5.746  0.3727 -0.8147  0.6191
   94MOL   C31035836   5.505   0.963   5.753  0.4008 -0.8223  0.3828
   94MOL   C31135837   5.403   0.870   5.686  0.7092  0.2756 -0.2597
   94MOL   C31235838   5.307   1.142   5.790 -0.0687 -0.2786 -0.0519
   94MOL   H31335839   5.267   1.349   5.727  0.2497 -0.4412 -0.0621
   94MOL   H31435840   5.470   1.428   5.838 -2.2913  0.4045 -0.2332
   94MOL   H31535841   5.430   1.334   5.987  0.3157  3.3859 -0.1418
   94MOL   H31635842   5.597   1.274   5.744  0.0230  0.5044  0.6264
   94MOL   H31735843   5.602   1.185   5.895  1.8420 -0.2119 -0.8689
   94MOL   H31835844   5.456   1.137   5.640  1.1414 -1.0538  0.5986
   94MOL   H31935845   5.604   0.969   5.708  0.0086 -0.0204 -0.3916
   94MOL   H32035846   5.528   0.923   5.852  4.8011 -2.0269 -1.0517
   94MOL   H32135847   5.366   0.913   5.593 -1.1732 -0.4028  0.1536
   94MOL   H32235848   5.311   0.859   5.744 -0.1532 -0.8755 -1.7977
   94MOL   H32335849   5.271   1.088   5.878 -0.3270  1.0641  0.6772
   94MOL   H32435850   5.238   1.110   5.712 -1.5520 -0.1346  1.1899
   94MOL   C32535851   5.473   0.731   5.663  0.2774 -0.1276  0.3761
   94MOL   C32635852   5.377   0.618   5.634  0.6612  0.2734 -0.2061
   94MOL   C32735853   5.464   0.521   5.559  0.0266 -0.4735  0.2058
   94MOL   C32835854   5.565   0.601   5.464 -0.1157 -0.2720  0.2896
   94MOL   C32935855   5.705   0.550   5.442 -1.3905 -0.4117 -0.4653
   94MOL   C33035856   5.714   0.425   5.355 -0.1118  0.3006  0.0753
   94MOL   C33135857   5.561   0.734   5.537 -0.3470  0.2670  0.1474
   94MOL   H33235858   5.538   0.706   5.746  0.3423  2.7540  1.2256
   94MOL   H33335859   5.289   0.640   5.573  0.5341 -1.2768 -0.5946
   94MOL   H33435860   5.343   0.580   5.730  0.0123 -0.7126 -0.8253
   94MOL   H33535861   5.530   0.482   5.636 -0.8337 -1.4457  0.4542
   94MOL   H33635862   5.414   0.442   5.502  0.3994 -0.5631 -0.0010
   94MOL   H33735863   5.520   0.616   5.366  1.4694  1.0521 -0.2799
   94MOL   H33835864   5.773   0.629   5.412 -2.0728 -0.1728 -1.4029
   94MOL   H33935865   5.762   0.518   5.530 -1.6467  0.9384  0.2012
   94MOL   H34035866   5.656   0.347   5.403 -0.1466 -0.6478 -1.4945
   94MOL   H34135867   5.663   0.445   5.260 -0.2747  0.2973  0.1627
   94MOL   H34235868   5.507   0.806   5.475 -0.6488  1.5796  1.8908
   94MOL   H34335869   5.655   0.785   5.558 -1.8144  2.8505  0.7228
   94MOL   C34435870   5.848   0.373   5.316  0.1658  0.0153 -0.3719
   94MOL   C34535871   5.847   0.257   5.220 -0.3112  0.0802  0.1607
   94MOL   C34635872   5.975   0.189   5.247 -0.1104  0.3678 -0.6105
   94MOL   C34735873   6.000   0.197   5.399  0.2536 -0.7474 -0.1438
   94MOL   C34835874   6.146   0.179   5.449 -0.0024 -0.1807  0.9280
   94MOL   C34935875   6.136   0.157   5.594  0.0135 -0.7982 -0.1238
   94MOL   C35035876   5.941   0.330   5.428  0.2868 -0.7005 -0.0429
   94MOL   H35135877   5.895   0.457   5.266 -0.6677  0.6708 -0.0690
   94MOL   H35235878   5.830   0.289   5.117  0.9331 -0.8960 -0.3713
   94MOL   H35335879   5.770   0.186   5.251  0.3196 -0.4999  0.4228
   94MOL   H35435880   5.976   0.086   5.211 -2.1711 -0.3096  1.1388
   94MOL   H35535881   6.052   0.250   5.200 -0.6185  1.0402 -0.5883
   94MOL   H35635882   5.924   0.128   5.437 -2.5443  2.0200 -0.5589
   94MOL   H35735883   6.192   0.099   5.390 -1.5319 -1.1306  1.0130
   94MOL   H35835884   6.204   0.270   5.432 -0.3540  0.2554  2.0196
   94MOL   H35935885   6.059   0.084   5.620  0.6130 -0.7625  1.7953
   94MOL   H36035886   6.092   0.245   5.641 -0.6440 -0.9403 -0.4560
   94MOL   H36135887   5.891   0.342   5.524 -0.9857 -0.2697 -0.7490
   94MOL   H36235888   6.018   0.408   5.425  1.4365 -1.7531  1.8268
   94MOL   C36335889   6.271   0.126   5.651  0.4106  0.1781 -0.2352
   94MOL   C36435890   6.332   7.633   5.629 -0.4271  0.9193  0.4959
   94MOL   C36535891   6.381   7.588   5.765  0.4736  0.2322 -0.2573
   94MOL   C36635892   6.390   0.073   5.845 -0.5801 -0.4301 -0.0050
   94MOL   C36735893   6.411   0.065   5.998 -0.0310  0.0226 -0.1382
   94MOL   C36835894   6.391   0.202   6.073 -0.5945  0.2373  0.1649
   94MOL   C36935895   6.270   0.150   5.799  0.1080 -0.7075  0.3263
   94MOL   H37035896   6.336   0.201   5.605 -1.7415  0.6531 -2.6283
   94MOL   H37135897   6.262   7.560   5.587 -0.0464 -0.1103  1.6086
   94MOL   H37235898   6.416   7.647   5.560 -1.5119  3.6171 -0.3327
   94MOL   H37335899   6.305   7.531   5.819  0.7301  0.0384 -0.1015
   94MOL   H37435900   6.471   7.527   5.768  0.6942  0.5174 -0.8338
   94MOL   H37535901   6.474   0.134   5.812 -0.4460 -1.3936 -1.4808
   94MOL   H37635902   6.341   7.643   6.043 -1.1067  1.6499  0.7537
   94MOL   H37735903   6.514   0.029   6.006  0.2449  0.8691  0.3062
   94MOL   H37835904   6.288   0.231   6.053 -0.1052  1.4788 -0.5975
   94MOL   H37935905   6.463   0.276   6.040 -1.0370  0.5753 -0.0396
   94MOL   H38035906   6.186   0.105   5.852 -1.0888  1.2349  0.0951
   94MOL   H38135907   6.269   0.257   5.818 -0.3244 -0.4295 -1.1871
   94MOL   H38235908   6.403   0.203   6.182 -2.6796  0.5768  0.4042
   95MOL     C135909   5.615   7.274   6.278  0.7654 -0.0086  0.5666
   95MOL     C235910   5.532   7.310   6.148 -0.2027 -0.3773  0.2485
   95MOL     C335911   5.469   7.445   6.182  0.2713 -0.1822 -0.0415
   95MOL     C435912   5.550   7.513   6.288 -0.3166 -0.7925 -0.0677
   95MOL     C535913   5.473   7.607   6.379  0.2759  0.4648  0.7109
   95MOL     C635914   5.396   0.078   6.315  0.3708  0.0719 -0.4214
   95MOL     C735915   5.619   7.397   6.365  0.2823 -0.4724  0.6408
   95MOL     H835916   5.566   7.198   6.339  1.1603  0.9068  2.0553
   95MOL     H935917   5.474   7.221   6.121 -0.6487 -0.3539  1.1254
   95MOL    H1035918   5.616   7.334   6.083 -1.5642 -0.3788 -1.5394
   95MOL    H1135919   5.436   7.502   6.095 -1.6716 -1.3202 -0.0960
   95MOL    H1235920   5.381   7.409   6.235  0.3806 -0.1233  0.1766
   95MOL    H1335921   5.636   7.557   6.239  0.2767 -2.1064 -0.2240
   95MOL    H1435922   5.405   7.560   6.450 -2.1035  1.9978 -0.4880
   95MOL    H1535923   5.550   0.001   6.444  0.2931 -0.0451  1.0156
   95MOL    H1635924   5.461   0.134   6.247 -0.7234  2.8524  0.7930
   95MOL    H1735925   5.318   0.025   6.259  1.6677 -0.3198 -1.9113
   95MOL    H1835926   5.711   7.424   6.416 -1.1170 -0.3478  3.1983
   95MOL    H1935927   5.553   7.379   6.450  2.4665 -0.3484  2.4056
   95MOL    H2035928   5.716   7.233   6.270  0.1742 -1.3413 -0.2318
   95MOL    C2135929   5.339   0.180   6.407  0.3762  0.1093  0.2562
   95MOL    C2235930   5.234   0.273   6.328 -0.2756  0.8462  0.1052
   95MOL    C2335931   5.122   0.294   6.428 -0.9166  0.7028  0.0491
   95MOL    C2435932   5.174   0.243   6.565 -0.5001  0.1393  0.0938
   95MOL    C2535933   5.061   0.219   6.669 -0.3385  0.6780 -0.1393
   95MOL    C2635934   5.016   0.348   6.737  0.6440  0.3736 -0.2253
   95MOL    C2735935   5.254   0.124   6.522  0.2306 -0.5704 -0.0520
   95MOL    H2835936   5.420   0.238   6.450  1.2044  0.6024 -1.8928
   95MOL    H2935937   5.287   0.363   6.296  0.4836  0.1710 -0.5785
   95MOL    H3035938   5.190   0.229   6.238 -0.4998  1.2647  0.0108
   95MOL    H3135939   5.103   0.400   6.443 -2.5153  0.3722  0.3591
   95MOL    H3235940   5.033   0.237   6.401 -1.2144  0.9231  0.5667
   95MOL    H3335941   5.247   0.317   6.600  0.0055 -1.2180  2.0093
   95MOL    H3435942   5.113   0.157   6.741  1.7049  0.6705 -1.5805
   95MOL    H3535943   4.980   0.162   6.625 -1.4035  0.2247  2.3329
   95MOL    H3635944   4.993   0.422   6.660  1.5003  1.9053  0.9682
   95MOL    H3735945   5.090   0.408   6.790  1.0053  0.3202 -0.6596
   95MOL    H3835946   5.314   0.103   6.611  0.6707 -0.9038 -0.4287
   95MOL    H3935947   5.189   0.042   6.492 -0.7134  0.3661 -0.5657
   95MOL    C4035948   4.894   0.330   6.825  0.4958  0.4007 -0.1850
   95MOL    C4135949   4.852   0.448   6.915  0.5119  0.6135  0.1388
   95MOL    C4235950   4.710   0.404   6.968 -0.9620  0.5790 -0.5678
   95MOL    C4335951   4.645   0.321   6.846 -0.8191 -0.4585  0.0807
   95MOL    C4435952   4.564   0.203   6.900  0.1753 -0.3618 -0.3475
   95MOL    C4535953   4.464   0.138   6.799 -0.3195  0.0043  1.0986
   95MOL    C4635954   4.766   0.294   6.751  0.4483  0.3078  0.3839
   95MOL    H4735955   4.919   0.251   6.896  0.3768  1.3704  0.9597
   95MOL    H4835956   4.839   0.535   6.850 -0.9280 -0.1547 -0.6392
   95MOL    H4935957   4.923   0.472   6.994  0.6700  0.6064 -0.0008
   95MOL    H5035958   4.747   0.346   7.054  1.0546  1.6088 -0.7004
   95MOL    H5135959   4.655   0.484   7.016 -1.0793 -1.3289  2.6655
   95MOL    H5235960   4.575   0.392   6.801 -2.8972 -1.0176  2.3384
   95MOL    H5335961   4.636   0.133   6.943 -0.5192 -0.6324  0.3951
   95MOL    H5435962   4.502   0.232   6.985 -0.0003  0.2654 -0.6939
   95MOL    H5535963   4.506   0.148   6.699  2.5110 -1.7453  2.0508
   95MOL    H5635964   4.379   0.206   6.789  0.1226  0.6014  1.3538
   95MOL    H5735965   4.769   0.193   6.711  1.8919  0.4241  0.1802
   95MOL    H5835966   4.757   0.359   6.664 -1.0079 -0.4195 -0.0401
   95MOL    C5935967   4.421   7.645   6.819  0.2126  0.1688  0.2265
   95MOL    C6035968   4.314   7.599   6.709  0.0492  0.8378  0.6180
   95MOL    C6135969   4.377   7.469   6.649  0.3766  0.0982  0.1874
   95MOL    C6235970   4.524   7.479   6.667 -0.1403 -0.0593  0.1652
   95MOL    C6335971   4.597   7.348   6.646 -0.1575  0.0491  1.0387
   95MOL    C6435972   4.598   7.299   6.498 -0.4048  0.0048 -0.4601
   95MOL    C6535973   4.540   7.543   6.812 -1.0934 -0.4693  0.2409
   95MOL    H6635974   4.389   7.637   6.923  0.5886 -0.1517  0.3165
   95MOL    H6735975   4.209   7.598   6.739  0.0749  1.7947  0.7828
   95MOL    H6835976   4.317   0.020   6.624  1.4563 -0.1658 -0.1532
   95MOL    H6935977   4.337   7.380   6.697 -0.8566  0.7316  0.3463
   95MOL    H7035978   4.351   7.457   6.543 -1.0851  2.2153  0.2780
   95MOL    H7135979   4.558   7.553   6.595 -1.8313 -0.9845 -1.6464
   95MOL    H7235980   4.553   7.268   6.706  0.7988 -0.4775  1.0313
   95MOL    H7335981   4.701   7.348   6.678  0.3669 -0.3318 -0.6435
   95MOL    H7435982   4.496   7.294   6.460  0.6818  0.2271 -3.5285
   95MOL    H7535983   4.660   7.364   6.437 -0.3135  0.6172  0.2777
   95MOL    H7635984   4.531   7.468   6.891 -3.5985 -1.3095 -0.7805
   95MOL    H7735985   4.640   7.584   6.828 -2.0708  2.0840  0.0420
   95MOL    C7835986   4.660   7.163   6.491 -0.3281  0.1446  0.4176
   95MOL    C7935987   4.562   7.050   6.526 -0.1053 -0.0052  0.3663
   95MOL    C8035988   4.566   6.939   6.425 -0.3535 -0.5041 -0.1936
   95MOL    C8135989   4.698   6.972   6.343  0.5080 -0.5041  0.4516
   95MOL    C8235990   4.710   6.906   6.205 -0.3133  0.5367 -0.1096
   95MOL    C8335991   4.847   6.923   6.139  0.5720  0.1414 -0.1810
   95MOL    C8435992   4.709   7.125   6.343 -0.4588  0.1916 -0.1030
   95MOL    H8535993   4.752   7.160   6.550 -0.1270 -4.8484  0.0784
   95MOL    H8635994   4.616   7.009   6.612  0.2690 -0.4218 -0.0592
   95MOL    H8735995   4.469   7.093   6.565 -0.5618  0.3137 -1.0557
   95MOL    H8835996   4.560   6.837   6.463  1.7749  0.0380  1.7131
   95MOL    H8935997   4.487   6.948   6.351 -2.1750  1.5353  1.9105
   95MOL    H9035998   4.777   6.934   6.408  1.1381 -1.5506 -0.8926
   95MOL    H9135999   4.635   6.951   6.141  0.4526  2.0030  0.0067
   95MOL    H9236000   4.688   6.799   6.208  0.2089  0.4442  0.7565
   95MOL    H9336001   4.884   7.025   6.152  0.9857 -0.1073  0.6249
   95MOL    H9436002   4.832   6.912   6.032  2.9110 -3.6342 -0.2038
   95MOL    H9536003   4.640   7.160   6.267 -0.6501  0.1914  0.0710
   95MOL    H9636004   4.813   7.159   6.338 -0.3019 -0.1225  0.8613
   95MOL    C9736005   4.954   6.822   6.189  0.2746 -0.3369  0.0104
   95MOL    C9836006   5.091   6.878   6.184 -0.2547  0.3159  0.1320
   95MOL    C9936007   5.191   6.756   6.195 -0.1828 -0.0706  0.5457
   95MOL   C10036008   5.097   6.636   6.150  0.0176  0.3086  0.4532
   95MOL   C10136009   5.153   6.545   6.045  0.0909 -0.2836 -0.5036
   95MOL   C10236010   5.290   6.477   6.075  0.6617 -0.2490 -0.4786
   95MOL   C10336011   4.960   6.689   6.112  0.0717  0.6266  0.0024
   95MOL   H10436012   4.937   6.790   6.292  0.7352  1.1833  0.5802
   95MOL   H10536013   5.093   6.924   6.085  0.9486 -0.0286 -0.0149
   95MOL   H10636014   5.114   6.957   6.256  1.0208 -0.6349  0.7737
   95MOL   H10736015   5.279   6.755   6.129  1.0290 -0.6461  2.1484
   95MOL   H10836016   5.225   6.742   6.297  1.7669 -0.4211 -0.1264
   95MOL   H10936017   5.085   6.582   6.244  1.2349 -1.9312 -0.6180
   95MOL   H11036018   5.076   6.469   6.034  0.1069 -0.4171  0.2676
   95MOL   H11136019   5.155   6.598   5.950 -1.5321  0.6366 -0.0310
   95MOL   H11236020   5.364   6.557   6.082 -0.5008  0.7559  0.6665
   95MOL   H11336021   5.289   6.427   6.172 -2.0150  1.3470  0.3618
   95MOL   H11436022   4.947   6.704   6.005 -1.8237 -2.4148 -0.2658
   95MOL   H11536023   4.877   6.622   6.135 -0.1214  0.4320 -1.2519
   95MOL   C11636024   5.337   6.378   5.967 -0.2565 -0.3505  0.2467
   95MOL   C11736025   5.357   6.440   5.830  0.1431 -0.3108 -0.6428
   95MOL   C11836026   5.484   6.382   5.774  0.3788  0.5326 -0.4742
   95MOL   C11936027   5.533   6.275   5.875  0.8991  0.1554  0.5288
   95MOL   C12036028   5.682   6.262   5.889  0.3782  0.2664 -0.3314
   95MOL   C12136029   5.738   6.147   5.804  0.2412  0.4182  0.2062
   95MOL   C12236030   5.474   6.327   6.003  0.0225  0.1342 -0.4712
   95MOL   H12336031   5.275   6.289   5.957  0.8195 -1.0602 -0.2213
   95MOL   H12436032   5.363   6.548   5.846 -1.1509 -0.3710  0.2798
   95MOL   H12536033   5.272   6.419   5.765  0.7947 -2.0130 -0.9536
   95MOL   H12636034   5.551   6.468   5.765  1.6778 -0.5401 -1.1261
   95MOL   H12736035   5.474   6.345   5.672 -0.5324 -2.5505  0.6834
   95MOL   H12836036   5.487   6.178   5.858 -0.5250  0.9555 -0.3577
   95MOL   H12936037   5.715   6.249   5.992 -0.2287 -0.6962 -0.2551
   95MOL   H13036038   5.730   6.357   5.863  0.0507  0.1928 -1.2383
   95MOL   H13136039   5.696   6.168   5.707  1.1491 -0.0552 -0.3035
   95MOL   H13236040   5.703   6.047   5.831  3.8513 -0.6163  1.3878
   95MOL   H13336041   5.472   6.259   6.089 -0.8627  2.5626  1.5035
   95MOL   H13436042   5.521   6.419   6.036 -0.2300 -0.5973  2.0997
   95MOL   C13536043   5.892   6.133   5.805 -0.1474  0.2158  0.5044
   95MOL   C13636044   5.944   6.099   5.952  0.6980 -0.1276  0.3016
   95MOL   C13736045   6.081   6.034   5.935  0.1603 -0.7050  0.3880
   95MOL   C13836046   6.068   5.958   5.805 -0.2018 -0.2453  1.0568
   95MOL   C13936047   6.200   5.964   5.730 -0.4895  0.3579  0.6102
   95MOL   C14036048   6.301   5.884   5.804 -0.1875  0.7962 -0.0382
   95MOL   C14136049   5.946   6.014   5.730 -0.0112 -0.0412 -0.2384
   95MOL   H14236050   5.945   6.219   5.763 -2.0960 -0.2843 -3.2030
   95MOL   H14336051   5.945   6.188   6.014  0.5769  1.6688 -2.2154
   95MOL   H14436052   5.877   6.025   5.997  0.0076  1.5420  2.1250
   95MOL   H14536053   6.148   6.118   5.920 -2.6845  1.7771  0.9913
   95MOL   H14636054   6.110   5.971   6.019  0.8576 -0.3374  0.4258
   95MOL   H14736055   6.038   5.858   5.835 -3.1403 -0.1260 -1.3216
   95MOL   H14836056   6.235   6.065   5.711 -0.6390 -0.0759 -2.2040
   95MOL   H14936057   6.177   5.909   5.638  1.2612 -0.8760  0.8807
   95MOL   H15036058   6.351   5.948   5.877 -3.6336  0.4738  2.7470
   95MOL   H15136059   6.249   5.817   5.873  1.8320 -0.8403 -0.0268
   95MOL   H15236060   5.863   5.946   5.744 -0.0857 -0.0468 -0.7018
   95MOL   H15336061   5.969   6.041   5.626  0.4584 -0.7677 -0.3265
   95MOL   C15436062   6.409   5.802   5.726 -0.3616  0.4828  0.0250
   95MOL   C15536063   6.364   5.678   5.652  0.2487  0.3042  0.2177
   95MOL   C15636064   6.464   5.572   5.675 -0.2546  0.7722  0.1694
   95MOL   C15736065   6.585   5.640   5.740 -0.2757  0.1966 -0.4098
   95MOL   C15836066   6.677   5.536   5.814 -0.1137 -0.1187 -1.1748
   95MOL   C15936067   6.737   5.419   5.737  0.0587  0.4259  0.2370
   95MOL   C16036068   6.520   5.754   5.824 -0.0894  0.0232 -0.0252
   95MOL   H16136069   6.450   5.871   5.652 -1.5136 -1.3012 -2.3496
   95MOL   H16236070   6.267   5.636   5.681  0.0322 -0.0894 -1.0114
   95MOL   H16336071   6.359   5.699   5.545 -0.3228  1.0691  0.3804
   95MOL   H16436072   6.408   5.497   5.731 -0.1723 -1.0361 -2.1146
   95MOL   H16536073   6.495   5.525   5.582 -0.9115  1.9934 -0.6815
   95MOL   H16636074   6.636   5.668   5.649  3.9896 -2.1505  1.0907
   95MOL   H16736075   6.626   5.493   5.901  0.4475 -0.5860 -1.0739
   95MOL   H16836076   6.756   5.599   5.856  0.2104  0.1154 -2.1374
   95MOL   H16936077   6.816   5.377   5.800 -1.7612  0.3403  2.5422
   95MOL   H17036078   6.651   5.352   5.725 -1.1217  2.0129 -0.3189
   95MOL   H17136079   6.597   5.827   5.848 -2.7192  3.1371 -0.8010
   95MOL   H17236080   6.478   5.726   5.921  1.8792  0.3211  0.9226
   95MOL   C17336081   6.796   5.467   5.598 -0.6572 -0.3381 -0.2203
   95MOL   C17436082   6.911   5.572   5.609 -0.5021  0.1641 -0.2436
   95MOL   C17536083   7.036   5.515   5.540  0.0921 -0.2478  0.3388
   95MOL   C17636084   6.988   5.413   5.436  0.3969 -0.1514  0.3930
   95MOL   C17736085   7.101   5.309   5.396  0.6326 -0.3079 -0.2836
   95MOL   C17836086   7.073   5.230   5.266 -0.9513 -0.2634  0.2375
   95MOL   C17936087   6.857   5.355   5.502  0.2987 -0.4149  0.5750
   95MOL   H18036088   6.717   5.514   5.540 -0.3120 -0.2420 -0.6179
   95MOL   H18136089   6.945   5.585   5.712  0.2604 -2.3933 -0.1438
   95MOL   H18236090   6.888   5.666   5.559 -0.5417  0.2199 -0.1207
   95MOL   H18336091   7.090   5.599   5.495 -1.6793  0.5619 -0.3238
   95MOL   H18436092   7.096   5.462   5.614  0.6919 -0.6059 -0.4022
   95MOL   H18536093   6.943   5.471   5.355  1.3394 -0.6163 -0.4743
   95MOL   H18636094   7.118   5.238   5.476 -0.7402 -0.6529 -0.2893
   95MOL   H18736095   7.188   5.374   5.384 -0.2763  1.1022  0.6310
   95MOL   H18836096   7.079   5.295   5.178 -0.6112 -1.0898 -0.3558
   95MOL   H18936097   6.972   5.191   5.278 -1.2338  0.2639 -0.3519
   95MOL   H19036098   6.885   5.265   5.557  1.1778  0.0934  0.9736
   95MOL   H19136099   6.778   5.326   5.433  1.1471  1.3496 -1.1812
   95MOL   C19236100   7.164   5.107   5.248 -0.5598 -0.4304 -0.0367
   95MOL   C19336101   7.133   5.044   5.108 -0.2978  0.2846 -0.3257
   95MOL   C19436102   7.133   4.894   5.129  0.3434 -0.5174  0.1191
   95MOL   C19536103   7.082   4.872   5.269  0.6533  0.2182 -0.1178
   95MOL   C19636104   7.130   4.740   5.330 -0.1537 -0.2379 -0.6762
   95MOL   C19736105   7.067   4.697   5.462 -0.1082  0.1551  0.9876
   95MOL   C19836106   7.136   4.995   5.349 -0.0906  0.7481  0.5813
   95MOL   H19936107   7.271   5.131   5.245 -1.3011  3.1202  0.4057
   95MOL   H20036108   7.027   5.063   5.089 -0.5951 -0.8558  0.1530
   95MOL   H20136109   7.192   5.087   5.027  0.2940 -2.2458 -1.2836
   95MOL   H20236110   7.237   4.863   5.120  0.1075 -1.0383 -1.0292
   95MOL   H20336111   7.076   4.845   5.049  1.8078 -0.0244 -1.2507
   95MOL   H20436112   6.973   4.875   5.269  0.6618  1.3866  1.7585
   95MOL   H20536113   7.237   4.738   5.349  0.1020  1.9638 -1.6878
   95MOL   H20636114   7.117   4.670   5.248 -2.8640 -0.5294 -0.0406
   95MOL   H20736115   6.959   4.681   5.457  0.1255 -1.2179  0.2378
   95MOL   H20836116   7.069   4.775   5.539  0.9949 -0.8235  1.9726
   95MOL   H20936117   7.225   4.964   5.404 -0.3261  1.4690  1.3691
   95MOL   H21036118   7.065   5.032   5.423 -0.0464 -1.1147  1.6074
   95MOL   C21136119   7.126   4.575   5.523  0.2416  0.3896 -0.2646
   95MOL   C21236120   7.058   4.514   5.648  0.4531  0.3094 -0.0277
   95MOL   C21336121   7.164   4.442   5.734 -0.1395  0.5652  0.1349
   95MOL   C21436122   7.297   4.472   5.653  0.2236  0.6605 -0.4189
   95MOL   C21536123   7.423   4.483   5.739  0.2618 -0.2356  0.0545
   95MOL   C21636124   7.558   4.486   5.668  0.3453 -0.4510  0.0318
   95MOL   C21736125   7.274   4.598   5.570 -0.0681 -0.0051  0.9014
   95MOL   H21836126   7.134   4.494   5.452  0.1967  0.8947 -0.8507
   95MOL   H21936127   7.027   4.598   5.709 -2.1856  1.5929 -3.0110
   95MOL   H22036128   6.980   4.444   5.616  0.3201 -0.3408  1.6639
   95MOL   H22136129   7.174   4.487   5.833  1.0868 -1.7370  1.1032
   95MOL   H22236130   7.142   4.338   5.758  1.5451  0.2303  0.2988
   95MOL   H22336131   7.314   4.389   5.585  0.0048 -0.3980  0.8069
   95MOL   H22436132   7.432   4.400   5.809  0.9090  0.1847  0.4742
   95MOL   H22536133   7.398   4.562   5.810 -2.3965 -1.5177  0.5681
   95MOL   H22636134   7.545   4.558   5.587 -0.1122 -1.8523 -1.1799
   95MOL   H22736135   7.630   4.531   5.736 -0.6257  0.9309  0.1582
   95MOL   H22836136   7.334   4.603   5.479 -1.1138  0.5767  0.2246
   95MOL   H22936137   7.293   4.689   5.626  0.9383  1.2716 -1.4298
   95MOL   C23036138   7.598   4.349   5.616  0.0643 -0.5786 -0.3460
   95MOL   C23136139   0.105   4.336   5.645 -0.2160 -0.0524  0.4294
   95MOL   C23236140   0.137   4.221   5.545  0.5833  0.2290 -0.1526
   95MOL   C23336141   0.054   4.249   5.422 -0.3968 -0.2519 -0.4097
   95MOL   C23436142   0.034   4.130   5.326 -0.0138 -0.3005  0.0816
   95MOL   C23536143   0.151   4.116   5.219 -0.2636  0.1085  0.3737
   95MOL   C23636144   7.576   4.317   5.472 -0.0568 -0.3300  0.0794
   95MOL   H23736145   7.555   4.262   5.666 -2.5271  2.1520  2.3818
   95MOL   H23836146   0.152   4.426   5.607  0.6923 -0.6631  0.0774
   95MOL   H23936147   0.130   4.318   5.750  1.0077 -1.8129 -0.1437
   95MOL   H24036148   0.113   4.126   5.593 -0.5968  2.7725  4.6596
   95MOL   H24136149   0.241   4.207   5.516  0.5978 -0.9018  0.4048
   95MOL   H24236150   0.102   4.327   5.363 -2.3125  0.4173 -1.1198
   95MOL   H24336151   7.591   4.157   5.269 -0.4979  2.9582  2.2087
   95MOL   H24436152   0.009   4.043   5.386  1.1697  0.2065  1.3266
   95MOL   H24536153   0.150   4.210   5.163  1.4428  0.7499  1.3671
   95MOL   H24636154   0.245   4.108   5.273 -1.3173 -1.2537  2.0400
   95MOL   H24736155   7.483   4.264   5.454  0.4635 -1.1178 -0.3077
   95MOL   H24836156   7.561   4.404   5.407 -0.5820  0.2501  0.9689
   95MOL   C24936157   0.128   3.999   5.119 -0.2233 -0.4823 -0.0770
   95MOL   C25036158   0.251   3.982   5.027  0.2372 -0.8019 -0.3354
   95MOL   C25136159   0.250   3.836   4.987 -0.4990 -0.1293 -0.1885
   95MOL   C25236160   0.223   3.769   5.113  0.7642  0.3277 -0.7753
   95MOL   C25336161   0.180   3.622   5.096 -0.2087 -0.4068  0.0413
   95MOL   C25436162   0.272   3.533   5.014  0.4494  0.4989  0.8319
   95MOL   C25536163   0.120   3.860   5.183 -0.3347 -0.2350  0.0401
   95MOL   H25636164   0.035   4.003   5.063 -0.2483 -0.9840 -0.0702
   95MOL   H25736165   0.234   4.058   4.951 -1.4329  1.2043  1.9455
   95MOL   H25836166   0.336   4.013   5.087 -2.5059  0.6804  2.9753
   95MOL   H25936167   0.347   3.804   4.949  0.6156  0.0653  2.4179
   95MOL   H26036168   0.175   3.829   4.908 -0.7351 -0.8878  0.0936
   95MOL   H26136169   0.314   3.769   5.173 -0.9774  0.0236  1.9828
   95MOL   H26236170   0.078   3.611   5.058  0.0184  1.2165 -1.0923
   95MOL   H26336171   0.187   3.587   5.199  0.3347 -2.8334 -0.7870
   95MOL   H26436172   0.376   3.560   5.031  0.5750  0.6970 -0.2363
   95MOL   H26536173   0.247   3.551   4.909  0.6761 -1.6595  0.3779
   95MOL   H26636174   0.133   3.843   5.290 -0.9487 -0.9536  0.0096
   95MOL   H26736175   0.016   3.830   5.169  0.0145 -1.8663  0.8050
   95MOL   C26836176   0.251   3.386   5.030 -0.4104 -0.2020  0.0160
   95MOL   C26936177   0.293   3.322   5.160  0.1841  0.0681 -0.0141
   95MOL   C27036178   0.334   3.184   5.134  0.1063 -0.3130  0.0271
   95MOL   C27136179   0.318   3.165   4.982  0.1883 -0.4212 -0.6904
   95MOL   C27236180   0.425   3.070   4.922  0.9472  0.7495 -0.4491
   95MOL   C27336181   0.416   2.921   4.973  1.1563  0.8281  0.3627
   95MOL   C27436182   0.344   3.306   4.931 -0.0243  0.6647 -0.7340
   95MOL   H27536183   0.144   3.364   5.025 -0.6540  0.6850  1.0277
   95MOL   H27636184   0.372   3.368   5.220 -1.1918  0.5182  1.4779
   95MOL   H27736185   0.209   3.301   5.226  2.1139  2.1269  3.2075
   95MOL   H27836186   0.437   3.164   5.165 -0.5017 -0.4858  2.0246
   95MOL   H27936187   0.261   3.123   5.187  0.6375 -0.5067  0.5543
   95MOL   H28036188   0.224   3.115   4.956  0.6988 -0.7453 -1.9567
   95MOL   H28136189   0.524   3.105   4.953  1.5118 -1.2141  0.0484
   95MOL   H28236190   0.418   3.067   4.814 -0.7052  0.5260 -0.3540
   95MOL   H28336191   0.388   2.922   5.078  0.9788 -0.4365  0.3332
   95MOL   H28436192   0.335   2.873   4.917 -1.0034  2.5725  1.8756
   95MOL   H28536193   0.446   3.339   4.948  0.0665  0.2024 -0.3761
   95MOL   H28636194   0.327   3.318   4.824 -1.1830 -0.2957 -0.6672
   95MOL   C28736195   0.540   2.829   4.966  0.4697  0.1488  0.3492
   95MOL   C28836196   0.597   2.810   4.828  0.0280 -0.3138 -0.1161
   95MOL   C28936197   0.728   2.733   4.852 -0.5225 -0.3345  0.0056
   95MOL   C29036198   0.773   2.785   4.995  0.5418  0.1732 -0.0230
   95MOL   C29136199   0.906   2.858   4.997  0.5780  0.2128 -0.0668
   95MOL   C29236200   0.941   2.922   5.135 -0.4478 -0.2726 -0.0476
   95MOL   C29336201   0.656   2.880   5.045  0.4786  0.0994  0.2409
   95MOL   H29436202   0.504   2.731   4.996 -0.2371  0.8884  1.9822
   95MOL   H29536203   0.523   2.758   4.766 -0.4688  0.6447 -0.3343
   95MOL   H29636204   0.623   2.906   4.783  1.7886 -0.1275  1.2830
   95MOL   H29736205   0.800   2.741   4.770 -0.3612  0.0732  0.1840
   95MOL   H29836206   0.702   2.627   4.852  1.5970 -0.8767  0.2485
   95MOL   H29936207   0.786   2.701   5.063  1.7745 -1.0171 -1.6903
   95MOL   H30036208   0.888   2.946   4.935  1.7295  1.4447  1.2806
   95MOL   H30136209   0.987   2.800   4.954  2.0589  0.0883  2.7277
   95MOL   H30236210   0.944   2.840   5.207 -0.3754 -2.6072 -2.6440
   95MOL   H30336211   0.860   2.988   5.165 -0.0278 -0.3074  1.2243
   95MOL   H30436212   0.686   2.983   5.023 -2.8501  1.1471  0.4413
   95MOL   H30536213   0.640   2.867   5.152  0.6755  0.4109  0.3091
   95MOL   C30636214   1.067   3.000   5.157  0.1950  0.7770 -0.8623
   95MOL   C30736215   1.065   3.131   5.089  0.3911  0.4144 -0.4666
   95MOL   C30836216   1.138   3.228   5.171 -0.8934 -0.1426 -0.6796
   95MOL   C30936217   1.201   3.145   5.286 -0.4717 -0.1890 -0.2067
   95MOL   C31036218   1.231   3.221   5.418 -0.1268  1.0579  0.1318
   95MOL   C31136219   1.266   3.130   5.543  0.0424  0.1175  0.1253
   95MOL   C31236220   1.111   3.032   5.305 -0.4560  1.1105  0.1455
   95MOL   H31336221   1.157   2.954   5.116 -0.7420 -0.9052 -1.0567
   95MOL   H31436222   1.098   3.131   4.985  1.2154 -1.4145 -0.2152
   95MOL   H31536223   0.963   3.168   5.078  0.3458 -0.1199 -1.9712
   95MOL   H31636224   1.207   3.290   5.115 -2.1367  1.7257 -0.2037
   95MOL   H31736225   1.060   3.291   5.214  0.5760 -0.6257  2.9090
   95MOL   H31836226   1.297   3.106   5.250  0.2995 -0.3843  1.9918
   95MOL   H31936227   1.310   3.295   5.405  0.2911  0.8621  1.4631
   95MOL   H32036228   1.136   3.273   5.431 -1.0069 -0.7435  1.1273
   95MOL   H32136229   1.357   3.072   5.526  0.3474  0.2040  1.3720
   95MOL   H32236230   1.184   3.063   5.567  0.8737 -2.6414 -4.1727
   95MOL   H32336231   1.025   3.054   5.369 -1.4360 -0.7953 -0.4970
   95MOL   H32436232   1.166   2.952   5.355 -1.7386  0.1812  0.0963
   95MOL   C32536233   1.280   3.223   5.663  0.0879 -0.6115 -0.5080
   95MOL   C32636234   1.305   3.147   5.795 -0.1474  0.4967 -0.6667
   95MOL   C32736235   1.357   3.254   5.888  0.2803 -0.4766  0.5863
   95MOL   C32836236   1.445   3.342   5.796 -0.2360  0.0175 -0.2636
   95MOL   C32936237   1.453   3.484   5.845 -0.3056  0.0975  0.3269
   95MOL   C33036238   1.504   3.498   5.985 -0.6158  0.5236  0.6664
   95MOL   C33136239   1.397   3.321   5.653  0.1083  0.6033  0.0275
   95MOL   H33236240   1.190   3.278   5.690 -0.3455 -1.7493  0.4025
   95MOL   H33336241   1.383   3.071   5.792  0.3027  0.8979  0.5906
   95MOL   H33436242   1.213   3.095   5.822  0.1356  0.2344 -0.2161
   95MOL   H33536243   1.267   3.299   5.929 -0.0521 -0.9270  0.3545
   95MOL   H33636244   1.410   3.211   5.973  1.3341  2.1683  1.2967
   95MOL   H33736245   1.549   3.309   5.797 -0.4684 -0.7421 -0.9735
   95MOL   H33836246   1.517   3.538   5.775 -2.0617  1.1889 -0.4761
   95MOL   H33936247   1.362   3.543   5.833 -1.7617 -1.7555  1.8704
   95MOL   H34036248   1.439   3.455   6.062  1.0153 -1.5554  0.9271
   95MOL   H34136249   1.596   3.444   6.008 -1.2357 -0.6774  0.3707
   95MOL   H34236250   1.470   3.270   5.590  0.4528  1.1002  0.0202
   95MOL   H34336251   1.366   3.412   5.602 -3.4785 -0.5564 -0.0409
   95MOL   C34436252   1.538   3.639   6.034  0.2427 -0.0167 -0.2879
   95MOL   C34536253   1.636   3.717   5.941  0.5310 -0.0469 -0.1943
   95MOL   C34636254   1.745   3.770   6.042  0.9218 -0.7162  0.4096
   95MOL   C34736255   1.750   3.684   6.158  0.1587 -0.3276 -0.0799
   95MOL   C34836256   1.826   3.742   6.274 -0.6340 -0.0550  0.5705
   95MOL   C34936257   1.973   3.779   6.230  0.7296 -0.2883  1.1917
   95MOL   C35036258   1.601   3.642   6.180  0.4209  0.3684 -0.1942
   95MOL   H35136259   1.441   3.688   6.037 -0.1437 -0.8573  2.1059
   95MOL   H35236260   1.595   3.796   5.878 -0.2739  0.7008  1.2676
   95MOL   H35336261   1.692   3.654   5.871 -1.0802 -2.5052  0.6760
   95MOL   H35436262   1.838   3.765   5.986  1.3832  1.2985  0.9839
   95MOL   H35536263   1.709   3.871   6.063 -1.5710 -2.0883  3.0110
   95MOL   H35636264   1.803   3.596   6.121  0.4740 -0.9200  1.7682
   95MOL   H35736265   1.783   3.836   6.308  2.4761  1.1393  1.3434
   95MOL   H35836266   1.826   3.677   6.363  2.2121 -1.9057 -0.7078
   95MOL   H35936267   1.978   3.861   6.158  1.1690  0.2051  1.7744
   95MOL   H36036268   2.010   3.694   6.173 -1.3389  0.0507 -0.7061
   95MOL   H36136269   1.583   3.557   6.246 -0.7564  0.1448 -0.7825
   95MOL   H36236270   1.545   3.717   6.236 -1.3322 -0.5476 -0.6811
   95MOL   C36336271   2.073   3.806   6.354  0.0257 -0.5848 -0.2005
   95MOL   C36436272   2.042   3.933   6.428  0.3398 -0.3247  0.1745
   95MOL   C36536273   2.172   3.970   6.503  0.2057  1.1062 -0.1234
   95MOL   C36636274   2.286   3.906   6.422 -0.2625 -0.0411  0.2259
   95MOL   C36736275   2.372   4.010   6.354  0.7494  0.4693 -0.2281
   95MOL   C36836276   2.498   3.970   6.273  0.0490  0.2456 -0.2723
   95MOL   C36936277   2.224   3.824   6.312  0.5958  0.0592 -0.0366
   95MOL   H37036278   2.071   3.711   6.407 -0.2118  0.1368  1.1347
   95MOL   H37136279   2.026   4.014   6.357  0.1744  0.0280  0.6145
   95MOL   H37236280   1.957   3.924   6.494 -0.3652  0.5402 -0.6084
   95MOL   H37336281   2.176   4.079   6.514 -0.3534  1.1018  0.1506
   95MOL   H37436282   2.168   3.925   6.601 -1.8558 -0.9834 -1.1111
   95MOL   H37536283   2.368   3.860   6.477 -0.3612  0.3777  0.7386
   95MOL   H37636284   2.311   4.072   6.288 -0.8023  0.9120  1.5673
   95MOL   H37736285   2.403   4.088   6.424  0.2839  0.3745  0.0869
   95MOL   H37836286   2.495   3.872   6.227  2.8426  0.2609 -0.6245
   95MOL   H37936287   2.590   3.965   6.332 -2.8880  0.3180  4.6347
   95MOL   H38036288   2.241   3.866   6.213  2.1525 -0.4191  0.0121
   95MOL   H38136289   2.278   3.731   6.295 -1.4853 -1.4803  1.4313
   95MOL   H38236290   2.510   4.044   6.194  0.9804  1.0485  0.6098
   96MOL     C136291   5.431   3.136   1.497 -0.4083  0.1497  0.1131
   96MOL     C236292   5.357   3.021   1.555 -0.0296 -0.4388 -0.0697
   96MOL     C336293   5.254   3.078   1.650 -0.7331  0.2971 -0.4215
   96MOL     C436294   5.273   3.228   1.651  0.3840 -0.3503  0.0639
   96MOL     C536295   5.267   3.307   1.786  0.0514  0.2688  0.2954
   96MOL     C636296   5.123   3.335   1.837  0.1156 -0.0556 -0.0893
   96MOL     C736297   5.417   3.248   1.598 -0.7254  0.6717  0.3955
   96MOL     H836298   5.532   3.111   1.465 -0.2706  1.7047 -0.7356
   96MOL     H936299   5.421   2.958   1.617 -0.2797 -1.4082 -0.7874
   96MOL    H1036300   5.303   2.955   1.487 -1.1024  0.3031  0.0490
   96MOL    H1136301   5.150   3.057   1.622 -1.9748  1.9646  2.6869
   96MOL    H1236302   5.260   3.039   1.751 -0.0015  2.7306  0.5007
   96MOL    H1336303   5.215   3.278   1.573 -0.1961 -0.2290  0.5740
   96MOL    H1436304   5.326   3.244   1.852  1.2912  0.2006 -0.8472
   96MOL    H1536305   5.321   3.402   1.781  0.2188  0.0449 -2.9928
   96MOL    H1636306   5.077   3.406   1.769  1.2522  0.4088 -0.3897
   96MOL    H1736307   5.059   3.248   1.827 -1.2104  1.0937 -1.7643
   96MOL    H1836308   5.437   3.343   1.548 -1.4785  1.2238  1.1258
   96MOL    H1936309   5.493   3.240   1.675  1.3388  1.6028 -1.4755
   96MOL    H2036310   5.378   3.157   1.404  0.3520 -1.3542 -0.6716
   96MOL    C2136311   5.126   3.396   1.980 -0.2020  0.2297 -0.1414
   96MOL    C2236312   4.983   3.419   2.044 -0.5932  0.7782 -0.1187
   96MOL    C2336313   4.995   3.429   2.192 -0.0491 -0.5121 -0.8347
   96MOL    C2436314   5.137   3.371   2.220 -0.0771  0.1675 -0.5576
   96MOL    C2536315   5.142   3.274   2.335  0.8496 -0.3902  0.7151
   96MOL    C2636316   5.278   3.231   2.379 -0.5045 -0.3985 -0.0898
   96MOL    C2736317   5.194   3.317   2.086 -0.0140  0.0022  0.0103
   96MOL    H2836318   5.174   3.494   1.981 -2.6909  1.4847 -0.6047
   96MOL    H2936319   4.927   3.504   2.005 -0.4368  2.0009  2.2314
   96MOL    H3036320   4.916   3.335   2.025 -1.3982  1.6189 -1.0217
   96MOL    H3136321   4.971   3.529   2.230  0.2962 -1.2212  1.3084
   96MOL    H3236322   4.915   3.367   2.232 -0.1812 -0.3896 -0.9075
   96MOL    H3336323   5.197   3.458   2.245 -2.0913  1.4032  0.0837
   96MOL    H3436324   5.071   3.193   2.321 -0.0183  0.3209  0.9863
   96MOL    H3536325   5.082   3.323   2.411 -0.2897 -0.2548 -0.2627
   96MOL    H3636326   5.340   3.191   2.299  1.7455 -0.3038  1.5429
   96MOL    H3736327   5.276   3.148   2.449  0.0648 -0.8968 -0.6588
   96MOL    H3836328   5.303   3.324   2.090 -0.0531  0.1280  1.0652
   96MOL    H3936329   5.180   3.210   2.076  1.5097 -0.2257  0.2035
   96MOL    C4036330   5.356   3.344   2.448  0.4116 -0.3534  0.8326
   96MOL    C4136331   5.307   3.382   2.587 -0.6438 -0.2925  0.0143
   96MOL    C4236332   5.428   3.421   2.665 -0.0390  0.0718 -0.0962
   96MOL    C4336333   5.553   3.408   2.569  0.4359 -0.0856 -0.4016
   96MOL    C4436334   5.598   3.545   2.513  0.0448 -0.2889  0.1226
   96MOL    C4536335   5.740   3.543   2.458  0.0789 -0.0334  0.8428
   96MOL    C4636336   5.499   3.308   2.469 -0.5037 -0.7444  0.0489
   96MOL    H4736337   5.352   3.433   2.385  1.3854 -0.0461  1.1869
   96MOL    H4836338   5.259   3.300   2.640 -0.9519 -1.5409 -2.1393
   96MOL    H4936339   5.250   3.475   2.576  0.4542  0.1746 -1.9121
   96MOL    H5036340   5.427   3.526   2.693  0.5239  0.5358 -1.8101
   96MOL    H5136341   5.438   3.362   2.757  0.5124 -0.6741 -0.6289
   96MOL    H5236342   5.643   3.363   2.612  0.1713 -0.3034 -0.0685
   96MOL    H5336343   5.529   3.574   2.434  0.1665  1.9226  0.8119
   96MOL    H5436344   5.591   3.621   2.590 -0.3971 -1.4479  1.2503
   96MOL    H5536345   5.747   3.471   2.376 -1.9711 -0.1492  0.7584
   96MOL    H5636346   5.804   3.508   2.539 -1.0771 -0.2141  1.6843
   96MOL    H5736347   5.563   3.308   2.380  1.1838  1.1891  1.2388
   96MOL    H5836348   5.501   3.208   2.513  2.3354 -1.0685 -0.7166
   96MOL    C5936349   5.783   3.684   2.406  0.0169 -0.1228  0.8121
   96MOL    C6036350   5.922   3.694   2.360 -0.4959 -0.2319  0.0652
   96MOL    C6136351   5.921   3.820   2.264  0.0511 -0.2389 -0.3871
   96MOL    C6236352   5.778   3.821   2.200 -0.9374 -0.1373  0.2111
   96MOL    C6336353   5.728   3.965   2.188  0.4958 -0.8003 -0.0169
   96MOL    C6436354   5.618   3.994   2.092  0.1435  0.1489  0.7356
   96MOL    C6536355   5.686   3.730   2.292  0.3781  0.4853  0.3102
   96MOL    H6636356   5.757   3.753   2.487  2.6283  1.4322  0.3856
   96MOL    H6736357   6.006   3.691   2.429  1.0632 -1.0949 -1.8351
   96MOL    H6836358   5.937   3.611   2.292  1.4944  0.1296  0.0540
   96MOL    H6936359   5.920   3.906   2.331  1.7585 -0.5362  0.0370
   96MOL    H7036360   6.013   3.821   2.206  0.0534  1.2202 -0.3591
   96MOL    H7136361   5.781   3.770   2.104  0.1370  2.1515 -0.9872
   96MOL    H7236362   5.804   4.043   2.182 -1.7428  1.2948 -2.1939
   96MOL    H7336363   5.696   4.006   2.283  0.3178  1.8171 -1.1384
   96MOL    H7436364   5.661   3.965   1.996 -0.1787  2.1357 -0.0314
   96MOL    H7536365   5.542   3.922   2.122 -0.3939 -0.0750 -1.1284
   96MOL    H7636366   5.608   3.790   2.340  0.5613 -0.9117  2.4062
   96MOL    H7736367   5.635   3.646   2.246  0.8927 -0.3589  1.2586
   96MOL    C7836368   5.566   4.138   2.087 -0.4089  0.3998  0.4999
   96MOL    C7936369   5.448   4.158   1.987  0.1516 -0.1070 -0.2545
   96MOL    C8036370   5.401   4.303   2.002  0.1070 -0.2924 -0.2063
   96MOL    C8136371   5.430   4.332   2.152 -0.5075 -0.2756 -0.4875
   96MOL    C8236372   5.318   4.394   2.229  0.0474  0.4497 -0.4443
   96MOL    C8336373   5.280   4.527   2.154 -0.8427 -0.8935  0.2177
   96MOL    C8436374   5.496   4.204   2.205  0.3052  0.1725 -0.7127
   96MOL    H8536375   5.645   4.204   2.049  0.1794 -0.5123  0.1102
   96MOL    H8636376   5.486   4.147   1.886  1.0814  2.7034 -0.2668
   96MOL    H8736377   5.361   4.101   2.020  0.5159  1.0599  2.9678
   96MOL    H8836378   5.455   4.366   1.932 -2.6474  0.2645 -1.9231
   96MOL    H8936379   5.295   4.304   1.978  0.0590  0.2153  0.0247
   96MOL    H9036380   5.515   4.400   2.158 -1.3835  0.6237  2.1226
   96MOL    H9136381   5.352   4.415   2.331  1.5262  2.6029 -1.3499
   96MOL    H9236382   5.233   4.328   2.242  0.4699  0.1247  0.8397
   96MOL    H9336383   5.229   4.518   2.058 -0.7009 -1.5025  0.1958
   96MOL    H9436384   5.365   4.594   2.148 -0.9410 -0.9608 -2.0325
   96MOL    H9536385   5.425   4.140   2.257 -0.7096  2.2716  0.5714
   96MOL    H9636386   5.574   4.232   2.277 -0.8874 -3.6515  2.2297
   96MOL    C9736387   5.179   4.598   2.241 -0.1525 -0.0084 -0.2083
   96MOL    C9836388   5.040   4.526   2.235 -0.1480 -0.9666  0.0580
   96MOL    C9936389   4.942   4.630   2.175  0.5298  0.3922 -0.0778
   96MOL   C10036390   4.999   4.766   2.207  0.0950 -0.7387 -0.4387
   96MOL   C10136391   4.952   4.875   2.116 -0.3782  0.0338  0.4689
   96MOL   C10236392   5.009   5.018   2.143  0.0454 -0.2591  0.7508
   96MOL   C10336393   5.152   4.743   2.195 -0.2433  0.2319 -0.5428
   96MOL   H10436394   5.213   4.613   2.344  1.5335 -2.4099 -0.3727
   96MOL   H10536395   5.038   4.450   2.157  0.2421  0.2756 -1.1928
   96MOL   H10636396   4.998   4.471   2.319  1.0514 -2.2966 -0.1983
   96MOL   H10736397   4.930   4.626   2.067 -1.4515  0.1815  0.1207
   96MOL   H10836398   4.842   4.610   2.213  0.1134  0.7693 -0.9495
   96MOL   H10936399   4.965   4.791   2.308 -2.4198  0.7952 -1.6263
   96MOL   H11036400   4.976   4.846   2.013 -0.7960  1.1090  0.0564
   96MOL   H11136401   4.843   4.879   2.118 -0.4465  1.6239 -2.7270
   96MOL   H11236402   4.990   5.038   2.248 -1.8200 -0.5971  0.4972
   96MOL   H11336403   5.118   5.028   2.143  0.0271 -0.0563  0.8800
   96MOL   H11436404   5.188   4.749   2.092  1.2923 -0.3266 -0.0643
   96MOL   H11536405   5.203   4.817   2.257  0.2116 -2.5022  2.5033
   96MOL   C11636406   4.940   5.124   2.061  0.3049 -0.3138  0.0432
   96MOL   C11736407   4.912   5.256   2.137 -0.0912  0.2646  0.0215
   96MOL   C11836408   4.908   5.365   2.027 -0.3755  0.3262 -0.4686
   96MOL   C11936409   4.955   5.299   1.893 -0.1259  0.3259  0.3427
   96MOL   C12036410   5.049   5.388   1.816 -0.4562  0.1355  0.1198
   96MOL   C12136411   5.116   5.327   1.689  0.0261  0.3341 -0.7819
   96MOL   C12236412   5.017   5.159   1.932  0.1429 -0.3804 -0.1886
   96MOL   H12336413   4.844   5.082   2.034 -0.3817 -0.6367  2.9133
   96MOL   H12436414   4.984   5.280   2.215 -1.9874 -1.7833  2.5015
   96MOL   H12536415   4.815   5.242   2.185 -0.0834 -3.6006 -0.9132
   96MOL   H12636416   4.973   5.447   2.055  1.2432 -0.6574 -1.2636
   96MOL   H12736417   4.810   5.413   2.030  0.5608  2.2371 -0.1293
   96MOL   H12836418   4.875   5.290   1.819  0.2794 -0.2408 -0.0327
   96MOL   H12936419   5.130   5.421   1.882  1.1463 -3.5837  0.1769
   96MOL   H13036420   4.988   5.474   1.789  2.3014  3.1588  3.0213
   96MOL   H13136421   5.045   5.287   1.617 -0.6517  0.1799 -0.0324
   96MOL   H13236422   5.181   5.242   1.709 -0.4040  0.4602  1.2231
   96MOL   H13336423   5.016   5.079   1.858 -2.8727  0.5045 -1.1845
   96MOL   H13436424   5.117   5.182   1.969 -0.3142 -1.3732  1.7322
   96MOL   C13536425   5.205   5.426   1.610  0.4318 -0.3429  0.3739
   96MOL   C13636426   5.329   5.381   1.536  0.0404  0.2903 -0.5030
   96MOL   C13736427   5.320   5.443   1.394 -0.6555 -0.2727 -0.1203
   96MOL   C13836428   5.182   5.489   1.369 -0.5699 -0.4530 -0.9171
   96MOL   C13936429   5.183   5.616   1.284 -0.4213 -1.0035  0.6238
   96MOL   C14036430   5.256   5.601   1.145 -0.2870  0.2788 -0.1198
   96MOL   C14136431   5.123   5.506   1.511 -0.0767  0.2229  0.8038
   96MOL   H14236432   5.235   5.499   1.685 -0.8068 -0.5382  1.0740
   96MOL   H14336433   5.418   5.404   1.594  0.6782 -0.2622 -1.2513
   96MOL   H14436434   5.326   5.272   1.532 -0.7321  0.1982  1.8383
   96MOL   H14536435   5.383   5.532   1.399 -0.6600 -0.3880  2.6704
   96MOL   H14636436   5.360   5.373   1.321 -0.1793  1.4123 -1.4998
   96MOL   H14736437   5.125   5.419   1.307 -0.5709 -1.2292 -0.0516
   96MOL   H14836438   5.227   5.692   1.348  1.4823 -2.5486  1.2010
   96MOL   H14936439   5.084   5.661   1.270 -0.4918 -0.1475  3.6525
   96MOL   H15036440   5.354   5.556   1.160 -0.2287  0.1221 -0.9372
   96MOL   H15136441   5.220   5.517   1.085  0.4340 -1.8966  2.3789
   96MOL   H15236442   5.018   5.480   1.503  0.4061 -2.0529  1.5392
   96MOL   H15336443   5.133   5.609   1.545 -0.2506  0.3607  0.4479
   96MOL   C15436444   5.269   5.728   1.057 -0.4815  0.0999 -0.3044
   96MOL   C15536445   5.143   5.810   1.037 -0.1444  0.0999  0.0082
   96MOL   C15636446   5.161   5.892   0.914 -0.0076 -0.6018 -0.0955
   96MOL   C15736447   5.280   5.829   0.843 -0.7764  0.2290 -0.0384
   96MOL   C15836448   5.247   5.815   0.690  0.1839 -0.2762 -0.1771
   96MOL   C15936449   5.357   5.740   0.616  1.0187  0.1859 -0.2190
   96MOL   C16036450   5.313   5.702   0.914 -0.1888  0.5877  0.3421
   96MOL   H16136451   5.346   5.789   1.102 -1.0620  0.1023  0.6984
   96MOL   H16236452   5.058   5.743   1.031  0.5069 -0.6497 -0.9663
   96MOL   H16336453   5.134   5.872   1.127  0.8445  0.9031 -0.4387
   96MOL   H16436454   5.068   5.909   0.859  0.3622 -0.0182 -0.5405
   96MOL   H16536455   5.201   5.988   0.947  0.9330 -0.7273 -0.8347
   96MOL   H16636456   5.369   5.893   0.847  1.4448 -2.7118 -0.7026
   96MOL   H16736457   5.241   5.910   0.638 -0.6917 -0.5088 -0.5084
   96MOL   H16836458   5.145   5.779   0.675 -0.0946  0.6767 -0.5583
   96MOL   H16936459   5.451   5.788   0.645  1.1721  0.4513 -1.1206
   96MOL   H17036460   5.359   5.640   0.659 -1.7343  0.9220  1.7286
   96MOL   H17136461   5.420   5.679   0.913  0.4376  3.2262  0.0069
   96MOL   H17236462   5.253   5.626   0.865  1.2577 -0.1053 -0.4112
   96MOL   C17336463   5.327   5.749   0.465  0.9474 -0.4110  0.8361
   96MOL   C17436464   5.436   5.682   0.378  0.0619 -0.4660  0.3683
   96MOL   C17536465   5.350   5.615   0.265 -0.3854  1.1970  0.1234
   96MOL   C17636466   5.204   5.656   0.276  0.2393  0.4393  0.0636
   96MOL   C17736467   5.108   5.553   0.204 -0.1539 -0.0771 -0.7452
   96MOL   C17836468   4.966   5.619   0.201 -0.4011 -0.5692  0.2088
   96MOL   C17936469   5.201   5.665   0.425  0.5072  0.1171 -0.6521
   96MOL   H18036470   5.317   5.853   0.436 -1.6545 -0.9864 -0.5283
   96MOL   H18136471   5.508   5.614   0.423  2.5187  2.1718  0.5643
   96MOL   H18236472   5.490   5.760   0.324 -1.4232 -1.1147 -2.1489
   96MOL   H18336473   5.391   5.620   0.164 -0.1271  3.5166  0.3002
   96MOL   H18436474   5.353   5.507   0.277 -0.0258  1.2980  0.9819
   96MOL   H18536475   5.191   5.758   0.240  0.2773  0.9256  1.4101
   96MOL   H18636476   5.110   5.464   0.267 -0.7290  0.5305  0.1324
   96MOL   H18736477   5.138   5.527   0.102 -0.7212  2.5853 -1.6196
   96MOL   H18836478   4.957   5.701   0.272 -0.0699 -0.2518 -0.1105
   96MOL   H18936479   4.895   5.540   0.225 -1.0978  0.0730  0.2492
   96MOL   H19036480   5.204   5.566   0.471  2.8318  0.3718 -0.1812
   96MOL   H19136481   5.106   5.710   0.454  0.6643  1.1486 -1.6927
   96MOL   C19236482   4.928   5.678   0.065 -0.7640 -0.2443  0.0709
   96MOL   C19336483   5.009   5.798   0.014 -0.2094  0.2331 -0.3968
   96MOL   C19436484   4.915   5.904   7.611 -0.1268  0.5658  0.1096
   96MOL   C19536485   4.774   5.873   0.023  0.2280  0.9333  0.2203
   96MOL   C19636486   4.648   5.896   7.583  0.0684  0.0257  0.3962
   96MOL   C19736487   4.625   6.045   7.549  0.5764  0.4448 -0.0757
   96MOL   C19836488   4.780   5.726   0.066 -0.5181  0.1242  0.3026
   96MOL   H19936489   4.935   5.603   7.634  1.1813  1.6561 -1.6476
   96MOL   H20036490   5.072   5.839   0.093  0.2031  0.7350 -0.9810
   96MOL   H20136491   5.074   5.766   7.580 -1.2810 -0.4554 -0.9976
   96MOL   H20236492   4.902   5.893   7.503  2.5480  0.4081 -0.2355
   96MOL   H20336493   4.950   6.006   7.628  0.7895  0.5170 -1.3826
   96MOL   H20436494   4.781   5.926   0.118  0.1350 -1.7649  1.7990
   96MOL   H20536495   4.559   5.852   7.629  0.5458 -1.8331 -0.3903
   96MOL   H20636496   4.646   5.847   7.485 -0.2253  0.6367  0.0980
   96MOL   H20736497   4.721   6.069   7.503  0.5474 -1.6369 -1.2893
   96MOL   H20836498   4.615   6.104   7.640 -0.1289 -0.7928  0.6670
   96MOL   H20936499   4.719   5.661   0.004 -1.3003  1.1576 -0.0331
   96MOL   H21036500   4.738   5.719   0.166 -0.6454  0.7345  0.2973
   96MOL   C21136501   4.506   6.068   7.451  0.1310  0.6617 -0.4850
   96MOL   C21236502   4.502   6.216   7.393 -0.4326  1.0370  0.3165
   96MOL   C21336503   4.358   6.271   7.409 -0.2449  0.4878 -0.5547
   96MOL   C21436504   4.311   6.199   7.539  0.4663 -0.0223  0.0630
   96MOL   C21536505   4.358   6.281   0.011  0.9414 -0.3661  0.0883
   96MOL   C21636506   4.331   6.222   0.153  0.0310 -0.1609  0.2110
   96MOL   C21736507   4.367   6.053   7.519  0.6640 -0.0150  0.5263
   96MOL   H21836508   4.523   6.000   7.368 -0.5731  1.0391 -0.9462
   96MOL   H21936509   4.575   6.277   7.445  0.8493  1.0016 -1.3955
   96MOL   H22036510   4.534   6.211   7.289  2.3100 -1.7135  1.2221
   96MOL   H22136511   4.356   6.378   7.427  1.9510  0.2250  1.6152
   96MOL   H22236512   4.294   6.247   7.325 -0.4551 -0.9938  0.0062
   96MOL   H22336513   4.202   6.199   7.538  0.4611  0.4021  0.4201
   96MOL   H22436514   4.301   6.373   0.019  0.5627 -0.4666 -1.2963
   96MOL   H22536515   4.464   6.307   0.001  0.4044  1.6653 -0.6050
   96MOL   H22636516   4.230   6.195   0.184  0.1290 -0.4470  0.2788
   96MOL   H22736517   4.390   6.131   0.157  2.1337  1.2442  1.7255
   96MOL   H22836518   4.300   6.017   7.440  0.8720  0.1959  0.2531
   96MOL   H22936519   4.379   5.979   7.597  0.2909 -2.0509 -1.2888
   96MOL   C23036520   4.370   6.321   0.265  1.0441 -0.8049 -1.7146
   96MOL   C23136521   4.512   6.364   0.285  0.7319  0.2318  0.4320
   96MOL   C23236522   4.525   6.378   0.436 -0.1291  0.4266  0.1841
   96MOL   C23336523   4.449   6.269   0.498 -0.2150 -0.4670  0.4665
   96MOL   C23436524   4.420   6.271   0.646 -0.0935 -0.7478  0.5766
   96MOL   C23536525   4.352   6.150   0.708 -1.2755 -0.3397 -0.7111
   96MOL   C23636526   4.329   6.281   0.405  0.2730 -0.2725  0.9158
   96MOL   H23736527   4.317   6.414   0.242 -1.2544 -1.0407  2.1018
   96MOL   H23836528   4.573   6.284   0.245 -0.5344 -1.0615  1.0503
   96MOL   H23936529   4.544   6.457   0.239 -2.5631  1.6591  0.8537
   96MOL   H24036530   4.481   6.475   0.463 -1.9515 -0.2353 -0.3288
   96MOL   H24136531   4.627   6.375   0.475 -0.3856 -1.1453  0.7461
   96MOL   H24236532   4.503   6.180   0.467  1.2942  0.3476  0.7278
   96MOL   H24336533   4.360   6.360   0.668  2.2196  1.1873 -0.6633
   96MOL   H24436534   4.517   6.295   0.691  0.5662 -1.8032 -0.2734
   96MOL   H24536535   4.259   6.131   0.655 -1.7277 -1.0073  0.3098
   96MOL   H24636536   4.419   6.064   0.708 -0.8108 -0.0078 -2.6709
   96MOL   H24736537   4.248   6.339   0.449 -2.7078 -1.7233 -2.3923
   96MOL   H24836538   4.289   6.180   0.398  1.0819 -0.4087 -3.4190
   96MOL   C24936539   4.313   6.179   0.857 -0.3323 -0.1216 -0.5488
   96MOL   C25036540   4.176   6.250   0.866  0.0838 -0.1958 -0.7356
   96MOL   C25136541   4.110   6.186   0.987  1.0055  0.6873  0.1024
   96MOL   C25236542   4.164   6.040   0.987  0.8561  0.3690  0.0319
   96MOL   C25336543   4.134   5.961   1.120 -0.5710  0.8293  0.5579
   96MOL   C25436544   3.997   5.898   1.119  0.1437 -0.1259 -0.6031
   96MOL   C25536545   4.317   6.066   0.958 -0.4508  0.9820  0.1693
   96MOL   H25636546   4.385   6.250   0.897 -1.9700  1.1500  0.1929
   96MOL   H25736547   4.186   6.358   0.880 -0.5979 -0.3144  0.7880
   96MOL   H25836548   4.114   6.242   0.777  0.0734 -1.6048 -0.6092
   96MOL   H25936549   4.003   6.206   0.983  1.3818  2.9499  0.5579
   96MOL   H26036550   4.148   6.242   1.072  0.0256  1.2582  0.1730
   96MOL   H26136551   4.114   5.983   0.909 -1.2984  0.0054  1.6092
   96MOL   H26236552   4.148   6.025   1.207 -1.2548 -0.5391  1.7078
   96MOL   H26336553   4.216   5.890   1.137 -0.7385 -0.0721 -2.1519
   96MOL   H26436554   4.012   5.792   1.139  0.9047 -0.6659 -3.8590
   96MOL   H26536555   3.957   5.901   1.018 -0.1285 -0.4681 -0.5053
   96MOL   H26636556   4.362   5.981   0.908 -2.2970 -0.3216  0.6429
   96MOL   H26736557   4.367   6.086   1.053  0.1409  1.6865 -0.2936
   96MOL   C26836558   3.898   5.959   1.225  0.3699 -0.2206 -0.2514
   96MOL   C26936559   3.762   5.888   1.249  0.5024  0.6459 -0.5355
   96MOL   C27036560   3.650   5.994   1.220 -0.2610 -0.3439 -0.5992
   96MOL   C27136561   3.713   6.124   1.259  0.0246  0.4074 -0.2757
   96MOL   C27236562   3.640   6.241   1.195  0.2093 -0.0451  0.3093
   96MOL   C27336563   3.706   6.378   1.230  0.4791  0.4193 -0.3523
   96MOL   C27436564   3.850   6.102   1.195  0.5354 -0.6620 -0.8263
   96MOL   H27536565   3.949   5.957   1.321 -0.3274 -0.2672  0.1256
   96MOL   H27636566   3.745   5.795   1.195  3.0029 -0.7908  1.0286
   96MOL   H27736567   3.771   5.856   1.354  3.5757 -3.2176 -1.8182
   96MOL   H27836568   3.614   5.992   1.117  1.4218  2.3416 -1.2915
   96MOL   H27936569   3.568   5.979   1.291  0.6202 -1.1279  0.2610
   96MOL   H28036570   3.728   6.129   1.367  0.8573 -0.1321 -0.3628
   96MOL   H28136571   3.534   6.241   1.220  0.2856 -0.9752  0.6416
   96MOL   H28236572   3.635   6.238   1.086 -0.9222 -4.3623  0.4215
   96MOL   H28336573   3.671   6.396   1.332 -2.3975 -1.7129 -0.8749
   96MOL   H28436574   3.813   6.359   1.234  0.7981  1.9998 -1.1411
   96MOL   H28536575   3.850   6.116   1.086  1.2377  0.8236 -0.6482
   96MOL   H28636576   3.925   6.168   1.238 -0.2984  0.6254 -1.2934
   96MOL   C28736577   3.682   6.499   1.135 -0.5250  0.3948 -0.7244
   96MOL   C28836578   3.735   6.627   1.199  0.5407 -0.4126 -0.1036
   96MOL   C28936579   3.833   6.682   1.095 -0.4257 -0.3230 -0.7816
   96MOL   C29036580   3.815   6.606   0.969  0.0842 -0.1418 -0.3786
   96MOL   C29136581   3.942   6.613   0.874  0.4398  0.6292 -0.8650
   96MOL   C29236582   3.911   6.579   0.730 -0.4329  0.2641 -0.5018
   96MOL   C29336583   3.770   6.470   1.010  0.1675  0.1475 -0.0039
   96MOL   H29436584   3.582   6.516   1.096 -0.2195  2.4219 -0.6965
   96MOL   H29536585   3.661   6.703   1.223  0.6140 -1.2268  2.8831
   96MOL   H29636586   3.790   6.617   1.293  1.0883  1.0500 -0.2644
   96MOL   H29736587   3.932   6.676   1.141 -0.2461 -0.2309 -1.1623
   96MOL   H29836588   3.807   6.784   1.067 -0.1616 -0.5385 -1.7941
   96MOL   H29936589   3.728   6.649   0.918  0.7918  0.6430 -0.9390
   96MOL   H30036590   4.013   6.546   0.922 -2.0203 -0.5660  1.2426
   96MOL   H30136591   3.999   6.705   0.885 -0.3490  1.2282 -1.7015
   96MOL   H30236592   3.858   6.657   0.675 -1.2362 -0.9028 -1.4186
   96MOL   H30336593   3.845   6.492   0.724 -0.6950  0.5046 -1.2357
   96MOL   H30436594   3.846   6.399   1.039 -1.0364 -0.8930  0.6458
   96MOL   H30536595   3.708   6.425   0.932  1.9385 -2.4328  0.0462
   96MOL   C30636596   4.040   6.547   0.652 -0.0627  0.4258 -0.4745
   96MOL   C30736597   4.010   6.515   0.505 -1.1109  0.5728 -0.1172
   96MOL   C30836598   4.095   6.589   0.410 -0.2414 -0.6180 -0.6292
   96MOL   C30936599   4.203   6.654   0.501  0.2089 -0.4355 -0.0603
   96MOL   C31036600   4.259   6.792   0.451 -0.2878 -0.2934 -0.6747
   96MOL   C31136601   4.365   6.861   0.539 -0.2493  0.3223  0.0370
   96MOL   C31236602   4.124   6.669   0.630 -0.3911 -0.6120  0.0937
   96MOL   H31336603   4.094   6.469   0.706 -0.1692  0.8381  0.2315
   96MOL   H31436604   4.019   6.411   0.474  0.6678  1.2740 -2.0278
   96MOL   H31536605   3.904   6.538   0.492 -1.2494  0.6147  1.0178
   96MOL   H31636606   4.131   6.532   0.324 -0.3141  1.2691 -1.9387
   96MOL   H31736607   4.028   6.665   0.370  1.7746  0.5489 -1.8876
   96MOL   H31836608   4.285   6.584   0.519 -0.0165 -0.4614  0.9083
   96MOL   H31936609   4.287   6.779   0.347 -0.1930 -0.1310 -0.6695
   96MOL   H32036610   4.189   6.876   0.452 -1.5406 -1.3140 -1.8453
   96MOL   H32136611   4.444   6.786   0.538 -0.3023  0.2744 -0.8622
   96MOL   H32236612   4.328   6.873   0.641  1.6824  2.8732  0.4938
   96MOL   H32336613   4.062   6.759   0.619  1.0046  0.3024 -0.4047
   96MOL   H32436614   4.187   6.687   0.716 -2.1535  3.2815  0.7103
   96MOL   C32536615   4.442   6.988   0.485 -0.1232  0.2807  0.4949
   96MOL   C32636616   4.369   7.118   0.495  0.3202  0.5642  0.0224
   96MOL   C32736617   4.480   7.228   0.511 -0.9330 -0.0701 -0.3539
   96MOL   C32836618   4.613   7.161   0.539  0.3374 -0.5244 -0.1690
   96MOL   C32936619   4.719   7.174   0.426  0.8737  0.3872 -0.6656
   96MOL   C33036620   4.866   7.133   0.473  0.0774 -0.7622 -0.4172
   96MOL   C33136621   4.565   7.017   0.564 -0.8017  0.2123 -0.2961
   96MOL   H33236622   4.461   6.972   0.378 -0.9066  0.9123  0.2571
   96MOL   H33336623   4.312   7.124   0.588 -0.9022 -1.4337 -0.5822
   96MOL   H33436624   4.308   7.121   0.405  2.4606  0.4302 -1.4601
   96MOL   H33536625   4.492   7.290   0.422  1.4712  0.4525  0.3155
   96MOL   H33636626   4.442   7.283   0.598 -1.3854 -0.7180 -0.1355
   96MOL   H33736627   4.663   7.202   0.627  3.2119 -0.4721 -1.7585
   96MOL   H33836628   4.694   7.117   0.336 -1.5009 -0.7144  0.6434
   96MOL   H33936629   4.712   7.281   0.407 -4.0396 -0.1323 -2.3749
   96MOL   H34036630   4.891   7.212   0.545 -0.6582  0.1545 -1.1512
   96MOL   H34136631   4.866   7.039   0.527 -0.2836 -1.1012 -1.0070
   96MOL   H34236632   4.557   6.987   0.668  2.2037  1.4514  0.3346
   96MOL   H34336633   4.635   6.946   0.521 -0.4759  0.9850 -1.0617
   96MOL   C34436634   4.968   7.145   0.358 -0.1647  0.1969 -0.5091
   96MOL   C34536635   4.956   7.025   0.260  0.5801 -0.5581  0.2839
   96MOL   C34636636   5.099   7.034   0.199  0.0333 -0.7168  0.0912
   96MOL   C34736637   5.194   7.041   0.323 -0.5712  0.1887 -0.1810
   96MOL   C34836638   5.342   7.087   0.286 -0.1918  0.0882  0.5366
   96MOL   C34936639   5.436   7.093   0.404  0.1657  1.1656  0.3762
   96MOL   C35036640   5.112   7.140   0.413  0.5482  0.2989  0.1727
   96MOL   H35136641   4.958   7.233   0.294  1.0183  0.5287 -0.2464
   96MOL   H35236642   4.874   7.047   0.192  0.3659 -1.7533  0.1585
   96MOL   H35336643   4.939   6.928   0.307 -1.8831  0.5508  1.7931
   96MOL   H35436644   5.116   6.956   0.125 -0.0963 -1.5171  0.8988
   96MOL   H35536645   5.115   7.125   0.142  0.5460 -1.5342 -1.0926
   96MOL   H35636646   5.190   6.940   0.363 -2.7970  0.6303  0.8464
   96MOL   H35736647   5.379   7.034   0.198 -1.6424  0.3805 -0.2542
   96MOL   H35836648   5.335   7.191   0.254 -4.1993 -0.2838 -0.0004
   96MOL   H35936649   5.407   7.165   0.480  0.4477  0.6024  1.0313
   96MOL   H36036650   5.529   7.131   0.361 -0.0987 -1.5412 -2.7989
   96MOL   H36136651   5.125   7.125   0.521  0.8167  0.5371  0.1757
   96MOL   H36236652   5.154   7.241   0.406 -1.7100  1.3092  0.7492
   96MOL   C36336653   5.471   6.954   0.459  0.0293  0.5289 -0.1180
   96MOL   C36436654   5.387   6.925   0.583  0.0613  0.0473 -0.0795
   96MOL   C36536655   5.469   6.846   0.679  0.2171 -0.1460 -0.6317
   96MOL   C36636656   5.605   6.821   0.612  0.2837 -0.0500 -0.2384
   96MOL   C36736657   5.725   6.822   0.716 -0.9094  0.0673 -0.2198
   96MOL   C36836658   5.715   6.701   0.815  0.2442 -1.2080  0.5320
   96MOL   C36936659   5.608   6.931   0.515  0.3878  0.5255  0.0126
   96MOL   H37036660   5.442   6.879   0.385 -0.0651  0.3015  0.1479
   96MOL   H37136661   5.355   7.013   0.638  1.7638  0.9168 -0.4413
   96MOL   H37236662   5.298   6.872   0.550  0.2388 -0.1830 -0.1898
   96MOL   H37336663   5.470   6.904   0.771  0.0691 -0.4070 -0.4659
   96MOL   H37436664   5.410   6.758   0.706 -0.1036 -0.6638 -2.8886
   96MOL   H37536665   5.617   6.730   0.554 -0.0572  0.1560 -0.6300
   96MOL   H37636666   5.821   6.818   0.663 -1.5010 -1.0637 -1.2324
   96MOL   H37736667   5.715   6.910   0.780  0.9866  1.8261 -2.2555
   96MOL   H37836668   5.805   6.675   0.871 -1.0940  0.5654  3.6383
   96MOL   H37936669   5.691   6.611   0.759  1.1589 -1.3473  0.3537
   96MOL   H38036670   5.660   7.019   0.554  2.0236 -0.4967  0.1992
   96MOL   H38136671   5.671   6.899   0.431 -1.7758 -0.4341 -1.2857
   96MOL   H38236672   5.631   6.713   0.884  0.9568 -1.8586  1.5304
   97MOL     C136673   6.605   6.642   0.583 -0.5482 -0.4002  0.2951
   97MOL     C236674   6.680   6.725   0.692 -0.2294 -0.4913 -0.1173
   97MOL     C336675   6.656   6.666   0.823 -0.6910  0.2052 -0.2703
   97MOL     C436676   6.622   6.525   0.784  0.1079 -0.4113  0.2845
   97MOL     C536677   6.553   6.441   0.903  0.5323  0.5788 -0.2417
   97MOL     C636678   6.646   6.383   1.008  0.3425 -0.2142 -0.0165
   97MOL     C736679   6.528   6.537   0.659 -0.4635 -0.4004  0.3682
   97MOL     H836680   6.525   6.699   0.535  0.3080  0.7747  0.2119
   97MOL     H936681   6.635   6.825   0.694  1.6277  0.3412  0.8811
   97MOL    H1036682   6.785   6.746   0.676 -0.5702 -0.3435 -2.3198
   97MOL    H1136683   6.735   6.670   0.899 -2.2611  0.3707  1.3964
   97MOL    H1236684   6.570   6.713   0.870  0.7184  0.6765  1.9460
   97MOL    H1336685   6.712   6.474   0.753 -0.0740  1.4277 -3.5688
   97MOL    H1436686   6.476   6.502   0.950  2.2147  2.7004 -0.1344
   97MOL    H1536687   6.502   6.354   0.863 -0.2794  0.3763  1.2014
   97MOL    H1636688   6.739   6.349   0.963 -1.2062 -0.3315 -3.2919
   97MOL    H1736689   6.677   6.461   1.077 -1.3181  0.2572  0.2235
   97MOL    H1836690   6.508   6.445   0.605  2.8011 -0.4596 -0.8755
   97MOL    H1936691   6.432   6.570   0.699 -1.2769 -3.3663  0.9553
   97MOL    H2036692   6.674   6.607   0.506 -0.3471  1.5340 -0.4541
   97MOL    C2136693   6.575   6.266   1.094 -0.3964 -0.4223 -0.1460
   97MOL    C2236694   6.678   6.215   1.199 -0.5886 -0.3790 -0.2147
   97MOL    C2336695   6.598   6.180   1.325  0.7343  0.3868 -0.3434
   97MOL    C2436696   6.448   6.214   1.291 -0.1584  0.2117  0.0682
   97MOL    C2536697   6.369   6.275   1.412 -0.1090  0.4260 -0.2099
   97MOL    C2636698   6.219   6.293   1.391  0.1525  0.1125 -0.0027
   97MOL    C2736699   6.457   6.315   1.178  0.2342  0.2358  0.4506
   97MOL    H2836700   6.550   6.178   1.034 -0.6181  0.5687 -1.5333
   97MOL    H2936701   6.738   6.132   1.160  0.3005 -1.7767  3.8938
   97MOL    H3036702   6.754   6.290   1.221  0.1082 -1.3945  0.8550
   97MOL    H3136703   6.602   6.075   1.352 -0.2027  0.5512  0.4613
   97MOL    H3236704   6.642   6.233   1.409  1.7829 -2.0559  0.7031
   97MOL    H3336705   6.402   6.123   1.251  0.1162  0.2317 -0.2980
   97MOL    H3436706   6.405   6.374   1.442 -1.2136  0.6922  0.2759
   97MOL    H3536707   6.380   6.208   1.497 -0.9590  1.4748  0.7534
   97MOL    H3636708   6.184   6.201   1.343  0.8672 -0.3500  0.3421
   97MOL    H3736709   6.194   6.373   1.321  1.4574 -1.0576 -1.8570
   97MOL    H3836710   6.366   6.317   1.119  0.3339 -0.4182  0.2753
   97MOL    H3936711   6.464   6.417   1.216 -1.5799  0.4874  0.1208
   97MOL    C4036712   6.155   6.331   1.532  0.2225 -0.2795  0.1417
   97MOL    C4136713   6.006   6.371   1.506  0.5372  0.3358  0.2019
   97MOL    C4236714   5.940   6.343   1.638  0.0025 -0.2052  0.3417
   97MOL    C4336715   6.005   6.203   1.674  0.0095 -0.4241 -0.6533
   97MOL    C4436716   5.988   6.163   1.822 -0.3198  0.3259  1.0405
   97MOL    C4536717   6.036   6.020   1.851 -0.0335 -0.1536  0.3241
   97MOL    C4636718   6.148   6.219   1.640  0.6613 -0.8412 -0.2461
   97MOL    H4736719   6.210   6.420   1.562 -0.4172  0.1137  0.1647
   97MOL    H4836720   5.953   6.314   1.431  1.1499 -1.5405  1.1737
   97MOL    H4936721   6.005   6.478   1.483 -0.8738  0.4922  0.9470
   97MOL    H5036722   5.951   6.416   1.718 -0.5129  0.0855  0.1459
   97MOL    H5136723   5.831   6.336   1.636 -0.1714  2.1600  0.3161
   97MOL    H5236724   5.960   6.127   1.610  0.2401  0.5086 -1.9406
   97MOL    H5336725   6.033   6.238   1.887 -2.4384  4.2504 -1.7947
   97MOL    H5436726   5.881   6.179   1.836 -0.3363 -1.5497  3.2832
   97MOL    H5536727   6.141   6.011   1.826  0.1082 -1.1400  1.2205
   97MOL    H5636728   5.985   5.949   1.786 -1.1606  0.3868  0.6057
   97MOL    H5736729   6.213   6.245   1.723 -0.4983 -1.9617  1.0242
   97MOL    H5836730   6.194   6.126   1.608 -0.0001 -1.7806  1.4780
   97MOL    C5936731   6.010   5.967   1.996  1.0787 -0.2461 -0.4342
   97MOL    C6036732   5.857   5.959   2.030 -0.2585  1.4297 -0.1020
   97MOL    C6136733   5.829   5.807   2.053 -0.5859  0.8570  0.1796
   97MOL    C6236734   5.945   5.739   1.988  0.5235 -0.2675  0.7530
   97MOL    C6336735   5.967   5.589   2.023 -0.1088  0.3008 -0.0267
   97MOL    C6436736   5.851   5.498   1.982 -0.6320 -0.0030 -0.2939
   97MOL    C6536737   6.059   5.830   2.006 -0.8778 -0.5990  0.1301
   97MOL    H6636738   6.052   6.033   2.072  0.6692 -0.4384 -0.0375
   97MOL    H6736739   5.829   6.017   2.118 -2.1794  0.2544  0.1059
   97MOL    H6836740   5.798   5.992   1.944 -0.3412 -1.3935 -1.1890
   97MOL    H6936741   5.844   5.783   2.158 -1.5922  0.4542  0.2324
   97MOL    H7036742   5.732   5.779   2.012 -0.3493  0.4922 -0.1369
   97MOL    H7136743   5.913   5.747   1.884 -1.4623  0.6485  1.4105
   97MOL    H7236744   6.004   5.581   2.126  2.1626  0.4869 -0.7876
   97MOL    H7336745   6.052   5.556   1.963 -0.9338 -1.4838 -0.2458
   97MOL    H7436746   5.777   5.502   2.062 -0.1639 -0.6712  0.1755
   97MOL    H7536747   5.800   5.530   1.891  2.4195  2.3703 -1.2477
   97MOL    H7636748   6.092   5.816   2.109 -0.7279 -1.6821 -0.0565
   97MOL    H7736749   6.131   5.811   1.927 -0.0741  2.9291 -0.0707
   97MOL    C7836750   5.885   5.350   1.981  0.2896  0.0020  0.1470
   97MOL    C7936751   5.772   5.250   1.956 -0.1625  0.4636 -0.7224
   97MOL    C8036752   5.829   5.132   1.877 -0.2849  0.5998  0.6903
   97MOL    C8136753   5.977   5.158   1.845  0.1285  0.5491  0.3929
   97MOL    C8236754   6.030   5.121   1.704 -0.0716 -0.2597  0.0388
   97MOL    C8336755   6.189   5.128   1.713 -0.8199 -0.2164  0.6974
   97MOL    C8436756   5.985   5.317   1.870 -0.1779 -0.1899  0.1441
   97MOL    H8536757   5.937   5.329   2.074 -0.9407  1.1095  1.1088
   97MOL    H8636758   5.722   5.201   2.040 -1.5138  1.0586 -1.1724
   97MOL    H8736759   5.685   5.303   1.918 -0.8257  1.6830  2.3220
   97MOL    H8836760   5.813   5.040   1.933  0.0058 -1.3260 -2.2482
   97MOL    H8936761   5.767   5.127   1.787  0.9807  1.3920 -0.2516
   97MOL    H9036762   6.036   5.100   1.915  2.1129  1.3113 -0.6187
   97MOL    H9136763   5.989   5.199   1.640 -1.3326  1.9218  3.3223
   97MOL    H9236764   5.993   5.021   1.687 -1.0581  0.2073 -0.5783
   97MOL    H9336765   6.240   5.042   1.754  2.9400  1.6833  0.2202
   97MOL    H9436766   6.225   5.211   1.775 -1.5707  0.2603  0.5103
   97MOL    H9536767   5.943   5.363   1.780  2.0321 -2.4336 -2.0982
   97MOL    H9636768   6.087   5.350   1.889  0.8502 -1.3465 -3.0406
   97MOL    C9736769   6.257   5.140   1.577  0.3890  0.4174  0.1670
   97MOL    C9836770   6.212   5.037   1.468 -0.0954 -0.0693  0.5139
   97MOL    C9936771   6.324   5.035   1.366 -0.9348  0.0712  0.1308
   97MOL   C10036772   6.443   5.116   1.425 -0.1141 -0.5228 -0.5914
   97MOL   C10136773   6.591   5.093   1.392  0.3235 -0.3800  0.4150
   97MOL   C10236774   6.642   5.165   1.264 -0.4325 -0.1647  0.0132
   97MOL   C10336775   6.413   5.136   1.578 -0.1716 -0.2403  0.2046
   97MOL   H10436776   6.238   5.237   1.530 -1.3293  0.4950  0.9926
   97MOL   H10536777   6.195   4.941   1.516  0.1595 -0.0177  0.7080
   97MOL   H10636778   6.117   5.061   1.420 -0.4416  0.5395  1.4962
   97MOL   H10736779   6.340   4.933   1.332  0.7412 -0.1042  1.4101
   97MOL   H10836780   6.302   5.076   1.267  1.1855  0.3186 -0.2529
   97MOL   H10936781   6.414   5.217   1.398 -1.9744 -0.7863  0.3063
   97MOL   H11036782   6.645   5.131   1.479 -3.0194 -1.3539  2.9871
   97MOL   H11136783   6.615   4.987   1.396 -0.0621 -0.4462  0.9895
   97MOL   H11236784   6.597   5.111   1.180  1.1975 -2.1737  0.3907
   97MOL   H11336785   6.614   5.270   1.256 -0.7647 -0.0810  2.0013
   97MOL   H11436786   6.440   5.051   1.640  1.5924 -1.7376 -2.5141
   97MOL   H11536787   6.459   5.215   1.638  0.1617 -0.5543  0.3578
   97MOL   C11636788   6.797   5.163   1.253 -0.1977 -0.2996  0.4556
   97MOL   C11736789   6.853   5.022   1.237  0.0207  0.1796 -1.4127
   97MOL   C11836790   7.009   5.051   1.206  0.3104 -0.6975 -0.3989
   97MOL   C11936791   7.008   5.188   1.139  0.0618  0.0333  0.6130
   97MOL   C12036792   7.065   5.190   0.998  0.1719 -0.2672 -0.4097
   97MOL   C12136793   7.094   5.334   0.949 -0.2434  0.7764  0.2305
   97MOL   C12236794   6.859   5.236   1.138 -0.0173 -0.7993  0.1091
   97MOL   H12336795   6.840   5.218   1.337 -1.4713  0.7597  0.4364
   97MOL   H12436796   6.807   4.972   1.152 -1.9706 -0.6906  0.0989
   97MOL   H12536797   6.834   4.963   1.327  0.2674  2.1808 -0.0144
   97MOL   H12636798   7.041   4.972   1.139  0.9362 -2.8424  2.3531
   97MOL   H12736799   7.066   5.054   1.299  1.2026  1.1684 -0.9781
   97MOL   H12836800   7.063   5.253   1.208 -0.0423 -1.7380  2.4279
   97MOL   H12936801   7.008   5.123   0.934  0.2812 -0.6768 -0.0760
   97MOL   H13036802   7.164   5.146   1.010  0.3510  0.4529  0.9176
   97MOL   H13136803   7.158   5.390   1.017  1.2489 -2.1717  1.3485
   97MOL   H13236804   7.000   5.385   0.969 -0.1373  0.6234  1.1482
   97MOL   H13336805   6.840   5.343   1.127  0.4265 -0.7562 -0.2602
   97MOL   H13436806   6.824   5.195   1.044 -1.8358  2.5680 -0.7608
   97MOL   C13536807   7.138   5.345   0.804  0.6893  0.4006 -0.5511
   97MOL   C13636808   7.021   5.295   0.720 -0.2728  0.2728 -0.1715
   97MOL   C13736809   7.044   5.363   0.587 -0.6270 -0.1485  0.3245
   97MOL   C13836810   7.098   5.504   0.626  0.0683 -0.8942 -0.0416
   97MOL   C13936811   7.182   5.564   0.512  0.8022 -0.6700 -0.6856
   97MOL   C14036812   7.231   5.706   0.560  0.4761 -0.1038  0.0109
   97MOL   C14136813   7.170   5.487   0.763  0.0881 -0.0668  0.4802
   97MOL   H14236814   7.225   5.280   0.792  0.6414  0.2390 -0.0145
   97MOL   H14336815   7.013   5.187   0.723 -1.3512  0.3127 -1.0836
   97MOL   H14436816   6.929   5.340   0.759 -0.3535  0.1226 -0.1883
   97MOL   H14536817   7.112   5.311   0.520  2.2066  2.7072  0.8823
   97MOL   H14636818   6.950   5.383   0.535 -0.1364  0.4128 -0.3591
   97MOL   H14736819   7.016   5.573   0.646 -0.7845 -1.6791 -0.8316
   97MOL   H14836820   7.124   5.588   0.423 -0.1600  0.5614  0.2580
   97MOL   H14936821   7.269   5.506   0.480  1.0450 -0.9392  0.4500
   97MOL   H15036822   7.149   5.770   0.592  2.1390  1.4415  1.2893
   97MOL   H15136823   7.301   5.694   0.643  0.2170 -0.2646  0.2058
   97MOL   H15236824   7.153   5.566   0.836 -0.3153 -0.4006  0.7482
   97MOL   H15336825   7.277   5.478   0.744 -0.0726  1.6619 -1.4597
   97MOL   C15436826   7.301   5.778   0.438  0.6882 -0.3821  0.0039
   97MOL   C15536827   7.441   5.734   0.400  0.0723  0.4499  0.1172
   97MOL   C15636828   7.501   5.854   0.320 -0.2889 -0.8285 -0.2582
   97MOL   C15736829   7.453   5.976   0.405 -0.0225 -0.7891  0.5089
   97MOL   C15836830   7.536   5.991   0.534  0.0867 -0.3469  0.3960
   97MOL   C15936831   0.014   6.079   0.499 -0.5670 -0.1242  0.6257
   97MOL   C16036832   7.307   5.933   0.442  0.0673 -0.2919 -0.9072
   97MOL   H16136833   7.245   5.759   0.347 -0.0704  0.5897  0.2674
   97MOL   H16236834   7.502   5.704   0.486  1.4226 -1.6571 -1.5075
   97MOL   H16336835   7.438   5.645   0.337 -2.5969  0.4071  0.2789
   97MOL   H16436836   7.609   5.838   0.326 -0.2486 -0.5139 -0.1501
   97MOL   H16536837   7.475   5.867   0.215 -0.2596  2.3683  0.1083
   97MOL   H16636838   7.449   6.073   0.355  0.7033  0.9475  3.7010
   97MOL   H16736839   7.559   5.893   0.576 -0.8695 -0.0111  1.7410
   97MOL   H16836840   7.476   6.048   0.605 -1.2492 -2.1308  0.7395
   97MOL   H16936841   0.071   6.043   0.414 -0.4879  1.6437 -0.0846
   97MOL   H17036842   7.620   6.172   0.460  3.4955  1.8131  0.7878
   97MOL   H17136843   7.254   5.991   0.367  1.4432  0.8359 -1.0532
   97MOL   H17236844   7.267   5.980   0.533  1.3567  1.2767 -1.1115
   97MOL   C17336845   0.093   6.104   0.619 -0.3830  0.4826 -0.3258
   97MOL   C17436846   0.163   5.987   0.685 -0.1560 -0.4432 -0.0353
   97MOL   C17536847   0.267   6.036   0.780 -1.1075 -0.0700  0.3315
   97MOL   C17636848   0.294   6.178   0.736  0.0170 -0.4416 -0.7056
   97MOL   C17736849   0.449   6.199   0.708 -0.3364 -0.2396 -0.7485
   97MOL   C17836850   0.544   6.212   0.822  0.0688 -0.4619 -0.4082
   97MOL   C17936851   0.209   6.202   0.608 -0.8004  1.1693  0.0101
   97MOL   H18036852   0.021   6.141   0.693 -1.2890 -1.2217 -0.3444
   97MOL   H18136853   0.218   5.916   0.624  0.7350 -1.9913  2.4704
   97MOL   H18236854   0.083   5.931   0.734  1.4253 -1.9716  0.8803
   97MOL   H18336855   0.232   6.038   0.884 -0.7115 -0.1501  0.4694
   97MOL   H18436856   0.350   5.966   0.787 -1.4249 -0.5166 -0.4345
   97MOL   H18536857   0.260   6.250   0.811  2.5225 -1.1913  1.2253
   97MOL   H18636858   0.462   6.298   0.663  0.6466 -0.0528 -0.0867
   97MOL   H18736859   0.474   6.117   0.641  0.3046  0.1657 -1.0156
   97MOL   H18836860   0.571   6.114   0.861 -1.6799 -0.9817 -0.4607
   97MOL   H18936861   0.492   6.261   0.905 -0.2794 -1.2735 -0.1475
   97MOL   H19036862   0.263   6.175   0.518 -2.9016  0.8724 -1.2109
   97MOL   H19136863   0.173   6.304   0.596 -0.2954  1.5252  1.4240
   97MOL   C19236864   0.682   6.282   0.789  0.3466  0.5643  0.0981
   97MOL   C19336865   0.782   6.261   0.902 -0.0751 -0.2380 -0.0816
   97MOL   C19436866   0.753   6.370   1.009  0.6861  0.6576  0.2627
   97MOL   C19536867   0.680   6.479   0.942 -0.6951  0.6534 -0.1971
   97MOL   C19636868   0.757   6.616   0.958 -0.1188  0.8208  0.0571
   97MOL   C19736869   0.680   6.743   0.913  0.4702 -0.3593 -0.0891
   97MOL   C19836870   0.664   6.438   0.793 -0.5796 -0.0920 -0.1544
   97MOL   H19936871   0.725   6.248   0.696  0.9818  2.3294 -0.2714
   97MOL   H20036872   0.794   6.159   0.939 -1.4446 -0.7725 -1.0572
   97MOL   H20136873   0.881   6.283   0.862 -0.3180  0.3127 -0.3858
   97MOL   H20236874   0.848   6.401   1.052  1.8773  1.2197 -2.6324
   97MOL   H20336875   0.693   6.330   1.091 -0.7147 -1.1021 -1.5474
   97MOL   H20436876   0.582   6.476   0.991 -0.9327  0.0089 -0.7037
   97MOL   H20536877   0.844   6.607   0.893 -0.4021  0.5972 -0.2937
   97MOL   H20636878   0.799   6.627   1.058 -0.6057  0.8070  0.2648
   97MOL   H20736879   0.591   6.767   0.970  0.7779  0.5102  0.0394
   97MOL   H20836880   0.636   6.723   0.815 -1.0301  1.1737  0.2428
   97MOL   H20936881   0.744   6.489   0.738 -1.0935 -0.9909 -1.7684
   97MOL   H21036882   0.566   6.466   0.754 -0.3565  2.0154  0.7243
   97MOL   C21136883   0.780   6.862   0.934  0.0723 -0.3597  0.4228
   97MOL   C21236884   0.715   7.005   0.928 -0.4058 -0.4099  0.3533
   97MOL   C21336885   0.816   7.097   0.861 -0.1918  0.0780 -0.6412
   97MOL   C21436886   0.932   7.012   0.819 -0.4625 -0.1639 -0.0655
   97MOL   C21536887   1.008   7.059   0.684 -0.9056 -0.1824 -0.1899
   97MOL   C21636888   1.115   6.959   0.647 -0.2451  0.0969 -0.5598
   97MOL   C21736889   0.885   6.867   0.824  0.0963 -0.0050  1.1372
   97MOL   H21836890   0.843   6.863   1.023 -1.1635  1.9519  1.2875
   97MOL   H21936891   0.622   6.998   0.872  0.2969  0.7902 -0.9978
   97MOL   H22036892   0.685   7.034   1.029 -1.4788 -1.6522  0.4010
   97MOL   H22136893   0.764   7.131   0.771 -0.4804 -2.2522 -1.4030
   97MOL   H22236894   0.836   7.189   0.916  0.0754 -1.0030  1.1038
   97MOL   H22336895   0.997   7.025   0.905 -2.3830  0.4896  1.3330
   97MOL   H22436896   1.052   7.158   0.691  3.5861 -1.9157 -1.8586
   97MOL   H22536897   0.935   7.063   0.603  0.0066  2.3839 -0.9149
   97MOL   H22636898   1.190   6.956   0.726  0.0971 -0.5187 -0.9028
   97MOL   H22736899   1.070   6.861   0.637 -0.4270  0.1990 -0.7367
   97MOL   H22836900   0.974   6.810   0.852  1.9465  0.9149 -2.5153
   97MOL   H22936901   0.856   6.830   0.725  1.6656  0.4169  0.4991
   97MOL   C23036902   1.178   6.995   0.511 -0.2186  0.2682  0.1327
   97MOL   C23136903   1.278   6.885   0.457 -0.7270 -0.4932 -0.5413
   97MOL   C23236904   1.407   6.959   0.424 -0.2862  0.1503 -0.1387
   97MOL   C23336905   1.407   7.087   0.514 -0.4092  0.1652  0.1708
   97MOL   C23436906   1.500   7.198   0.459 -0.7167 -0.2566 -0.5991
   97MOL   C23536907   1.636   7.140   0.426  0.9366 -0.2537  0.4220
   97MOL   C23636908   1.260   7.127   0.524 -0.3620  0.9233 -0.0552
   97MOL   H23736909   1.102   7.019   0.436  0.8601  1.8030 -0.5054
   97MOL   H23836910   1.289   6.814   0.539 -0.4655  1.9127  1.6005
   97MOL   H23936911   1.229   6.820   0.385  0.2968  0.1855 -1.8641
   97MOL   H24036912   1.401   6.999   0.323 -1.4782  1.5977  0.4934
   97MOL   H24136913   1.488   6.888   0.443  0.1785  0.2560 -1.6904
   97MOL   H24236914   1.435   7.054   0.614 -1.3127 -0.7405  0.1297
   97MOL   H24336915   1.501   7.281   0.529  0.7534 -0.8604  0.1148
   97MOL   H24436916   1.458   7.248   0.372 -0.0769  0.7716 -0.3163
   97MOL   H24536917   1.670   7.087   0.515 -2.8526 -0.5476  1.7721
   97MOL   H24636918   1.615   7.069   0.346 -1.8277  1.5679 -0.5364
   97MOL   H24736919   1.233   7.192   0.441 -2.3322 -0.9148 -0.8910
   97MOL   H24836920   1.239   7.180   0.616 -1.2405  0.7651 -0.1620
   97MOL   C24936921   1.747   7.225   0.362  0.3993  0.0873 -0.2216
   97MOL   C25036922   1.881   7.159   0.339 -0.5928  0.0039 -0.7139
   97MOL   C25136923   1.942   7.229   0.219  0.6443 -0.3051 -0.4650
   97MOL   C25236924   1.831   7.247   0.120  0.3235  0.9185  0.3126
   97MOL   C25336925   1.856   7.356   0.011  0.1861  0.4333 -0.7786
   97MOL   C25436926   1.981   7.323   7.571 -0.4774 -0.1997 -0.7439
   97MOL   C25536927   1.710   7.276   0.215 -0.1472 -0.2738 -0.4421
   97MOL   H25636928   1.763   7.309   0.430 -0.3951 -0.3754  0.5520
   97MOL   H25736929   1.935   7.166   0.433 -2.6266  0.9961  0.4062
   97MOL   H25836930   1.869   7.052   0.324  0.2088 -0.3158  0.8291
   97MOL   H25936931   2.033   7.179   0.188  0.7951 -1.2232  1.3896
   97MOL   H26036932   1.994   7.321   0.247 -1.0274 -0.0054  1.8454
   97MOL   H26136933   1.820   7.154   0.064  0.1524  0.8754  0.4153
   97MOL   H26236934   1.879   7.453   0.054 -0.6016  1.5422 -2.7933
   97MOL   H26336935   1.763   7.366   7.602 -1.7886  1.8318  2.5558
   97MOL   H26436936   1.975   7.222   7.529  0.8652 -0.4709 -0.3144
   97MOL   H26536937   2.072   7.317   7.631  0.5441  1.5713 -2.0990
   97MOL   H26636938   1.617   7.235   0.175  0.1114 -0.5451 -0.7626
   97MOL   H26736939   1.699   7.385   0.221 -0.4677 -0.1034 -3.4801
   97MOL   C26836940   1.996   7.426   7.453 -0.2874  0.0304  1.4834
   97MOL   C26936941   2.143   7.428   7.397  0.0833  0.4585 -0.0218
   97MOL   C27036942   2.147   7.557   7.312 -0.1018  0.6621 -0.2559
   97MOL   C27136943   2.043   0.011   7.370 -0.2951  0.1920  0.0139
   97MOL   C27236944   2.109   0.143   7.416  0.1219  0.2696 -0.0014
   97MOL   C27336945   2.015   0.258   7.453  0.2781 -0.4831  0.0310
   97MOL   C27436946   1.968   7.577   7.479  0.0476  0.2480  0.1671
   97MOL   H27536947   1.922   7.392   7.380  0.8670  2.1152 -0.7245
   97MOL   H27636948   2.208   7.440   7.483 -0.9716  0.9535  0.7167
   97MOL   H27736949   2.180   7.341   7.343  0.4153  0.2966  0.4600
   97MOL   H27836950   2.243   7.607   7.316 -0.7280  1.8916 -0.2895
   97MOL   H27936951   2.117   7.543   7.208  0.9283 -2.3522 -0.1768
   97MOL   H28036952   1.972   0.038   7.292 -0.2826 -1.8663 -0.7274
   97MOL   H28136953   2.174   0.175   7.334  1.5486 -0.1361  0.9630
   97MOL   H28236954   2.174   0.124   7.501  0.2734 -1.2100 -0.4355
   97MOL   H28336955   1.954   0.298   7.372  0.2707  0.1903  0.3611
   97MOL   H28436956   1.947   0.221   7.529  2.2451  0.9597  2.5913
   97MOL   H28536957   2.000   7.596   7.581  0.2825 -3.4397  0.8399
   97MOL   H28636958   1.861   7.586   7.497 -0.2657 -5.0005  1.7026
   97MOL   C28736959   2.104   0.376   7.512 -1.1564  0.1972 -0.2784
   97MOL   C28836960   2.185   0.444   7.404  0.0447  0.7458  0.5443
   97MOL   C28936961   2.227   0.585   7.452  0.4896  0.1821  0.2094
   97MOL   C29036962   2.113   0.625   7.558  0.2518 -0.4439  0.3655
   97MOL   C29136963   2.045   0.757   7.524 -0.1073 -0.2860 -0.2618
   97MOL   C29236964   1.948   0.804   7.635  0.0261  0.1394 -0.6926
   97MOL   C29336965   2.024   0.498   7.552 -0.5262  0.5380  0.3341
   97MOL   H29436966   2.167   0.326   7.585  1.5926  0.4018 -2.3924
   97MOL   H29536967   2.273   0.387   7.375  0.3529  0.1276  2.6445
   97MOL   H29636968   2.121   0.446   7.316  0.9669  0.2969 -0.1478
   97MOL   H29736969   2.239   0.655   7.370 -1.2299 -2.4562 -2.3858
   97MOL   H29836970   2.321   0.573   7.506 -0.3553  0.8295  1.8611
   97MOL   H29936971   2.153   0.635   0.012  1.8323 -1.9687 -0.0884
   97MOL   H30036972   2.005   0.751   7.423  0.3589 -1.5594 -0.3754
   97MOL   H30136973   2.123   0.834   7.526 -1.9617  1.6393  1.1492
   97MOL   H30236974   2.006   0.811   0.080 -1.7902  1.3006  0.3881
   97MOL   H30336975   1.875   0.726   0.009  2.3613 -1.1817  3.1384
   97MOL   H30436976   1.948   0.521   7.477  1.4424  0.3219 -1.7794
   97MOL   H30536977   1.972   0.467   7.642  0.7268 -2.1468  0.1816
   97MOL   C30636978   1.890   0.943   7.603 -0.2543  0.0626  0.3872
   97MOL   C30736979   1.812   0.951   7.471 -0.4081 -0.1666  0.0636
   97MOL   C30836980   1.691   1.049   7.489  0.1679 -0.2590 -0.7160
   97MOL   C30936981   1.721   1.112   7.628 -0.2626  0.6275  0.0937
   97MOL   C31036982   1.587   1.164   0.042  0.4169 -0.4251  0.5238
   97MOL   C31136983   1.602   1.199   0.191  0.2162 -0.0506 -0.6237
   97MOL   C31236984   1.797   1.006   0.056  0.6534  0.5374 -0.1456
   97MOL   H31336985   1.966   1.021   7.593 -0.4696  0.3183  0.7224
   97MOL   H31436986   1.877   0.978   7.388 -0.6248 -0.0866 -0.0802
   97MOL   H31536987   1.761   0.855   7.456 -2.8335  0.5338  3.1254
   97MOL   H31636988   1.677   1.125   7.411  0.3883 -0.8081 -1.2972
   97MOL   H31736989   1.603   0.985   7.495 -1.3719  1.9883  1.6981
   97MOL   H31836990   1.793   1.194   7.616  2.3510 -1.4951  0.6944
   97MOL   H31936991   1.551   1.248   7.629 -0.2263 -1.1034 -0.0528
   97MOL   H32036992   1.510   1.090   0.018  0.7974 -0.2387 -1.3448
   97MOL   H32136993   1.694   1.254   0.210 -0.1580  0.8761 -1.4746
   97MOL   H32236994   1.612   1.103   0.241  0.6309  0.3022 -0.0328
   97MOL   H32336995   1.729   0.933   0.100  2.2422 -0.9953 -0.1561
   97MOL   H32436996   1.847   1.055   0.139 -0.9359  1.2632  0.4117
   97MOL   C32536997   1.483   1.283   0.236  0.1924  0.0901  0.7300
   97MOL   C32636998   1.456   1.275   0.381 -0.1700 -0.0152  0.5222
   97MOL   C32736999   1.385   1.407   0.415  0.1977  1.0577  0.0931
   97MOL   C32837000   1.473   1.507   0.338 -0.1041  0.1535  0.3910
   97MOL   C32937001   1.408   1.645   0.320 -0.2233 -0.5788 -0.8142
   97MOL   C33037002   1.337   1.707   0.447 -0.3597 -0.6282  0.0155
   97MOL   C33137003   1.509   1.428   0.206  0.6478 -0.5165 -0.1681
   97MOL   H33237004   1.389   1.256   0.187 -0.4244 -1.1467  2.5235
   97MOL   H33337005   1.551   1.265   0.436 -0.5409 -0.7558  1.0408
   97MOL   H33437006   1.394   1.194   0.420  1.3019 -1.1143  0.6516
   97MOL   H33537007   1.281   1.411   0.384  0.1026 -2.1180 -0.2158
   97MOL   H33637008   1.400   1.407   0.523  1.3684 -1.9527 -0.0053
   97MOL   H33737009   1.564   1.524   0.395 -1.4049  1.9200  1.9995
   97MOL   H33837010   1.482   1.710   0.273 -0.5731 -1.3898 -2.5606
   97MOL   H33937011   1.324   1.643   0.249 -1.6355 -1.6107  0.8420
   97MOL   H34037012   1.291   1.801   0.417 -0.9873 -0.7561  0.5920
   97MOL   H34137013   1.257   1.642   0.480  0.3217 -0.4855  2.0291
   97MOL   H34237014   1.613   1.452   0.184  0.5337  1.8627  1.6597
   97MOL   H34337015   1.444   1.451   0.122  1.5221  0.3051 -0.6407
   97MOL   C34437016   1.412   1.735   0.580  0.1613 -1.2392  0.1846
   97MOL   C34537017   1.337   1.820   0.688 -0.0251 -0.2090 -0.2570
   97MOL   C34637018   1.447   1.892   0.763  0.7520  0.1826 -0.5622
   97MOL   C34737019   1.572   1.894   0.682 -0.3258  0.0375 -0.0005
   97MOL   C34837020   1.690   1.836   0.759 -0.3220 -0.0856 -0.4041
   97MOL   C34937021   1.721   1.904   0.893  0.9060  0.1312  0.6083
   97MOL   C35037022   1.554   1.798   0.562  0.5520  0.4587  0.2293
   97MOL   H35137023   1.421   1.638   0.628  0.7404 -0.8874  0.8029
   97MOL   H35237024   1.277   1.760   0.757  0.2636 -0.1040  0.0814
   97MOL   H35337025   1.274   1.888   0.629  0.8650 -0.9857 -2.1454
   97MOL   H35437026   1.413   1.988   0.803  0.0189 -0.4058  0.2546
   97MOL   H35537027   1.463   1.838   0.856  1.8811  0.3458 -0.6500
   97MOL   H35637028   1.606   1.991   0.647 -0.3725  1.3545  3.4298
   97MOL   H35737029   1.691   1.728   0.774 -0.7596 -0.0791 -0.3119
   97MOL   H35837030   1.779   1.865   0.703  0.3141 -0.9034  0.1643
   97MOL   H35937031   1.629   1.891   0.951  1.1166 -0.3223  0.8460
   97MOL   H36037032   1.739   2.008   0.868  1.6318 -0.7366 -2.7537
   97MOL   H36137033   1.542   1.859   0.473  2.6937  0.3462 -0.1669
   97MOL   H36237034   1.626   1.719   0.539 -0.4098 -0.3009 -0.2031
   97MOL   C36337035   1.852   1.854   0.966 -0.8977 -0.6426 -0.2119
   97MOL   C36437036   1.873   1.918   1.098 -1.0474  0.0524 -0.7605
   97MOL   C36537037   2.026   1.922   1.132  0.3936 -0.4515  0.2679
   97MOL   C36637038   2.098   1.898   0.998 -0.1016  0.3656 -0.0331
   97MOL   C36737039   2.220   1.987   0.976 -0.3488 -1.2504  0.5435
   97MOL   C36837040   2.197   2.133   0.952  0.1176  0.2245 -0.1748
   97MOL   C36937041   1.983   1.901   0.890  0.1587  0.7119 -0.1887
   97MOL   H37037042   1.853   1.750   1.000  1.8897 -0.4698  0.4220
   97MOL   H37137043   1.841   2.022   1.083  0.3460  0.2395 -2.6503
   97MOL   H37237044   1.820   1.870   1.180 -0.7154  0.8970 -0.0490
   97MOL   H37337045   2.055   2.018   1.174 -0.8497  1.7529 -3.5962
   97MOL   H37437046   2.039   1.842   1.204  0.1886  0.7301  1.6391
   97MOL   H37537047   2.136   1.796   1.009 -1.6960 -0.1242  1.2630
   97MOL   H37637048   2.287   1.974   1.061  0.3842  0.5486  0.2654
   97MOL   H37737049   2.283   1.947   0.897  0.0729  0.7397 -0.1478
   97MOL   H37837050   2.167   2.144   0.848  0.9514 -0.1125 -0.4516
   97MOL   H37937051   2.289   2.192   0.951  0.2982 -0.0583 -0.2058
   97MOL   H38037052   1.960   2.000   0.852  0.3248  0.7884 -0.0909
   97MOL   H38137053   2.007   1.840   0.803 -2.3454 -0.2070 -0.2583
   97MOL   H38237054   2.113   2.173   1.009  2.1613  0.0743  3.0613
   98MOL     C137055   6.153   2.254   4.921  0.2107 -0.2922  0.1248
   98MOL     C237056   6.075   2.182   5.031  0.1701 -0.0912  0.0306
   98MOL     C337057   6.171   2.183   5.149  0.2385 -0.3071  0.0386
   98MOL     C437058   6.251   2.317   5.139  0.2598  0.2247 -0.6967
   98MOL     C537059   6.367   2.335   5.246 -0.5099 -0.0223 -0.8958
   98MOL     C637060   6.442   2.465   5.226 -0.7854 -0.3226  0.0623
   98MOL     C737061   6.267   2.329   4.989 -0.8520 -0.5540  1.0950
   98MOL     H837062   6.200   2.176   4.861 -0.3793  0.1349 -0.8964
   98MOL     H937063   6.036   2.084   5.003  0.0189  0.0079 -0.1016
   98MOL    H1037064   5.983   2.231   5.059  1.2859  1.5202  0.9336
   98MOL    H1137065   6.121   2.171   5.246 -0.3067  1.6289  0.0314
   98MOL    H1237066   6.248   2.107   5.138  0.8827  0.3226  0.1357
   98MOL    H1337067   6.182   2.397   5.162 -0.3626 -0.2688 -0.8352
   98MOL    H1437068   6.322   2.323   5.345  0.1278 -1.3592 -0.7577
   98MOL    H1537069   6.425   2.243   5.239  2.3209  1.1206  4.7542
   98MOL    H1637070   6.483   2.473   5.126 -0.4279 -2.3054  0.0425
   98MOL    H1737071   6.385   2.558   5.236 -0.3132 -0.1158  0.9121
   98MOL    H1837072   6.280   2.433   4.960 -0.3057 -0.3523  2.0253
   98MOL    H1937073   6.365   2.294   4.954 -0.4987  1.1725  0.2571
   98MOL    H2037074   6.092   2.325   4.866  0.1455 -0.2206  0.2883
   98MOL    C2137075   6.568   2.486   5.312  0.4417 -0.3378  0.5070
   98MOL    C2237076   6.650   2.603   5.269 -0.5406 -0.1767 -0.6460
   98MOL    C2337077   6.715   2.645   5.405  0.6270 -0.1580  0.2736
   98MOL    C2437078   6.653   2.570   5.522  0.4544  0.1328 -1.2529
   98MOL    C2537079   6.635   2.649   5.655 -0.0173 -0.3880 -0.0439
   98MOL    C2637080   6.639   2.586   5.792 -0.5276  0.5751 -0.2359
   98MOL    C2737081   6.534   2.508   5.462 -0.1990  0.6569  0.2864
   98MOL    H2837082   6.629   2.396   5.297  2.0509  0.5107  1.7913
   98MOL    H2937083   6.725   2.569   5.198  1.7305  2.8348  0.2000
   98MOL    H3037084   6.590   2.673   5.211 -1.7480  0.0221  0.8246
   98MOL    H3137085   6.821   2.619   5.403  0.5861 -0.2838 -0.8871
   98MOL    H3237086   6.713   2.754   5.404 -1.2283 -0.1726  0.0901
   98MOL    H3337087   6.727   2.492   5.537  1.7070  1.0140 -2.7010
   98MOL    H3437088   6.542   2.706   5.664  0.5579  0.5465  0.0147
   98MOL    H3537089   6.718   2.719   5.657  0.4194 -0.8858 -0.5981
   98MOL    H3637090   6.658   2.669   5.860 -0.4637  0.6569 -0.3547
   98MOL    H3737091   6.729   2.526   5.802 -1.1270 -0.2660  0.2093
   98MOL    H3837092   6.496   2.419   5.513 -0.2644  0.6893  0.2945
   98MOL    H3937093   6.447   2.574   5.463  0.3204  1.3704 -0.9083
   98MOL    C4037094   6.517   2.502   5.830 -1.0574 -0.3489 -0.4241
   98MOL    C4137095   6.543   2.409   5.948 -0.0066  0.2277  0.2384
   98MOL    C4237096   6.414   2.392   6.022 -0.0467 -0.3655  0.1731
   98MOL    C4337097   6.312   2.487   5.966 -0.2849  0.2192  0.4396
   98MOL    C4437098   6.198   2.437   5.884  0.0383 -0.7642  0.6323
   98MOL    C4537099   6.085   2.541   5.859 -0.3847  0.3704  0.0319
   98MOL    C4637100   6.397   2.587   5.892 -0.4394  0.2896  0.4205
   98MOL    H4737101   6.485   2.429   5.756 -0.7340 -0.8045 -0.1156
   98MOL    H4837102   6.612   2.458   6.016  0.2853  0.7774 -0.4567
   98MOL    H4937103   6.590   2.313   5.926  2.4630  1.1582  1.3165
   98MOL    H5037104   6.387   2.287   6.013 -2.9156  0.5439 -3.1295
   98MOL    H5137105   6.433   2.414   6.127  1.9915  1.1868 -0.5063
   98MOL    H5237106   6.272   2.530   6.057 -0.5443 -1.7414  1.2860
   98MOL    H5337107   6.223   2.378   5.796 -0.0963 -0.8070  0.6220
   98MOL    H5437108   6.151   2.362   5.948  0.6549 -2.4808 -0.9026
   98MOL    H5537109   6.134   2.597   5.780  2.0171 -1.6023  0.0582
   98MOL    H5637110   6.066   2.607   5.945 -3.0566 -0.5208  0.1657
   98MOL    H5737111   6.340   2.635   5.812 -1.5960 -3.6679 -1.2621
   98MOL    H5837112   6.433   2.666   5.958 -1.2427 -0.4737  1.7985
   98MOL    C5937113   5.944   2.479   5.816 -0.5394 -0.2884 -0.0420
   98MOL    C6037114   5.863   2.431   5.935  0.2497 -0.4963 -0.1941
   98MOL    C6137115   5.716   2.472   5.903 -0.0830 -0.1311 -0.2667
   98MOL    C6237116   5.730   2.601   5.819  0.2223  0.3464 -0.2709
   98MOL    C6337117   5.604   2.636   5.737 -0.0316  0.8385  0.6529
   98MOL    C6437118   5.496   2.705   5.821 -0.4352 -0.0295  0.4493
   98MOL    C6537119   5.863   2.580   5.743 -0.7757 -0.2811  0.4473
   98MOL    H6637120   5.962   2.406   5.737 -2.4023  0.7704 -1.4959
   98MOL    H6737121   5.873   2.324   5.954 -1.2963 -0.6364 -0.0736
   98MOL    H6837122   5.891   2.470   6.033 -2.3835  0.0327  0.4085
   98MOL    H6937123   5.667   2.391   5.848 -0.2524 -1.6519  2.0484
   98MOL    H7037124   5.662   2.496   5.994  0.4829 -1.9553  0.5768
   98MOL    H7137125   5.749   2.686   5.885  3.0662 -0.0606 -0.5169
   98MOL    H7237126   5.567   2.548   5.684  2.7328  0.6886 -1.1130
   98MOL    H7337127   5.648   2.695   5.657 -1.0474  1.2513  0.3884
   98MOL    H7437128   5.457   2.636   5.897 -1.1822 -1.3617 -1.1141
   98MOL    H7537129   5.530   2.799   5.864 -0.4030  0.5168 -0.7558
   98MOL    H7637130   5.829   2.535   5.650 -3.4308  0.9927  0.7511
   98MOL    H7737131   5.915   2.674   5.721  1.1789 -1.0783  1.5258
   98MOL    C7837132   5.377   2.758   5.742 -0.8927  1.1955 -0.4816
   98MOL    C7937133   5.408   2.848   5.618 -0.1021  0.3346 -0.2721
   98MOL    C8037134   5.383   2.763   5.499 -0.0476  0.1072 -0.5960
   98MOL    C8137135   5.268   2.673   5.546  0.0834 -0.1470 -0.1099
   98MOL    C8237136   5.255   2.550   5.446  0.0495 -0.0195  0.2460
   98MOL    C8337137   5.126   2.457   5.461  0.2161  0.7036  0.3733
   98MOL    C8437138   5.301   2.640   5.689  0.3756  0.2382 -0.1926
   98MOL    H8537139   5.307   2.811   5.807 -0.2332  0.0372  1.1883
   98MOL    H8637140   5.334   2.928   5.622 -0.8708 -0.2079 -2.5954
   98MOL    H8737141   5.502   2.903   5.628 -0.5510  1.1062 -0.2819
   98MOL    H8837142   5.354   2.822   5.412  0.4939  1.8219  0.3514
   98MOL    H8937143   5.469   2.697   5.489  0.8717  1.1517  0.2652
   98MOL    H9037144   5.170   2.720   5.537 -0.0907 -0.2341  1.1938
   98MOL    H9137145   5.346   2.492   5.456  0.0658  0.2346  1.6544
   98MOL    H9237146   5.272   2.574   5.341  1.4195 -1.2551  0.1733
   98MOL    H9337147   5.031   2.498   5.426  1.2092  2.7035 -0.0478
   98MOL    H9437148   5.112   2.447   5.569 -0.9441 -2.2832 -0.0149
   98MOL    H9537149   5.352   2.544   5.687  0.6992  0.4261 -2.1850
   98MOL    H9637150   5.207   2.629   5.743  1.7098 -1.5481  1.8286
   98MOL    C9737151   5.160   2.316   5.408 -0.1250  1.0890 -0.0057
   98MOL    C9837152   5.175   2.300   5.253 -0.4293 -0.4622 -0.0807
   98MOL    C9937153   5.104   2.174   5.220  0.7423 -0.2044  0.6736
   98MOL   C10037154   5.091   2.094   5.345 -0.2670 -0.6124 -0.4066
   98MOL   C10137155   4.990   1.976   5.340 -0.5706 -0.0095  0.5031
   98MOL   C10237156   4.976   1.900   5.475  0.6636  0.1942 -0.9396
   98MOL   C10337157   5.065   2.201   5.452  0.0137 -0.1026  0.2897
   98MOL   H10437158   5.255   2.293   5.457 -0.3101 -1.5805 -0.8128
   98MOL   H10537159   5.127   2.386   5.205 -0.3200 -1.0331 -1.2088
   98MOL   H10637160   5.272   2.288   5.206 -0.6738  0.4167 -0.8293
   98MOL   H10737161   5.006   2.182   5.174  0.9917 -3.2032 -0.5104
   98MOL   H10837162   5.162   2.122   5.143  0.1982 -1.2737  0.9685
   98MOL   H10937163   5.187   2.045   5.366 -0.2265  0.0653  1.0657
   98MOL   H11037164   4.892   2.024   5.344 -1.0047 -0.7649 -0.6980
   98MOL   H11137165   5.020   1.917   5.253  0.8441  0.5256  0.6100
   98MOL   H11237166   5.058   1.833   5.501 -1.1669 -1.6147  0.3771
   98MOL   H11337167   4.983   1.967   5.561  0.6961 -0.5656 -0.3423
   98MOL   H11437168   4.962   2.238   5.445 -0.5530 -1.9040 -1.3819
   98MOL   H11537169   5.091   2.164   5.551 -2.9452 -1.0267  0.7876
   98MOL   C11637170   4.848   1.812   5.483 -0.0665  0.3868  0.3080
   98MOL   C11737171   4.854   1.674   5.413 -0.0217 -1.7117  0.3825
   98MOL   C11837172   4.747   1.582   5.487 -0.0128 -0.2291  0.3757
   98MOL   C11937173   4.700   1.662   5.614  0.2750  0.2193  0.5317
   98MOL   C12037174   4.676   1.583   5.736 -1.0149  0.0486 -0.5369
   98MOL   C12137175   4.649   1.669   5.862  0.1868 -0.6905 -0.0741
   98MOL   C12237176   4.800   1.770   5.627 -0.1811  0.5132  0.7656
   98MOL   H12337177   4.762   1.856   5.434 -0.0164 -2.7803 -2.8588
   98MOL   H12437178   4.955   1.637   5.431  0.9795  0.5852 -0.3127
   98MOL   H12537179   4.828   1.687   5.308 -1.6315  0.4758  1.0152
   98MOL   H12637180   4.787   1.483   5.509  0.2921 -0.3715 -0.8082
   98MOL   H12737181   4.655   1.573   5.429  0.4888  1.1258 -0.6371
   98MOL   H12837182   4.608   1.711   5.582  0.9045 -0.1105 -1.9169
   98MOL   H12937183   4.768   1.525   5.749 -0.7136  0.4273 -0.9878
   98MOL   H13037184   4.601   1.505   5.723 -0.0531 -0.5269 -2.7345
   98MOL   H13137185   4.570   1.742   5.844 -0.4210 -1.2589  0.2703
   98MOL   H13237186   4.733   1.733   5.887 -1.1602 -0.0825  3.1929
   98MOL   H13337187   4.767   1.855   5.687 -2.5531 -0.2844  0.6233
   98MOL   H13437188   4.894   1.733   5.667  0.9071 -0.3138 -2.4184
   98MOL   C13537189   4.616   1.582   5.981 -0.0578  0.3053 -0.1321
   98MOL   C13637190   4.638   1.659   6.115 -1.2113 -0.1634  0.1030
   98MOL   C13737191   4.541   1.594   6.216  0.1073 -0.0340 -1.2329
   98MOL   C13837192   4.416   1.577   6.127 -0.1570  0.2620  0.4641
   98MOL   C13937193   4.309   1.491   6.179  0.0382  0.6307  0.6342
   98MOL   C14037194   4.245   1.549   6.305  0.4176  0.4713  0.3848
   98MOL   C14137195   4.467   1.536   5.988 -0.1672 -0.3988 -0.3378
   98MOL   H14237196   4.683   1.497   5.994  0.5964  0.1281 -3.9960
   98MOL   H14337197   4.741   1.663   6.148 -1.0045 -2.6245 -0.1594
   98MOL   H14437198   4.610   1.764   6.102  1.2745  0.4207 -0.7149
   98MOL   H14537199   4.580   1.502   6.257 -0.4563  0.7511  1.1203
   98MOL   H14637200   4.531   1.664   6.299  3.4601  0.1250 -0.9252
   98MOL   H14737201   4.370   1.674   6.109  2.8705  1.5376 -0.6672
   98MOL   H14837202   4.342   1.391   6.206  0.0582  1.0967  2.4282
   98MOL   H14937203   4.246   1.465   6.094  0.4003  2.7151 -0.3201
   98MOL   H15037204   4.182   1.474   6.351  0.7324  1.1980  2.0621
   98MOL   H15137205   4.317   1.570   6.385 -0.5040 -3.7170  2.4695
   98MOL   H15237206   4.402   1.582   5.914  0.2145  0.0957 -0.3673
   98MOL   H15337207   4.463   1.428   5.974  3.2959 -0.6892  0.2853
   98MOL   C15437208   4.160   1.678   6.270  0.3574  0.7268  0.2038
   98MOL   C15537209   4.070   1.719   6.383 -0.2871  0.5635 -0.0890
   98MOL   C15637210   3.934   1.763   6.321  0.2178  0.0393 -0.0594
   98MOL   C15737211   3.964   1.782   6.166 -0.3304 -0.0240  0.3012
   98MOL   C15837212   3.829   1.781   6.088  0.2131 -0.2869 -0.4165
   98MOL   C15937213   3.842   1.810   5.938 -0.1303 -0.4931  0.5114
   98MOL   C16037214   4.071   1.674   6.143 -0.3543 -0.2083  0.5909
   98MOL   H16137215   4.235   1.755   6.251  0.0542  0.9669 -0.0276
   98MOL   H16237216   4.056   1.636   6.452  0.1823  0.7746  0.2655
   98MOL   H16337217   4.122   1.796   6.439 -0.1632 -1.9571  3.3716
   98MOL   H16437218   3.854   1.693   6.344 -0.8868  1.5121  0.6716
   98MOL   H16537219   3.906   1.860   6.362 -0.3116  0.0118 -0.3542
   98MOL   H16637220   4.004   1.882   6.153  1.9187 -1.1749 -2.1947
   98MOL   H16737221   3.773   1.863   6.133  1.7408 -0.4114  1.7859
   98MOL   H16837222   3.786   1.684   6.112  0.2828 -0.3316 -0.4724
   98MOL   H16937223   3.895   1.905   5.929 -1.7298  0.2581 -1.5099
   98MOL   H17037224   3.907   1.741   5.884 -1.3043  0.5232 -2.3010
   98MOL   H17137225   4.109   1.690   6.042  0.0480 -3.1784  0.2071
   98MOL   H17237226   4.020   1.578   6.134 -2.0795  0.7163  0.5151
   98MOL   C17337227   3.706   1.822   5.873  0.0542 -0.0495  1.0880
   98MOL   C17437228   3.712   1.856   5.721  1.1547  0.1489 -0.7492
   98MOL   C17537229   3.569   1.828   5.669 -0.3124  0.1924  0.1699
   98MOL   C17637230   3.505   1.733   5.775  0.1751 -0.3440  0.0828
   98MOL   C17737231   3.432   1.610   5.722 -0.3313 -0.5879  0.0709
   98MOL   C17837232   3.341   1.643   5.598  0.3748 -0.3292 -0.3350
   98MOL   C17937233   3.614   1.701   5.869  0.4170  0.1109  0.3645
   98MOL   H18037234   3.652   1.902   5.923  1.3264  1.5510 -0.0216
   98MOL   H18137235   3.785   1.788   5.676 -0.5703 -2.0767 -0.2447
   98MOL   H18237236   3.745   1.958   5.699 -2.0732  1.1863 -1.0244
   98MOL   H18337237   3.519   1.919   5.637  1.1075  0.9537  0.0496
   98MOL   H18437238   3.578   1.774   5.575  2.1717 -0.7491  0.8832
   98MOL   H18537239   3.426   1.791   5.822 -1.5486 -0.8403 -2.1105
   98MOL   H18637240   3.375   1.563   5.802  0.5689 -1.2531  0.3275
   98MOL   H18737241   3.498   1.526   5.701  0.9596  0.8675 -1.8740
   98MOL   H18837242   3.406   1.677   5.518  2.3349  0.2519  1.4638
   98MOL   H18937243   3.279   1.726   5.632  2.9741  1.1179  1.0075
   98MOL   H19037244   3.665   1.611   5.835 -1.8920 -1.2337  0.3158
   98MOL   H19137245   3.579   1.692   5.972  0.8308  3.5962  0.8607
   98MOL   C19237246   3.253   1.529   5.548 -0.4218 -0.3487 -0.2658
   98MOL   C19337247   3.311   1.422   5.451 -0.0527 -0.2396  1.2555
   98MOL   C19437248   3.200   1.356   5.377 -0.5319  0.1629 -0.1434
   98MOL   C19537249   3.110   1.479   5.354  0.5210 -0.3325  0.3129
   98MOL   C19637250   2.970   1.448   5.311 -0.0246 -1.0428 -0.8541
   98MOL   C19737251   2.954   1.356   5.191 -0.0661  0.4127  0.0619
   98MOL   C19837252   3.121   1.562   5.482  0.0628  0.2138 -0.8066
   98MOL   H19937253   3.223   1.472   5.637 -0.5966 -1.2941 -0.9215
   98MOL   H20037254   3.358   1.462   5.360 -0.9357 -0.5368  0.6580
   98MOL   H20137255   3.375   1.348   5.499  0.2864 -0.4611  0.4765
   98MOL   H20237256   3.149   1.291   5.448  0.4437  0.0068  0.4146
   98MOL   H20337257   3.233   1.310   5.285 -1.3532 -1.5207  0.3915
   98MOL   H20437258   3.154   1.543   5.278 -2.6861  0.6996 -0.7736
   98MOL   H20537259   2.916   1.542   5.303  0.1265 -0.7522  1.2305
   98MOL   H20637260   2.927   1.394   5.395  1.8775 -2.3171 -0.6600
   98MOL   H20737261   2.995   1.259   5.219  1.4628  0.9336 -0.2778
   98MOL   H20837262   3.035   1.381   5.122 -0.6863  0.2359 -0.7280
   98MOL   H20937263   3.044   1.547   5.557  1.3285  2.1022  0.8986
   98MOL   H21037264   3.119   1.668   5.458  3.1820  0.3881 -0.5443
   98MOL   C21137265   2.817   1.350   5.129  0.0896  0.0893 -0.3516
   98MOL   C21237266   2.700   1.304   5.213 -0.7012 -0.2193  0.1537
   98MOL   C21337267   2.603   1.273   5.100  0.1862 -0.4089 -0.5748
   98MOL   C21437268   2.682   1.196   4.987 -0.5037  0.0563  0.1598
   98MOL   C21537269   2.671   1.038   4.989 -0.8244  0.5797 -0.4931
   98MOL   C21637270   2.527   0.979   4.977 -0.6992  0.1118 -0.5469
   98MOL   C21737271   2.823   1.248   5.005  0.7873  0.0008  0.3454
   98MOL   H21837272   2.786   1.441   5.078 -0.8535  0.3633  0.6917
   98MOL   H21937273   2.728   1.211   5.263  1.9021 -0.1945 -1.1841
   98MOL   H22037274   2.669   1.395   5.266 -0.0713  2.2213 -3.4959
   98MOL   H22137275   2.521   1.209   5.134 -1.6439  2.3766  0.4365
   98MOL   H22237276   2.548   1.358   5.058  1.5522  1.1075  0.6345
   98MOL   H22337277   2.638   1.232   4.894  0.3956  1.1994  0.1646
   98MOL   H22437278   2.720   1.010   5.082 -1.2138 -1.9612 -1.0221
   98MOL   H22537279   2.731   1.001   4.905 -0.0678  1.6425 -0.4388
   98MOL   H22637280   2.457   1.008   5.055  0.1158  0.8734 -0.0918
   98MOL   H22737281   2.483   1.003   4.880  1.3084 -2.8512 -2.2737
   98MOL   H22837282   2.860   1.295   4.913 -1.8627 -0.4317 -0.9832
   98MOL   H22937283   2.897   1.170   5.022  0.9232  0.0070 -0.1839
   98MOL   C23037284   2.537   0.828   4.979  0.5241 -0.4089 -0.3203
   98MOL   C23137285   2.405   0.757   4.952 -0.3675  0.0657  0.1555
   98MOL   C23237286   2.415   0.622   5.020  0.5930 -0.3847 -0.2280
   98MOL   C23337287   2.481   0.654   5.153 -0.3490  0.8045 -0.2386
   98MOL   C23437288   2.554   0.533   5.215 -0.3165 -0.0297 -0.5357
   98MOL   C23537289   2.467   0.413   5.263  0.6087  0.3348 -0.0372
   98MOL   C23637290   2.572   0.767   5.119  0.3585  0.0221  0.1213
   98MOL   H23737291   2.616   0.798   4.911  1.2921 -0.9528  0.8071
   98MOL   H23837292   2.330   0.817   5.003 -0.4332 -0.7187  0.9980
   98MOL   H23937293   2.381   0.749   4.846  2.4450  2.9239 -0.7808
   98MOL   H24037294   2.489   0.559   4.970  0.3294 -1.1782  0.3635
   98MOL   H24137295   2.322   0.569   5.040  2.0527 -2.8523  0.2828
   98MOL   H24237296   2.412   0.696   5.226  4.1351  3.5790  2.5740
   98MOL   H24337297   2.615   0.562   5.301 -0.5814  1.4531 -0.8367
   98MOL   H24437298   2.623   0.488   5.145 -1.2112 -0.5541 -1.0895
   98MOL   H24537299   2.405   0.451   5.344  0.5553 -0.1836  0.1695
   98MOL   H24637300   2.397   0.395   5.182 -0.3362 -1.3123  1.1099
   98MOL   H24737301   2.669   0.718   5.123 -0.6017 -1.7673  2.2048
   98MOL   H24837302   2.581   0.847   5.192 -0.8011  1.2133 -1.0103
   98MOL   C24937303   2.532   0.289   5.319 -0.3500 -0.0194 -0.1315
   98MOL   C25037304   2.438   0.177   5.354 -0.2481 -0.3695 -0.0754
   98MOL   C25137305   2.523   0.049   5.337 -0.1018 -0.5886  0.1595
   98MOL   C25237306   2.633   0.070   5.236 -0.2282 -0.1936  0.2540
   98MOL   C25337307   2.766   7.645   5.269 -0.5141  0.1707 -0.0212
   98MOL   C25437308   2.857   0.001   5.148  0.5932  0.0670  1.1086
   98MOL   C25537309   2.635   0.228   5.214  0.0310 -0.4489  0.7720
   98MOL   H25637310   2.586   0.330   5.404  1.7355 -0.9623 -0.9668
   98MOL   H25737311   2.392   0.190   5.452 -1.9987 -1.9455 -0.6650
   98MOL   H25837312   2.357   0.176   5.280 -0.4667 -1.7596  0.1695
   98MOL   H25937313   2.463   7.614   5.299  1.0078 -0.9081 -0.9391
   98MOL   H26037314   2.561   0.032   5.438 -0.2434  0.3953  0.3860
   98MOL   H26137315   2.603   0.029   5.139  0.6529  0.3210 -0.2458
   98MOL   H26237316   2.743   7.542   5.297 -1.0489  0.1666 -0.4763
   98MOL   H26337317   2.821   0.043   5.352 -0.5877  0.7442 -0.2799
   98MOL   H26437318   2.877   0.104   5.120  1.3375 -0.0110  1.3673
   98MOL   H26537319   2.800   7.593   5.072  0.4878  0.2877  1.0277
   98MOL   H26637320   2.597   0.257   5.116  0.5560 -1.3294  0.3102
   98MOL   H26737321   2.732   0.275   5.234  0.4156 -0.0658 -1.7411
   98MOL   C26837322   2.997   7.586   5.185 -0.1822  0.1721  0.2975
   98MOL   C26937323   3.098   0.037   5.244 -0.1735  0.5779  0.1252
   98MOL   C27037324   3.183   0.086   5.138 -0.2244 -0.6286  0.5150
   98MOL   C27137325   3.199   7.615   5.042  0.1023  0.2963 -0.1259
   98MOL   C27237326   3.231   0.019   4.903 -0.5750  0.3128 -0.5956
   98MOL   C27337327   3.234   7.561   4.792  0.5017 -0.1661 -0.1506
   98MOL   C27437328   3.068   7.539   5.056  0.2189 -0.2856  0.2149
   98MOL   H27537329   2.980   7.499   5.248 -0.2074 -1.2944 -1.6782
   98MOL   H27637330   3.052   0.114   5.306  1.9881  0.6085  1.7544
   98MOL   H27737331   3.157   7.630   5.318 -0.9728  1.1903  1.2354
   98MOL   H27837332   3.148   0.178   5.090 -1.1717 -0.1374  2.1173
   98MOL   H27937333   3.282   0.112   5.175  0.1826 -2.3560  0.6502
   98MOL   H28037334   3.286   7.556   5.069 -1.0682 -1.2354  0.3536
   98MOL   H28137335   3.329   0.065   4.911  0.4216 -1.9098  0.4845
   98MOL   H28237336   3.163   0.101   4.881  0.0210  1.4344  1.6274
   98MOL   H28337337   3.310   7.486   4.811 -0.0982 -0.3927  1.4247
   98MOL   H28437338   3.142   7.504   4.788  0.1151  0.5702 -2.8587
   98MOL   H28537339   2.999   7.556   4.973  1.9190 -0.1482 -1.2018
   98MOL   H28637340   3.087   7.433   5.041  1.6279  0.1839 -1.6391
   98MOL   C28737341   3.251   7.623   4.651 -0.9473  0.1963  0.2821
   98MOL   C28837342   3.379   0.058   4.631 -0.3562  0.3508 -0.1985
   98MOL   C28937343   3.435   0.025   4.492 -0.0046  0.0771 -0.0397
   98MOL   C29037344   3.328   7.587   4.420  0.1816  0.0350 -0.2286
   98MOL   C29137345   3.382   7.492   4.315 -0.2618  0.9830 -0.3217
   98MOL   C29237346   3.279   7.424   4.223  0.5228  0.2985 -0.1275
   98MOL   C29337347   3.258   7.517   4.543 -0.0853 -0.0048  0.5412
   98MOL   H29437348   3.169   0.043   4.626 -1.8594 -1.0077 -0.0061
   98MOL   H29537349   3.359   0.162   4.654 -0.0910  0.4812 -0.5562
   98MOL   H29637350   3.462   0.030   4.698  0.3672 -0.0849 -1.2570
   98MOL   H29737351   3.522   7.608   4.506 -1.0186 -1.0535  1.1743
   98MOL   H29837352   3.467   0.113   4.436 -0.6209  1.1866  1.3184
   98MOL   H29937353   3.260   0.005   4.366  0.2819 -1.4520 -2.2252
   98MOL   H30037354   3.432   7.410   4.366 -0.1414  1.2513 -0.0004
   98MOL   H30137355   3.451   7.545   4.250  1.8005 -1.5290 -0.2192
   98MOL   H30237356   3.217   7.495   4.168  0.7681  1.7888  1.4872
   98MOL   H30337357   3.209   7.377   4.291  1.6217  0.4014  1.0938
   98MOL   H30437358   3.330   7.444   4.579  2.1533  3.9624  4.6467
   98MOL   H30537359   3.161   7.468   4.531 -0.1888  0.6372 -1.3637
   98MOL   C30637360   3.340   7.327   4.122  0.2077  0.5908 -0.1690
   98MOL   C30737361   3.386   7.194   4.179 -0.2760  0.2058  0.0065
   98MOL   C30837362   3.332   7.088   4.080  0.0733  0.0544 -0.5566
   98MOL   C30937363   3.286   7.162   3.952  0.1491 -0.0239  0.1704
   98MOL   C31037364   3.178   7.090   3.868 -1.1285 -0.6060  0.6524
   98MOL   C31137365   3.248   6.983   3.781 -0.0601 -0.5113 -0.4089
   98MOL   C31237366   3.229   7.291   4.015  0.6348 -0.2183 -0.7470
   98MOL   H31337367   3.422   7.365   4.061  0.2725  0.9079  0.1144
   98MOL   H31437368   3.492   7.181   4.199 -0.2415 -0.5006 -0.6113
   98MOL   H31537369   3.338   7.177   4.275  0.2796  0.1473  0.2720
   98MOL   H31637370   3.416   7.022   4.060 -0.9727 -0.6450 -2.9261
   98MOL   H31737371   3.245   7.033   4.117 -1.6998  1.1591 -2.8742
   98MOL   H31837372   3.372   7.189   3.890 -0.7997 -0.0428 -1.1816
   98MOL   H31937373   3.101   7.051   3.936 -1.3190 -0.8610  0.2894
   98MOL   H32037374   3.127   7.167   3.811 -0.8014  1.6258  3.2494
   98MOL   H32137375   3.181   6.905   3.744 -2.5843  1.8891 -1.0873
   98MOL   H32237376   3.324   6.934   3.842  0.4633 -0.6844 -1.2029
   98MOL   H32337377   3.125   7.279   4.046  0.4780  1.7985 -0.4228
   98MOL   H32437378   3.220   7.372   3.943  3.1747 -0.7333 -1.6914
   98MOL   C32537379   3.317   7.044   3.649 -0.4046 -0.8764 -0.6002
   98MOL   C32637380   3.372   6.920   3.571 -0.0320 -0.0793 -0.2392
   98MOL   C32737381   3.260   6.873   3.473  0.1436 -0.1410  0.0843
   98MOL   C32837382   3.150   6.981   3.481  0.0070  0.0407  0.1961
   98MOL   C32937383   3.094   7.007   3.340  0.3316 -0.5784  0.1553
   98MOL   C33037384   2.949   7.051   3.339 -0.0635 -0.3619 -0.0123
   98MOL   C33137385   3.221   7.104   3.548  0.1191 -0.1898 -0.8167
   98MOL   H33237386   3.405   7.102   3.674 -0.6396 -0.7593 -0.0511
   98MOL   H33337387   3.402   6.841   3.640  2.8976  2.3535  1.4260
   98MOL   H33437388   3.462   6.947   3.516  0.8559 -1.4649  0.4986
   98MOL   H33537389   3.308   6.856   3.376  0.0073 -0.5387  0.0858
   98MOL   H33637390   3.214   6.781   3.509  1.1743 -0.5960  0.2753
   98MOL   H33737391   3.070   6.942   3.544 -0.5193 -1.8434 -1.5854
   98MOL   H33837392   3.158   7.069   3.276  0.3433 -0.2824  0.4505
   98MOL   H33937393   3.098   6.906   3.299  2.2395 -0.0500 -1.0629
   98MOL   H34037394   2.892   6.981   3.401  0.6388  0.2293  1.3307
   98MOL   H34137395   2.940   7.139   3.402  4.2195 -0.3808  0.7608
   98MOL   H34237396   3.144   7.174   3.582 -1.4313 -2.3834  0.3288
   98MOL   H34337397   3.286   7.161   3.482  0.4016  2.3861  1.5694
   98MOL   C34437398   2.885   7.072   3.205 -0.5799  0.5388  0.3598
   98MOL   C34537399   2.931   7.206   3.130  0.2627  0.1922  0.6762
   98MOL   C34637400   2.804   7.250   3.069  0.4106  0.3453 -0.1220
   98MOL   C34737401   2.691   7.211   3.166  0.6671  0.1215  0.2847
   98MOL   C34837402   2.546   7.209   3.112 -0.5693 -0.1389  0.4484
   98MOL   C34937403   2.453   7.179   3.222 -0.3174 -0.7183 -0.1704
   98MOL   C35037404   2.736   7.080   3.222  0.2244  0.2641  0.8974
   98MOL   H35137405   2.899   6.985   3.141  0.1279  1.3310 -0.5831
   98MOL   H35237406   3.007   7.178   3.057 -0.5985 -1.6033  0.4339
   98MOL   H35337407   2.973   7.280   3.198 -1.0552 -1.1756  3.0526
   98MOL   H35437408   2.792   7.352   3.031  0.3957  0.6607  0.7061
   98MOL   H35537409   2.791   7.190   2.980  1.1520  0.0355 -0.0252
   98MOL   H35637410   2.696   7.286   3.245 -3.1196  0.1893  0.5310
   98MOL   H35737411   2.520   7.312   3.088  1.0532  1.1078  3.7491
   98MOL   H35837412   2.532   7.138   3.031 -0.2704  0.5316 -0.1952
   98MOL   H35937413   2.482   7.228   3.315  0.3609  1.4324 -1.4845
   98MOL   H36037414   2.453   7.072   3.243  0.1013 -0.5459  0.7063
   98MOL   H36137415   2.700   7.062   3.324  2.0769 -2.7596  1.1039
   98MOL   H36237416   2.692   7.006   3.155  1.9930 -1.4174  1.5357
   98MOL   C36337417   2.306   7.214   3.188  0.0772 -0.2928 -0.7996
   98MOL   C36437418   2.268   7.364   3.157  0.2823  0.4583 -0.4677
   98MOL   C36537419   2.140   7.398   3.222  0.1119 -0.2772 -0.3445
   98MOL   C36637420   2.081   7.268   3.288 -0.5189 -0.3297  0.0145
   98MOL   C36737421   1.993   7.286   3.411  0.6558 -0.0654 -0.3959
   98MOL   C36837422   1.856   7.348   3.397 -0.1672 -0.3636  0.1194
   98MOL   C36937423   2.209   7.186   3.313  0.0510 -0.4895 -0.1047
   98MOL   H37037424   2.276   7.167   3.095 -0.8167 -0.8148 -0.2542
   98MOL   H37137425   2.344   7.436   3.189  3.3078 -2.3466 -1.0597
   98MOL   H37237426   2.262   7.374   3.049  1.1502  2.2552 -0.3744
   98MOL   H37337427   2.151   7.474   3.299 -2.1064  1.0528 -1.2954
   98MOL   H37437428   2.062   7.425   3.151  0.3030  1.4324  0.0928
   98MOL   H37537429   2.024   7.210   3.216  1.3768 -0.8126 -1.1477
   98MOL   H37637430   1.970   7.187   3.450  0.9225  0.1090  0.2037
   98MOL   H37737431   2.050   7.341   3.486 -2.2042  1.7321  0.5330
   98MOL   H37837432   1.796   7.296   3.322  0.0466 -0.8109  0.2544
   98MOL   H37937433   1.861   7.450   3.361  1.5241 -1.3157 -2.5305
   98MOL   H38037434   2.261   7.204   3.407  0.6455 -1.9578 -0.1454
   98MOL   H38137435   2.196   7.078   3.318  0.9680 -0.6545 -0.8857
   98MOL   H38237436   1.791   7.333   3.484  0.2640  0.0770  0.5207
   99MOL     C137437   0.931   6.913   4.647  0.1977 -0.1449  0.3755
   99MOL     C237438   0.913   6.970   4.790 -0.0587  0.4353 -0.1189
   99MOL     C337439   0.980   6.872   4.876 -0.0534 -0.3221  0.1400
   99MOL     C437440   1.084   6.803   4.790  1.1968 -0.0701 -0.2518
   99MOL     C537441   1.084   6.654   4.817  0.0100 -0.1195  0.2891
   99MOL     C637442   1.147   6.611   4.949  0.3343  0.8968  0.2072
   99MOL     C737443   1.066   6.844   4.651  0.3727 -0.3197 -0.7668
   99MOL     H837444   0.852   6.840   4.630  0.8004 -0.9255  0.8785
   99MOL     H937445   0.808   6.987   4.814 -1.2777 -2.0715 -3.3184
   99MOL    H1037446   0.960   7.067   4.806 -0.8606  0.7648  0.2818
   99MOL    H1137447   1.020   6.916   4.968  0.9870  1.7013 -1.2494
   99MOL    H1237448   0.902   6.803   4.910  0.6725 -1.0302  0.3891
   99MOL    H1337449   1.182   6.837   4.826  1.3460 -0.5925 -0.1552
   99MOL    H1437450   0.985   6.610   4.803 -1.0368  2.2964 -0.2205
   99MOL    H1537451   1.146   6.603   4.744 -0.7742  0.9009 -1.1120
   99MOL    H1637452   1.255   6.618   4.938  0.3749  0.6789  0.4775
   99MOL    H1737453   1.119   6.672   5.034  0.3823 -1.4712  1.9813
   99MOL    H1837454   1.155   6.892   4.609 -0.5361  1.2727 -0.9140
   99MOL    H1937455   1.063   6.759   4.583  0.3707 -3.0538  2.5811
   99MOL    H2037456   0.938   6.984   4.564 -0.9189 -1.2529 -0.6943
   99MOL    C2137457   1.117   6.461   4.985  0.1183 -0.4442 -0.8279
   99MOL    C2237458   1.186   6.351   4.904  0.3703  0.3210 -0.0402
   99MOL    C2337459   1.182   6.221   4.995  0.2608  0.0213 -0.5328
   99MOL    C2437460   1.154   6.269   5.143  0.6178 -0.3977 -0.0879
   99MOL    C2537461   1.245   6.206   5.253 -0.1393 -0.0240 -0.3366
   99MOL    C2637462   1.192   6.235   5.391 -0.0889  0.1124 -0.6241
   99MOL    C2737463   1.174   6.420   5.125 -0.2288 -0.3931 -0.3735
   99MOL    H2837464   1.009   6.446   4.982  0.3886 -3.4608  1.6783
   99MOL    H2937465   1.124   6.339   4.816 -0.9159 -2.3813  1.1969
   99MOL    H3037466   1.286   6.386   4.875  0.8306 -0.1313  0.9716
   99MOL    H3137467   1.101   6.154   4.966  1.0678 -1.5477  0.7584
   99MOL    H3237468   1.274   6.165   4.979  0.0245 -0.5070 -0.0560
   99MOL    H3337469   1.049   6.265   5.170  1.1528  0.3195  2.1774
   99MOL    H3437470   1.340   6.253   5.228 -0.4114  0.3942 -0.5754
   99MOL    H3537471   1.258   6.099   5.233  0.2437  0.0651 -0.5612
   99MOL    H3637472   1.087   6.205   5.393 -0.5961  1.8481 -0.3467
   99MOL    H3737473   1.209   6.337   5.424 -0.3118  0.5013 -1.7225
   99MOL    H3837474   1.122   6.472   5.207  0.4247 -0.4934  0.1091
   99MOL    H3937475   1.277   6.454   5.136 -0.7926  0.2350  3.8682
   99MOL    C4037476   1.250   6.139   5.503 -0.6660 -0.0180  0.4206
   99MOL    C4137477   1.400   6.110   5.485 -0.7941  0.1852 -0.0638
   99MOL    C4237478   1.442   6.064   5.629 -0.0949 -0.1322  0.1208
   99MOL    C4337479   1.351   6.134   5.733  0.5210  0.1071 -0.5917
   99MOL    C4437480   1.306   6.032   5.831  0.0796  0.6156 -0.1544
   99MOL    C4537481   1.198   6.068   5.935 -0.7914 -0.3427  0.6851
   99MOL    C4637482   1.238   6.193   5.647 -0.2722 -0.5675  0.3563
   99MOL    H4737483   1.205   6.039   5.498  2.5625 -1.5085 -0.2437
   99MOL    H4837484   1.457   6.200   5.464 -1.1806  0.4411 -0.0253
   99MOL    H4937485   1.431   6.032   5.415  0.3933  0.2527  0.3712
   99MOL    H5037486   1.444   5.955   5.637  0.7112 -0.0115  1.6719
   99MOL    H5137487   1.549   6.082   5.643  0.0179 -1.3720  0.9581
   99MOL    H5237488   1.409   6.213   5.780 -1.5400  2.2814 -1.5732
   99MOL    H5337489   1.273   5.941   5.781  0.8216 -1.1022  2.3777
   99MOL    H5437490   1.391   5.990   5.884 -1.3453 -0.3447  1.4433
   99MOL    H5537491   1.177   5.980   5.996 -3.3535 -1.9060 -2.3245
   99MOL    H5637492   1.105   6.090   5.883 -0.3314 -1.2250 -0.5435
   99MOL    H5737493   1.137   6.179   5.687 -0.4773 -0.1018 -0.0041
   99MOL    H5837494   1.234   6.302   5.651 -1.1771 -0.5383 -0.8868
   99MOL    C5937495   1.256   6.170   6.039 -0.3484 -0.4520 -0.3386
   99MOL    C6037496   1.148   6.239   6.116  1.0677 -0.0235  0.1604
   99MOL    C6137497   1.208   6.266   6.251  0.1287  0.0591 -0.1088
   99MOL    C6237498   1.292   6.141   6.275  0.3385 -0.0392 -0.4304
   99MOL    C6337499   1.384   6.143   6.396  1.0613 -0.0737 -0.1548
   99MOL    C6437500   1.316   6.204   6.520 -0.6327 -0.1171 -0.0489
   99MOL    C6537501   1.354   6.111   6.139  0.0642 -0.5959  0.3353
   99MOL    H6637502   1.315   6.246   5.988  0.8591  1.2340  3.3753
   99MOL    H6737503   1.124   6.331   6.063  0.5471 -0.6419 -0.7027
   99MOL    H6837504   1.065   6.171   6.139  1.1675 -0.0380  0.4745
   99MOL    H6937505   1.270   6.355   6.242 -0.1790  0.4875  1.7478
   99MOL    H7037506   1.145   6.288   6.338  1.3216  0.8505  0.5612
   99MOL    H7137507   1.221   6.062   6.302 -0.0225  0.7867  1.0928
   99MOL    H7237508   1.478   6.197   6.383  0.8129  0.3005 -0.3759
   99MOL    H7337509   1.425   6.043   6.415  3.0717  0.7037 -0.2022
   99MOL    H7437510   1.299   6.309   6.496 -0.7024 -0.3552 -1.0558
   99MOL    H7537511   1.217   6.161   6.535 -0.6483  0.3842  1.3837
   99MOL    H7637512   1.445   6.170   6.125 -0.2332 -0.4126 -0.8260
   99MOL    H7737513   1.374   6.005   6.125  0.3081 -0.5311  0.1907
   99MOL    C7837514   1.414   6.191   6.642 -0.8159  0.6562 -0.3637
   99MOL    C7937515   1.351   6.218   6.778  0.5032 -0.5087 -0.8590
   99MOL    C8037516   1.429   6.146   6.893 -0.8305  0.5663  0.1300
   99MOL    C8137517   1.535   6.055   6.822  0.0760  0.5897  0.1747
   99MOL    C8237518   1.543   5.919   6.899 -0.2005  0.0957 -0.3407
   99MOL    C8337519   1.667   5.836   6.859 -0.2306  0.2766  0.5531
   99MOL    C8437520   1.477   6.057   6.674  0.5485  0.5701  0.9210
   99MOL    H8537521   1.487   6.271   6.631  0.8735 -0.5912  1.4958
   99MOL    H8637522   1.331   6.325   6.789  1.9365 -0.1867 -1.2004
   99MOL    H8737523   1.254   6.170   6.767  1.2822 -2.5152  0.6893
   99MOL    H8837524   1.476   6.213   6.965  0.1808  0.3182 -0.2799
   99MOL    H8937525   1.363   6.080   6.949 -0.0035  0.1403  0.6117
   99MOL    H9037526   1.633   6.101   6.835  0.6926 -0.8598  0.7452
   99MOL    H9137527   1.452   5.863   6.877  0.0571 -1.0721  1.4264
   99MOL    H9237528   1.546   5.944   7.005 -1.5580 -0.4224 -0.1770
   99MOL    H9337529   1.758   5.893   6.880  0.7695 -0.8001 -0.8230
   99MOL    H9437530   1.670   5.824   6.751 -0.0541 -1.4621  0.7378
   99MOL    H9537531   1.402   5.978   6.664  0.8683  0.4294 -0.4927
   99MOL    H9637532   1.557   6.040   6.602 -0.9046  0.2348 -0.6533
   99MOL    C9737533   1.666   5.702   6.925  0.0836  0.1869  0.3702
   99MOL    C9837534   1.678   5.713   7.078  0.0265 -0.0590  0.3115
   99MOL    C9937535   1.757   5.592   7.138 -0.1603 -0.2607 -0.1685
   99MOL   C10037536   1.822   5.530   7.013  0.1669 -0.2268  0.1014
   99MOL   C10137537   1.979   5.512   7.022 -0.0487 -0.8041 -0.2718
   99MOL   C10237538   2.014   5.387   7.108 -0.4652  0.5481  0.6568
   99MOL   C10337539   1.790   5.625   6.889  0.3283  0.3114 -0.5368
   99MOL   H10437540   1.579   5.644   6.894 -1.3267  0.5805  3.4447
   99MOL   H10537541   1.726   5.803   7.115 -1.5751  1.4247 -1.0884
   99MOL   H10637542   1.578   5.730   7.117 -0.7161 -1.7804 -0.7454
   99MOL   H10737543   1.833   5.621   7.211 -0.6596 -1.5289  0.8869
   99MOL   H10837544   1.678   5.523   7.167 -1.4035  1.5951  0.9684
   99MOL   H10937545   1.766   5.442   6.981 -1.5167  1.0378 -0.5529
   99MOL   H11037546   2.032   5.499   6.928  2.3146  2.9860  0.4519
   99MOL   H11137547   2.026   5.600   7.065 -1.7890 -0.1453  0.3416
   99MOL   H11237548   1.956   5.393   7.201  0.3031  0.4361  1.1495
   99MOL   H11337549   1.997   5.298   7.049 -0.4089  1.0247 -0.0819
   99MOL   H11437550   1.871   5.698   6.888  1.3149 -0.7562  0.7484
   99MOL   H11537551   1.778   5.570   6.795 -2.6195  0.3148 -0.1911
   99MOL   C11637552   2.166   5.385   7.138  0.2797  0.3922 -0.0978
   99MOL   C11737553   2.208   5.280   7.245  0.8854 -0.2570  0.1035
   99MOL   C11837554   2.361   5.262   7.223 -0.9147 -0.0540 -0.7211
   99MOL   C11937555   2.389   5.293   7.077  0.0263 -0.7271 -0.0792
   99MOL   C12037556   2.437   5.161   7.002  0.5664  0.8334 -0.0664
   99MOL   C12137557   2.482   5.207   6.864 -0.2744  0.4112  0.3822
   99MOL   C12237558   2.264   5.357   7.022  0.2405  0.7659  0.0725
   99MOL   H12337559   2.185   5.481   7.188  2.0796 -0.0531  0.1278
   99MOL   H12437560   2.157   5.190   7.211  2.4805 -1.5842  1.1863
   99MOL   H12537561   2.180   5.306   7.347  0.4200 -0.4753  0.0369
   99MOL   H12637562   2.383   5.157   7.244  0.5016  0.0546 -1.5700
   99MOL   H12737563   2.412   5.330   7.291  2.3162 -1.9061 -1.1926
   99MOL   H12837564   2.469   5.364   7.098 -1.8463  0.9393  1.6317
   99MOL   H12937565   2.358   5.087   6.992  1.0117  0.1372  1.4852
   99MOL   H13037566   2.513   5.115   7.065  0.6833  0.6968 -0.3041
   99MOL   H13137567   2.522   5.309   6.861 -1.2483  0.7617 -2.3277
   99MOL   H13237568   2.387   5.209   6.810  0.7688 -2.0722 -1.6514
   99MOL   H13337569   2.292   5.443   6.961 -0.7469 -0.3666 -2.0433
   99MOL   H13437570   2.225   5.285   6.949 -0.5225  1.1337  0.1172
   99MOL   C13537571   2.566   5.104   6.783 -0.8215 -0.2769  0.2297
   99MOL   C13637572   2.593   5.148   6.634  0.4124  0.3565 -0.1941
   99MOL   C13737573   2.743   5.107   6.599 -0.1947 -0.0698 -0.0514
   99MOL   C13837574   2.819   5.140   6.729  0.4740 -0.7969  0.2412
   99MOL   C13937575   2.969   5.088   6.738  0.3132 -0.2830 -0.2846
   99MOL   C14037576   3.025   5.118   6.878 -0.7571 -0.0266 -0.1226
   99MOL   C14137577   2.711   5.097   6.839 -0.3962 -0.1628  0.3228
   99MOL   H14237578   2.515   5.007   6.779 -2.1019  0.4117 -0.8745
   99MOL   H14337579   2.515   5.118   6.565  0.7360  0.4825 -0.6133
   99MOL   H14437580   2.587   5.257   6.627 -0.6472  0.5537  2.6471
   99MOL   H14537581   2.744   5.001   6.571  0.1717 -0.0549 -0.0904
   99MOL   H14637582   2.793   5.147   6.511  0.0944  1.1606  0.6672
   99MOL   H14737583   2.834   5.247   6.742  0.2373 -0.5475 -1.5231
   99MOL   H14837584   3.030   5.123   6.655 -1.3262  2.7139 -0.3055
   99MOL   H14937585   2.961   4.980   6.726 -0.1323 -0.1007 -1.7413
   99MOL   H15037586   3.046   5.223   6.896  0.8306 -0.4671  0.7137
   99MOL   H15137587   2.955   5.075   6.950 -1.3134  1.1718  0.0551
   99MOL   H15237588   2.721   5.152   6.932  1.5944  0.2412 -0.0945
   99MOL   H15337589   2.730   4.995   6.873  1.6699  0.2559  0.5225
   99MOL   C15437590   3.162   5.044   6.909  0.1259  0.3529  0.5918
   99MOL   C15537591   3.198   5.042   7.057  0.9096  0.6245 -0.1907
   99MOL   C15637592   3.354   5.015   7.056  0.1124  1.0327  0.1145
   99MOL   C15737593   3.411   5.053   6.920  0.3361 -0.7903 -0.5914
   99MOL   C15837594   3.521   5.158   6.912  0.5269  0.3511 -0.2797
   99MOL   C15937595   3.659   5.118   6.971  0.1460  0.2115  0.0459
   99MOL   C16037596   3.289   5.101   6.840 -0.4261 -0.5601 -0.3122
   99MOL   H16137597   3.138   4.944   6.874  0.9624  0.5491 -0.6061
   99MOL   H16237598   3.193   5.142   7.099  0.9149 -1.5545  5.4674
   99MOL   H16337599   3.129   4.971   7.103 -0.1743  1.3173 -0.7038
   99MOL   H16437600   3.413   5.065   7.133  0.9036 -0.5529  0.5613
   99MOL   H16537601   3.358   4.907   7.075 -1.2182  0.4661 -2.5783
   99MOL   H16637602   3.463   4.970   6.872 -1.4336 -2.8062  0.9084
   99MOL   H16737603   3.486   5.250   6.960  0.4667  0.8850 -1.3293
   99MOL   H16837604   3.523   5.195   6.809 -0.4696 -0.8184 -0.7239
   99MOL   H16937605   3.713   5.206   7.004  0.6328 -0.2303  0.4466
   99MOL   H17037606   3.647   5.056   7.060  0.2405 -1.1206 -0.8461
   99MOL   H17137607   3.295   5.073   6.735 -1.4744  0.0866 -0.5555
   99MOL   H17237608   3.279   5.209   6.842  1.1072 -0.4016 -0.8054
   99MOL   C17337609   3.737   5.038   6.869  0.1609  0.1592  0.4322
   99MOL   C17437610   3.781   5.118   6.743 -0.1958  0.3294 -0.1133
   99MOL   C17537611   3.907   5.054   6.685  0.4385  0.4367  0.0911
   99MOL   C17637612   3.960   4.958   6.793 -0.5680 -0.1947 -0.0364
   99MOL   C17737613   4.110   4.968   6.811 -0.1730 -0.3953  0.2706
   99MOL   C17837614   4.194   4.903   6.702  0.4240 -0.2526  0.8526
   99MOL   C17937615   3.876   4.997   6.922  0.5030  0.2501 -0.3854
   99MOL   H18037616   3.682   4.951   6.834  1.8189 -0.9898  0.6101
   99MOL   H18137617   3.793   5.226   6.758 -1.7929  0.9831 -3.0133
   99MOL   H18237618   3.705   5.122   6.665  0.1378  0.3047 -0.4411
   99MOL   H18337619   3.899   5.009   6.586  2.2690  0.0967  0.0710
   99MOL   H18437620   3.984   5.132   6.681 -0.0937  0.8781 -3.2225
   99MOL   H18537621   3.930   4.856   6.771  2.4736 -1.0472 -0.3462
   99MOL   H18637622   4.128   4.919   6.906 -2.6297  0.1336  1.0682
   99MOL   H18737623   4.148   5.069   6.825  3.8255 -1.8686  0.4165
   99MOL   H18837624   4.300   4.910   6.724  0.3572 -0.6208  1.2942
   99MOL   H18937625   4.182   4.951   6.604 -2.2119 -3.5873 -0.5587
   99MOL   H19037626   3.925   5.085   6.964 -1.2766  0.9910  0.1619
   99MOL   H19137627   3.874   4.914   6.992 -1.8331  0.4800 -0.1483
   99MOL   C19237628   4.173   4.754   6.695 -0.2488  0.7316  0.2653
   99MOL   C19337629   4.190   4.671   6.824  0.4810  0.2871 -0.4953
   99MOL   C19437630   4.219   4.535   6.767 -0.1716  0.0287  0.1729
   99MOL   C19537631   4.322   4.553   6.651 -0.0898  0.4345 -0.7989
   99MOL   C19637632   4.328   4.431   6.557 -0.2965 -0.5527  0.5274
   99MOL   C19737633   4.403   4.469   6.422 -0.2545  0.1298 -0.2343
   99MOL   C19837634   4.271   4.688   6.591  0.4802  0.7460  0.2454
   99MOL   H19937635   4.072   4.739   6.657  0.4625 -0.3032 -1.2611
   99MOL   H20037636   4.286   4.709   6.860  1.0029 -1.8873  0.5417
   99MOL   H20137637   4.116   4.669   6.905 -1.6690  1.2583 -2.3794
   99MOL   H20237638   4.134   4.473   6.738  0.4277 -1.3096  1.2386
   99MOL   H20337639   4.268   4.468   6.837  0.7527 -0.6139 -1.0659
   99MOL   H20437640   4.418   4.574   6.697 -1.1038  0.6999  1.2190
   99MOL   H20537641   4.224   4.404   6.540 -0.5125  1.4375 -1.6500
   99MOL   H20637642   4.374   4.344   6.602  0.0962 -0.1281  0.9515
   99MOL   H20737643   4.502   4.508   6.444 -0.5445 -0.2838  2.0228
   99MOL   H20837644   4.348   4.541   6.361 -0.6103  0.5869  0.6136
   99MOL   H20937645   4.215   4.683   6.497  0.2804  1.7145  0.3101
   99MOL   H21037646   4.355   4.751   6.560  0.2709  0.0952 -1.7162
   99MOL   C21137647   4.407   4.341   6.328  0.1149 -0.1458  0.3735
   99MOL   C21237648   4.505   4.359   6.219 -0.4031  0.1483  0.2166
   99MOL   C21337649   4.428   4.414   6.100  0.7687 -0.1254 -0.1719
   99MOL   C21437650   4.299   4.326   6.100 -0.2944  0.1581 -0.2440
   99MOL   C21537651   4.189   4.387   6.025  0.9187 -0.4166  0.4227
   99MOL   C21637652   4.061   4.301   6.027  0.4228  0.2282  0.2188
   99MOL   C21737653   4.272   4.318   6.254  0.4112 -0.1351  0.4047
   99MOL   H21837654   4.437   4.254   6.386  1.3390 -1.4529 -2.1204
   99MOL   H21937655   4.594   4.420   6.237 -0.5242  0.7691 -1.2521
   99MOL   H22037656   4.530   4.257   6.190 -0.8937  0.1424 -0.1939
   99MOL   H22137657   4.385   4.512   6.121 -1.2453 -1.6293  3.0665
   99MOL   H22237658   4.477   4.415   6.002  0.7059 -1.1152 -0.2193
   99MOL   H22337659   4.324   4.230   6.054  1.9429  1.1336 -1.1113
   99MOL   H22437660   4.222   4.396   5.921  0.5075  0.7513  0.3807
   99MOL   H22537661   4.166   4.489   6.058 -0.2620 -0.8961  1.0902
   99MOL   H22637662   4.089   4.201   5.993 -0.8682  0.8199 -2.6615
   99MOL   H22737663   4.023   4.284   6.128  0.9923 -0.4863  0.3146
   99MOL   H22837664   4.245   4.215   6.278  0.0076  0.2328  1.5217
   99MOL   H22937665   4.189   4.379   6.290 -0.9364 -1.3314 -0.5708
   99MOL   C23037666   3.950   4.363   5.936 -0.3704  0.7898 -0.7206
   99MOL   C23137667   3.904   4.507   5.961 -0.1165  0.0391 -0.5129
   99MOL   C23237668   3.752   4.508   5.926  0.4125 -0.0768  0.0029
   99MOL   C23337669   3.715   4.372   5.867  0.3786  0.5030  0.1799
   99MOL   C23437670   3.716   4.363   5.706  0.2692 -0.3171  0.4577
   99MOL   C23537671   3.587   4.408   5.638  0.4289  0.5656  0.0971
   99MOL   C23637672   3.816   4.280   5.933 -0.2484 -0.5683  0.4455
   99MOL   H23737673   4.008   4.357   5.844  2.0488  1.9339  0.6722
   99MOL   H23837674   3.911   4.539   6.065  1.4535  1.9048 -1.1665
   99MOL   H23937675   3.959   4.580   5.903 -0.7869 -0.1373 -1.3786
   99MOL   H24037676   3.740   4.584   5.848  3.0884  0.3646 -0.0169
   99MOL   H24137677   3.695   4.530   6.016 -1.3402 -0.3299 -1.0116
   99MOL   H24237678   3.619   4.336   5.903  0.3102  0.4455 -0.0632
   99MOL   H24337679   3.732   4.260   5.673  0.8104  0.3228 -1.3786
   99MOL   H24437680   3.806   4.420   5.679 -0.7490  1.6698  1.1163
   99MOL   H24537681   3.505   4.337   5.650  0.7822  0.5560  2.7086
   99MOL   H24637682   3.543   4.491   5.693  2.0693  0.3938  1.7089
   99MOL   H24737683   3.818   4.186   5.879  0.6203 -0.9851  1.1803
   99MOL   H24837684   3.786   4.260   6.036 -1.7191 -4.0269 -0.6032
   99MOL   C24937685   3.615   4.455   5.491  0.4471  0.6623 -0.1883
   99MOL   C25037686   3.487   4.483   5.408  0.0999 -0.0216 -0.2389
   99MOL   C25137687   3.527   4.574   5.298 -0.3669 -0.4862  0.3048
   99MOL   C25237688   3.625   4.670   5.372  0.2871 -0.0782 -0.0857
   99MOL   C25337689   3.719   4.755   5.285 -0.4244 -0.5384 -0.0285
   99MOL   C25437690   3.649   4.855   5.198  0.6066  0.3547  0.0581
   99MOL   C25537691   3.685   4.587   5.488 -0.8572 -0.0286  0.1785
   99MOL   H25637692   3.685   4.385   5.446  1.5836  1.4593  0.3119
   99MOL   H25737693   3.462   4.387   5.365 -0.7076 -0.8754  2.0342
   99MOL   H25837694   3.409   4.526   5.472  0.3488  1.5422 -0.9529
   99MOL   H25937695   3.444   4.622   5.247 -0.1696 -0.2293  0.2256
   99MOL   H26037696   3.580   4.522   5.219  1.4712  0.7773  0.6858
   99MOL   H26137697   3.573   4.751   5.423  0.5932 -0.4991  0.9055
   99MOL   H26237698   3.787   4.700   5.220  0.4250  0.9019 -0.3701
   99MOL   H26337699   3.788   4.809   5.349 -1.2753  1.7651 -1.0251
   99MOL   H26437700   3.713   4.944   5.189  2.1421 -0.7250  0.1443
   99MOL   H26537701   3.560   4.885   5.252  0.4389  0.4505 -0.2689
   99MOL   H26637702   3.682   4.646   5.579  0.8609 -0.6877  0.6983
   99MOL   H26737703   3.794   4.576   5.481 -0.9804 -0.8212 -0.6283
   99MOL   C26837704   3.619   4.797   5.062 -0.2538 -0.0545 -0.0079
   99MOL   C26937705   3.738   4.787   4.966  0.2618  0.5238  0.4239
   99MOL   C27037706   3.697   4.833   4.826 -1.1937  0.0648 -0.1630
   99MOL   C27137707   3.545   4.853   4.843 -0.1196  0.8008  0.0770
   99MOL   C27237708   3.487   4.960   4.754  0.5119  0.1477 -0.1500
   99MOL   C27337709   3.498   4.924   4.607 -0.7151 -0.3407  0.2877
   99MOL   C27437710   3.522   4.881   4.990 -0.1419  0.1106  0.7450
   99MOL   H27537711   3.578   4.697   5.075 -1.6129  0.8131  2.8064
   99MOL   H27637712   3.810   4.863   4.997  0.8228  0.4450 -0.6452
   99MOL   H27737713   3.780   4.686   4.963 -2.8468 -0.7749 -2.2007
   99MOL   H27837714   3.749   4.919   4.784 -0.6621  0.4841  1.3239
   99MOL   H27937715   3.713   4.758   4.749 -1.9910  0.1180 -0.3823
   99MOL   H28037716   3.485   4.761   4.838  2.7942 -1.1304 -0.3897
   99MOL   H28137717   3.524   5.060   4.777  0.5284 -0.0047  0.4910
   99MOL   H28237718   3.379   4.965   4.773  0.7382 -2.0672  2.0321
   99MOL   H28337719   3.600   4.901   4.574 -1.0463  2.1205 -2.6659
   99MOL   H28437720   3.441   4.836   4.575  0.4868 -0.7172 -0.9112
   99MOL   H28537721   3.531   4.986   5.014 -1.5651  0.2760  0.6135
   99MOL   H28637722   3.422   4.851   5.022  0.6023 -1.7795  1.3772
   99MOL   C28737723   3.455   5.041   4.510  0.7247  0.0905 -0.1462
   99MOL   C28837724   3.478   5.001   4.361  0.3168 -0.4096  0.2518
   99MOL   C28937725   3.346   5.037   4.283 -0.5592 -0.7744 -0.1176
   99MOL   C29037726   3.260   5.119   4.383  0.1461  0.1383  0.1269
   99MOL   C29137727   3.108   5.107   4.367  0.2858 -1.0082  0.4511
   99MOL   C29237728   3.022   5.203   4.448  0.1866  0.1766 -0.1145
   99MOL   C29337729   3.305   5.078   4.522 -0.0717  0.0384  0.3560
   99MOL   H29437730   3.525   5.122   4.526 -0.8127  1.4563 -0.2053
   99MOL   H29537731   3.555   5.061   4.314 -0.4936 -0.1310 -0.7293
   99MOL   H29637732   3.520   4.903   4.339  0.9421 -0.1544  0.3127
   99MOL   H29737733   3.284   4.952   4.255  0.7735 -2.7531  2.6405
   99MOL   H29837734   3.372   5.101   4.199  1.3115 -1.2695  0.0657
   99MOL   H29937735   3.279   5.227   4.382  0.9339  0.0004 -0.1570
   99MOL   H30037736   3.074   5.006   4.392  0.4086 -1.0826  0.3219
   99MOL   H30137737   3.085   5.126   4.263  1.6901 -1.4638  0.0488
   99MOL   H30237738   3.075   5.298   4.448  0.5147 -0.0045 -0.3918
   99MOL   H30337739   3.027   5.164   4.550 -1.1442 -0.7183 -0.3740
   99MOL   H30437740   3.247   4.990   4.549 -3.3364  1.3753 -1.9685
   99MOL   H30537741   3.301   5.154   4.600  0.0268  0.6684 -0.2474
   99MOL   C30637742   2.877   5.211   4.414 -0.1827 -0.6928  0.6211
   99MOL   C30737743   2.788   5.091   4.449  0.1320  0.5154  0.1857
   99MOL   C30837744   2.646   5.143   4.459  0.5125 -0.4159  0.0706
   99MOL   C30937745   2.660   5.296   4.497  0.0474 -0.0996  0.1943
   99MOL   C31037746   2.608   5.332   4.638 -0.4746  0.4865 -0.1175
   99MOL   C31137747   2.597   5.477   4.685 -0.1377  0.5016  0.2826
   99MOL   C31237748   2.813   5.328   4.481  0.1129 -0.6081  0.3155
   99MOL   H31337749   2.873   5.224   4.306 -1.2245 -0.4742  0.6802
   99MOL   H31437750   2.803   5.005   4.383  0.8571 -0.7235  1.9211
   99MOL   H31537751   2.820   5.069   4.551  3.2503  0.2440 -0.7857
   99MOL   H31637752   2.608   5.138   4.357  1.0650  0.7179 -0.1959
   99MOL   H31737753   2.584   5.078   4.520 -1.6818  0.2946 -1.3123
   99MOL   H31837754   2.604   5.340   4.415  0.9279  0.6906 -0.0017
   99MOL   H31937755   2.510   5.285   4.632  0.0487 -0.9091  1.7136
   99MOL   H32037756   2.668   5.281   4.713  1.1491  2.7899  0.2152
   99MOL   H32137757   2.568   5.542   4.603  1.8125  0.9248 -0.0840
   99MOL   H32237758   2.693   5.516   4.717 -0.3399  0.8627  0.4499
   99MOL   H32337759   2.843   5.369   4.578 -0.2570  0.7971 -0.1608
   99MOL   H32437760   2.828   5.410   4.411 -0.1866 -0.0449  0.8977
   99MOL   C32537761   2.499   5.486   4.807  0.0036  0.1615  0.1120
   99MOL   C32637762   2.545   5.397   4.930  0.2751  0.2945  0.9455
   99MOL   C32737763   2.530   5.478   5.057 -0.2253  0.0997 -0.1362
   99MOL   C32837764   2.542   5.621   5.019  0.4466  0.0398  0.3358
   99MOL   C32937765   2.492   5.728   5.116 -0.3452 -0.2269  0.4688
   99MOL   C33037766   2.593   5.796   5.208  0.4911 -0.2928 -0.4213
   99MOL   C33137767   2.488   5.623   4.872  0.1036 -0.4510 -0.0284
   99MOL   H33237768   2.398   5.453   4.779 -0.5189  1.7203  0.1169
   99MOL   H33337769   2.651   5.386   4.908 -0.0473  1.0820 -1.0666
   99MOL   H33437770   2.492   5.303   4.918 -1.1670  1.0617  1.1833
   99MOL   H33537771   2.435   5.460   5.107  0.8452 -0.2077  1.8554
   99MOL   H33637772   2.614   5.463   5.125  0.2542  0.4538 -0.6460
   99MOL   H33737773   2.647   5.651   5.008  0.8429 -1.3662  0.1752
   99MOL   H33837774   2.440   5.803   5.055 -0.8178 -0.0671  1.0604
   99MOL   H33937775   2.406   5.691   5.172 -0.3759 -0.6770  0.1225
   99MOL   H34037776   2.643   5.713   5.258  1.6944 -1.0473 -2.8107
   99MOL   H34137777   2.667   5.856   5.156 -0.7609  2.1423  0.5253
   99MOL   H34237778   2.536   5.706   4.819 -0.9136  1.5530  2.1118
   99MOL   H34337779   2.382   5.645   4.877 -0.1910 -1.6755 -0.9025
   99MOL   C34437780   2.529   5.882   5.315  0.1358 -0.0959  0.1180
   99MOL   C34537781   2.640   5.934   5.404 -0.1773  1.0070 -0.1299
   99MOL   C34637782   2.565   5.959   5.540 -0.0784 -0.4009 -0.0860
   99MOL   C34737783   2.466   5.842   5.550  0.3051  0.8072 -0.5796
   99MOL   C34837784   2.347   5.872   5.639  0.3937 -0.1449 -0.2891
   99MOL   C34937785   2.248   5.767   5.659  0.3239  0.2859 -1.1211
   99MOL   C35037786   2.432   5.817   5.406  0.1658  0.9122  0.1554
   99MOL   H35137787   2.489   5.975   5.273  0.8035 -0.3270 -1.0581
   99MOL   H35237788   2.696   6.021   5.369 -0.9024  1.5158 -0.0235
   99MOL   H35337789   2.711   5.856   5.432  2.1820  3.5349  1.1310
   99MOL   H35437790   2.632   5.980   5.623 -0.1964 -0.1431 -0.0541
   99MOL   H35537791   2.510   6.052   5.525  0.9006  0.0928 -0.7188
   99MOL   H35637792   2.516   5.751   5.584  0.7340  0.6327 -1.6474
   99MOL   H35737793   2.382   5.909   5.736  1.8293 -1.1624 -0.4094
   99MOL   H35837794   2.300   5.961   5.595  1.2441 -0.1539 -1.2249
   99MOL   H35937795   2.298   5.674   5.688 -1.7151 -0.3994  0.3271
   99MOL   H36037796   2.218   5.748   5.556  1.1027  0.0303 -1.3035
   99MOL   H36137797   2.422   5.708   5.401  0.4491  0.8356  1.2437
   99MOL   H36237798   2.338   5.867   5.381 -0.4189  0.7217  1.9011
   99MOL   C36337799   2.117   5.802   5.737 -0.2239  0.2655 -0.4620
   99MOL   C36437800   2.147   5.837   5.883 -0.1399  0.3639  0.3305
   99MOL   C36537801   2.060   5.743   5.967 -0.2283  0.3154  0.0645
   99MOL   C36637802   1.957   5.684   5.867  0.0118 -0.0541  0.1038
   99MOL   C36737803   1.898   5.546   5.922 -0.3523 -0.6805  1.2964
   99MOL   C36837804   1.852   5.539   6.072 -0.2007  0.0900 -0.1212
   99MOL   C36937805   2.026   5.687   5.729 -0.6296 -1.1352 -1.1872
   99MOL   H37037806   2.081   5.892   5.688  0.5792  0.1931 -1.1883
   99MOL   H37137807   2.254   5.821   5.901 -0.0685  0.8126  0.2945
   99MOL   H37237808   2.119   5.940   5.901 -2.1895 -0.3510  1.4445
   99MOL   H37337809   2.118   5.663   6.013 -1.0192  0.5416  1.4902
   99MOL   H37437810   2.010   5.805   6.042  0.6243 -1.6987  2.3740
   99MOL   H37537811   1.867   5.746   5.862 -0.2797 -0.1840  2.6272
   99MOL   H37637812   1.813   5.518   5.859 -0.2576  0.9078  0.4270
   99MOL   H37737813   1.979   5.473   5.917  0.8709  0.6285  1.7421
   99MOL   H37837814   1.765   5.604   6.082  0.4259  0.7620  1.1055
   99MOL   H37937815   1.937   5.573   6.131 -1.0695  1.3397  0.4224
   99MOL   H38037816   2.090   5.599   5.725 -0.6693 -1.2374  0.1871
   99MOL   H38137817   1.950   5.699   5.652 -2.3211  1.8561  0.8312
   99MOL   H38237818   1.834   5.437   6.106  3.7419 -1.4242 -2.3424
  100MOL     C137819   1.229   0.045   3.963  0.0805 -0.4971 -0.0276
  100MOL     C237820   1.243   0.161   3.865  0.5927  0.2970 -0.4261
  100MOL     C337821   1.239   0.097   3.723 -0.0609  0.0150 -0.3381
  100MOL     C437822   1.204   7.593   3.728  1.0524  0.1980 -0.8244
  100MOL     C537823   1.272   7.513   3.622 -0.0938 -0.0831 -0.0627
  100MOL     C637824   1.216   7.376   3.596  0.2029  0.2590  0.1177
  100MOL     C737825   1.243   7.563   3.876 -0.0827 -1.0807  0.4255
  100MOL     H837826   1.303   0.056   4.042 -0.4021  0.1047  0.3464
  100MOL     H937827   1.332   0.219   3.892 -0.2527  2.3067 -1.8135
  100MOL    H1037828   1.162   0.233   3.877 -1.0575 -1.4830 -0.6672
  100MOL    H1137829   1.164   0.152   3.666 -0.9226  0.5284  1.2511
  100MOL    H1237830   1.334   0.106   3.671  0.3620  0.1146  0.4459
  100MOL    H1337831   1.095   7.584   3.729  1.0453  0.1697  2.5068
  100MOL    H1437832   1.275   7.567   3.528 -2.0129 -0.0847 -0.1429
  100MOL    H1537833   1.378   7.505   3.646  0.1698  0.0024 -1.1758
  100MOL    H1637834   1.215   7.317   3.688  0.4512  1.9969  1.2661
  100MOL    H1737835   1.115   7.370   3.556 -0.1259  1.8270  0.6620
  100MOL    H1837836   1.191   7.476   3.915 -1.4487 -0.6193 -0.3614
  100MOL    H1937837   1.352   7.553   3.876  0.5142  4.1843 -0.9725
  100MOL    H2037838   1.131   0.046   4.011 -0.1525  0.3588 -0.5067
  100MOL    C2137839   1.287   7.293   3.488  0.3136  0.1507  0.5446
  100MOL    C2237840   1.440   7.272   3.508  0.3377  0.1443 -0.0178
  100MOL    C2337841   1.460   7.122   3.474 -0.0936  0.7997 -0.2442
  100MOL    C2437842   1.349   7.066   3.399  1.0189  0.4049 -0.3978
  100MOL    C2537843   1.318   6.919   3.407 -0.1239  0.2923  0.2825
  100MOL    C2637844   1.428   6.845   3.337  0.2667 -0.1269  0.2781
  100MOL    C2737845   1.240   7.147   3.458 -0.4785  0.3227  0.1665
  100MOL    H2837846   1.273   7.347   3.395  0.9587  0.0921  0.4093
  100MOL    H2937847   1.502   7.348   3.461 -0.8996  2.5495  2.1324
  100MOL    H3037848   1.470   7.278   3.612  0.0172  0.9238  0.0292
  100MOL    H3137849   1.556   7.098   3.429 -0.5930 -0.6979 -0.5244
  100MOL    H3237850   1.460   7.079   3.574 -0.8824 -0.6286 -0.8542
  100MOL    H3337851   1.355   7.098   3.295 -2.6121 -2.3575 -1.5676
  100MOL    H3437852   1.221   6.908   3.358 -0.2743 -0.8254  0.8052
  100MOL    H3537853   1.313   6.905   3.515 -0.0865  0.5717  0.3182
  100MOL    H3637854   1.510   6.828   3.407 -1.0279 -1.8148  1.4372
  100MOL    H3737855   1.461   6.903   3.251  0.2859  1.0559  1.0742
  100MOL    H3837856   1.155   7.159   3.391 -0.2422  1.9382  0.1195
  100MOL    H3937857   1.198   7.108   3.550  0.1587  0.4331  0.5135
  100MOL    C4037858   1.388   6.704   3.287 -0.0629 -0.0163 -0.1894
  100MOL    C4137859   1.261   6.713   3.194  0.4495  0.3450  0.3734
  100MOL    C4237860   1.279   6.614   3.086  0.0575  1.1900  0.3724
  100MOL    C4337861   1.430   6.630   3.060 -0.1926 -0.4102  0.1117
  100MOL    C4437862   1.483   6.507   2.978 -0.0104  0.2640  0.3484
  100MOL    C4537863   1.630   6.511   2.944  0.2501 -0.8287 -0.9176
  100MOL    C4637864   1.491   6.640   3.199  0.0504  0.5132 -0.1885
  100MOL    H4737865   1.371   6.637   3.370  1.2197  1.3841  1.2406
  100MOL    H4837866   1.253   6.816   3.157 -0.0846 -0.7934 -2.8748
  100MOL    H4937867   1.169   6.689   3.249 -0.1113 -1.3609 -1.2555
  100MOL    H5037868   1.268   6.513   3.126  1.2491  1.8859  2.4989
  100MOL    H5137869   1.217   6.631   2.997 -0.2533 -0.3819  0.2720
  100MOL    H5237870   1.462   6.726   3.018  2.1778 -0.6431  1.2788
  100MOL    H5337871   1.459   6.409   3.020 -2.1061  0.4502 -0.3184
  100MOL    H5437872   1.425   6.512   2.886 -0.7504 -0.9876  0.7227
  100MOL    H5537873   1.698   6.507   3.029 -1.8821  2.1600  1.0297
  100MOL    H5637874   1.641   6.605   2.890 -1.9833 -0.7840 -1.3487
  100MOL    H5737875   1.506   6.543   3.247  1.2583  0.1813 -1.2321
  100MOL    H5837876   1.589   6.686   3.208  1.0545 -1.5407 -0.3194
  100MOL    C5937877   1.683   6.394   2.854  0.3529 -0.2849  0.2692
  100MOL    C6037878   1.615   6.391   2.719 -0.5481  0.0484  0.1592
  100MOL    C6137879   1.713   6.314   2.634  0.0147  0.2864  0.0389
  100MOL    C6237880   1.859   6.338   2.700 -0.0885  0.6059  0.1332
  100MOL    C6337881   1.936   6.197   2.712 -0.2358  0.0775 -0.6701
  100MOL    C6437882   1.981   6.141   2.577  0.2671 -0.3673  0.0191
  100MOL    C6537883   1.832   6.416   2.833 -0.2614 -0.0935  0.5728
  100MOL    H6637884   1.675   6.295   2.899 -0.3487 -0.8324 -1.0416
  100MOL    H6737885   1.518   6.343   2.735 -0.4341  0.4582  2.1609
  100MOL    H6837886   1.598   6.488   2.671  0.2059 -0.6102 -1.5040
  100MOL    H6937887   1.685   6.209   2.633 -1.4292  0.6559 -0.0210
  100MOL    H7037888   1.699   6.355   2.534 -1.0730  1.4876  0.6688
  100MOL    H7137889   1.924   6.406   2.645  0.2466 -0.0544 -0.2787
  100MOL    H7237890   1.867   6.124   2.753 -0.2030  0.7460  0.6164
  100MOL    H7337891   2.017   6.203   2.785  0.2404 -1.4654 -1.0640
  100MOL    H7437892   1.896   6.091   2.530  0.2215 -0.7264  0.4786
  100MOL    H7537893   2.012   6.226   2.517  0.1040  0.8762  1.6624
  100MOL    H7637894   1.888   6.378   2.918 -1.3879  1.8125  2.2025
  100MOL    H7737895   1.846   6.522   2.810  0.3682 -0.8192 -2.6696
  100MOL    C7837896   2.084   6.028   2.588  0.4626  0.5035  0.0087
  100MOL    C7937897   2.023   5.921   2.685  0.1960  0.2541  0.2022
  100MOL    C8037898   2.019   5.783   2.606  0.4236  0.2545  0.4208
  100MOL    C8137899   2.111   5.801   2.483 -0.0756 -0.0598 -0.2133
  100MOL    C8237900   2.072   5.718   2.360 -0.0202  0.4457 -0.3414
  100MOL    C8337901   2.060   5.560   2.389  0.2156  0.2667  0.2382
  100MOL    C8437902   2.110   5.955   2.453 -0.4056 -0.0271 -0.3805
  100MOL    H8537903   2.178   6.068   2.627  1.0898  0.5590 -1.5275
  100MOL    H8637904   2.090   5.906   2.770 -0.3349 -2.4451  0.1943
  100MOL    H8737905   1.920   5.940   2.713  0.5470  2.0521  0.3265
  100MOL    H8837906   2.056   5.700   2.667  0.5229  0.9454  1.3194
  100MOL    H8937907   1.919   5.749   2.581 -0.2824  2.1746  0.5252
  100MOL    H9037908   2.211   5.767   2.511  1.0732  0.5906 -3.3718
  100MOL    H9137909   2.131   5.731   2.269 -0.7751  0.6525 -0.8016
  100MOL    H9237910   1.971   5.744   2.329 -0.5066 -0.2699  0.5975
  100MOL    H9337911   1.957   5.536   2.362 -0.0064  0.2916  1.0341
  100MOL    H9437912   2.067   5.530   2.494 -0.5295  0.1949  0.2670
  100MOL    H9537913   2.028   5.970   2.384 -1.1638 -2.9023 -0.1548
  100MOL    H9637914   2.200   5.991   2.403  0.0925 -1.7273 -0.7313
  100MOL    C9737915   2.146   5.467   2.300  0.3158 -0.0336  0.5330
  100MOL    C9837916   2.133   5.319   2.324 -0.2177  0.5644 -0.3491
  100MOL    C9937917   2.245   5.286   2.414 -0.5912 -0.2174  0.0060
  100MOL   C10037918   2.360   5.381   2.381 -0.6878 -0.4984 -0.1548
  100MOL   C10137919   2.455   5.414   2.500  0.2671 -0.2501  0.4156
  100MOL   C10237920   2.519   5.287   2.566  0.3066 -0.2073  0.2385
  100MOL   C10337921   2.294   5.500   2.310 -0.2037 -0.9994  0.7589
  100MOL   H10437922   2.119   5.484   2.195 -1.7275  0.2346  1.0920
  100MOL   H10537923   2.038   5.284   2.363 -0.1797  0.2811 -0.5052
  100MOL   H10637924   2.143   5.263   2.231 -1.6064 -1.1707  0.5089
  100MOL   H10737925   2.200   5.308   2.511 -0.7646  0.4263 -0.2173
  100MOL   H10837926   2.279   5.183   2.411  1.5059  0.3980  1.4879
  100MOL   H10937927   2.416   5.325   2.306  1.7404  1.2562  0.3135
  100MOL   H11037928   2.538   5.482   2.477  0.3539 -0.9009 -1.2990
  100MOL   H11137929   2.392   5.463   2.575 -0.5134  0.2250 -0.5410
  100MOL   H11237930   2.442   5.222   2.607 -0.0664 -1.3851 -2.2673
  100MOL   H11337931   2.577   5.242   2.485 -2.0883  0.1516 -1.7523
  100MOL   H11437932   2.308   5.597   2.359 -1.6367  0.5567 -1.7843
  100MOL   H11537933   2.351   5.521   2.219 -0.0967  1.2364  1.3114
  100MOL   C11637934   2.618   5.317   2.678 -0.6989  0.9989 -0.7658
  100MOL   C11737935   2.548   5.369   2.807 -0.2883  0.2819  0.1317
  100MOL   C11837936   2.641   5.342   2.920 -0.5612 -0.1088  0.5709
  100MOL   C11937937   2.752   5.249   2.869  0.0080 -0.1144 -0.1740
  100MOL   C12037938   2.777   5.118   2.953 -0.0180  0.5513  0.1148
  100MOL   C12137939   2.859   5.010   2.874 -0.2347 -0.0335  0.2170
  100MOL   C12237940   2.702   5.203   2.733 -0.0847 -0.5391  0.1889
  100MOL   H12337941   2.686   5.394   2.642  0.8258  0.0876  0.1000
  100MOL   H12437942   2.458   5.314   2.833 -0.9428  1.1953 -0.1363
  100MOL   H12537943   2.519   5.475   2.804  0.3158  0.4568  0.6063
  100MOL   H12637944   2.590   5.302   3.007 -1.4286 -3.9833 -1.6162
  100MOL   H12737945   2.687   5.432   2.961  2.7489 -1.2554 -0.4504
  100MOL   H12837946   2.850   5.286   2.838  0.2465 -1.5907 -1.2640
  100MOL   H12937947   2.679   5.080   2.980  0.4199 -0.2771  0.5495
  100MOL   H13037948   2.821   5.157   3.045 -0.4722 -1.8496  1.3803
  100MOL   H13137949   2.958   5.048   2.849 -0.9020  0.1476 -2.2669
  100MOL   H13237950   2.799   4.982   2.788 -1.8509  2.4089  0.5249
  100MOL   H13337951   2.790   5.178   2.674  0.2228  1.0671 -0.0665
  100MOL   H13437952   2.632   5.120   2.743 -2.2888  1.2070 -0.1525
  100MOL   C13537953   2.883   4.882   2.954 -0.8387  0.2293  0.3816
  100MOL   C13637954   2.752   4.811   2.974  0.8856 -0.8186  0.5085
  100MOL   C13737955   2.798   4.664   2.995 -0.7394  0.2116 -1.3316
  100MOL   C13837956   2.918   4.645   2.898 -0.3040  0.2850  0.5670
  100MOL   C13937957   3.006   4.526   2.932  1.0367 -0.0978  0.9890
  100MOL   C14037958   2.950   4.382   2.944 -0.3299  0.3009  0.1109
  100MOL   C14137959   2.984   4.778   2.893 -0.3809  0.7961 -0.4932
  100MOL   H14237960   2.916   4.901   3.057  0.2419  0.0311  0.0742
  100MOL   H14337961   2.709   4.857   3.063  1.2611  0.0591  0.2433
  100MOL   H14437962   2.687   4.826   2.887  0.9824  1.9494  0.8696
  100MOL   H14537963   2.844   4.649   3.092 -0.5205  0.2849 -1.4224
  100MOL   H14637964   2.719   4.592   2.974 -0.6232  0.1512 -1.5650
  100MOL   H14737965   2.879   4.623   2.798 -0.7692 -1.1094  1.0387
  100MOL   H14837966   3.052   4.550   3.027  1.1835  1.8153  0.4435
  100MOL   H14937967   3.089   4.531   2.861 -1.0690  1.1752 -1.4831
  100MOL   H15037968   3.042   4.328   2.970 -2.2759 -1.2068  4.3189
  100MOL   H15137969   2.879   4.384   3.026  0.4618 -1.7470  0.8926
  100MOL   H15237970   2.997   4.794   2.786 -0.2949 -2.3505 -1.0146
  100MOL   H15337971   3.077   4.777   2.949 -0.6591  0.7993 -0.0205
  100MOL   C15437972   2.886   4.326   2.821 -0.8049 -0.0058  0.6147
  100MOL   C15537973   2.828   4.182   2.828 -0.2138 -0.1087 -0.3294
  100MOL   C15637974   2.837   4.132   2.693  0.2955 -0.3398  0.2767
  100MOL   C15737975   2.897   4.236   2.604 -0.4581 -0.1758  0.2837
  100MOL   C15837976   2.974   4.185   2.478 -0.5334  0.4501  0.4365
  100MOL   C15937977   2.997   4.293   2.366 -0.0052 -0.0254 -0.1405
  100MOL   C16037978   2.974   4.324   2.695 -0.1890 -0.3419  0.3341
  100MOL   H16137979   2.799   4.387   2.795 -0.8502 -0.2902  0.0795
  100MOL   H16237980   2.882   4.117   2.897 -0.5091  0.0902  0.0932
  100MOL   H16337981   2.727   4.188   2.869 -0.0887  0.8867 -0.1680
  100MOL   H16437982   2.903   4.045   2.685  0.7427 -0.2025  2.3084
  100MOL   H16537983   2.745   4.084   2.659  0.3611 -1.1541  1.2224
  100MOL   H16637984   2.810   4.282   2.559 -0.2629 -2.1116 -2.1984
  100MOL   H16737985   2.907   4.108   2.440 -0.5852  0.5485  0.3289
  100MOL   H16837986   3.065   4.134   2.510 -0.6744  1.7085  2.9373
  100MOL   H16937987   2.897   4.303   2.325  0.3315 -0.0956 -0.9859
  100MOL   H17037988   3.022   4.387   2.414  0.2710 -0.2136  0.0897
  100MOL   H17137989   2.991   4.425   2.657  1.2715 -1.0849 -1.0603
  100MOL   H17237990   3.068   4.278   2.725  0.5334  1.1424  0.3489
  100MOL   C17337991   3.098   4.246   2.264 -0.2608 -0.1051 -0.4862
  100MOL   C17437992   3.098   4.332   2.130  0.2794  0.6238  0.0162
  100MOL   C17537993   3.224   4.425   2.153  0.7641 -0.0737  0.5867
  100MOL   C17637994   3.326   4.338   2.227 -1.3393 -0.2988  0.5326
  100MOL   C17737995   3.442   4.415   2.292  1.1962  0.0049  0.1379
  100MOL   C17837996   3.538   4.473   2.192  0.3354 -0.1058  0.1176
  100MOL   C17937997   3.241   4.249   2.318  0.2738  0.1456  0.2865
  100MOL   H18037998   3.081   4.143   2.235  1.2446 -0.1668 -1.2514
  100MOL   H18137999   3.001   4.379   2.119 -0.2421 -0.4921 -0.2849
  100MOL   H18238000   3.117   4.275   2.038 -0.6924 -0.5344  0.5217
  100MOL   H18338001   3.267   4.479   2.069  1.4182 -1.7866 -0.2001
  100MOL   H18438002   3.180   4.504   2.215 -1.3741 -0.0544 -0.8834
  100MOL   H18538003   3.365   4.276   2.145  0.3444  0.0388  1.0665
  100MOL   H18638004   3.493   4.345   2.358  0.0225 -1.5244 -0.5390
  100MOL   H18738005   3.403   4.498   2.352  2.9216  0.3723  0.7992
  100MOL   H18838006   3.473   4.545   2.142 -0.4600 -2.1087 -1.7958
  100MOL   H18938007   3.576   4.402   2.118 -2.2765 -2.5809  1.0453
  100MOL   H19038008   3.247   4.278   2.423  1.2557 -0.6167  0.4405
  100MOL   H19138009   3.277   4.147   2.315 -0.4306 -0.1336  1.1185
  100MOL   C19238010   3.671   4.518   2.263  0.6913  0.4781  0.0597
  100MOL   C19338011   3.740   4.636   2.196  0.2848 -0.5864 -0.1080
  100MOL   C19438012   3.886   4.596   2.175 -0.2402 -0.0767 -1.0420
  100MOL   C19538013   3.887   4.441   2.195  0.1261 -0.0321 -0.8504
  100MOL   C19638014   4.014   4.375   2.253  0.6797  0.5117 -0.1968
  100MOL   C19738015   4.022   4.225   2.238 -0.1086  0.1132 -0.1285
  100MOL   C19838016   3.777   4.408   2.287 -0.4538 -0.0966  0.8468
  100MOL   H19938017   3.641   4.548   2.364 -0.6486  0.5482 -0.3557
  100MOL   H20038018   3.701   4.662   2.098 -0.7290  0.2855  0.5200
  100MOL   H20138019   3.742   4.731   2.249  0.5719 -0.0428 -1.0837
  100MOL   H20238020   3.940   4.639   2.260  1.7149 -1.5395 -1.5118
  100MOL   H20338021   3.931   4.623   2.080 -0.5355  2.5354 -0.4936
  100MOL   H20438022   3.885   4.407   2.091 -2.2671  0.5758 -1.0137
  100MOL   H20538023   4.031   4.411   2.355 -1.3406  1.6540 -0.2219
  100MOL   H20638024   4.101   4.418   2.203  0.3134  2.2891  0.6389
  100MOL   H20738025   4.010   4.210   2.131 -2.3072  1.7598 -0.1754
  100MOL   H20838026   3.938   4.172   2.284  0.1732 -0.5073 -0.3405
  100MOL   H20938027   3.802   4.395   2.393 -1.1381  1.5542  1.2122
  100MOL   H21038028   3.736   4.310   2.264 -3.0610  1.4206 -1.0810
  100MOL   C21138029   4.148   4.155   2.295 -0.3602  0.6920  0.5120
  100MOL   C21238030   4.156   4.014   2.243 -0.1397  0.7012  0.2855
  100MOL   C21338031   4.211   3.917   2.351 -0.5783  0.3402  0.0961
  100MOL   C21438032   4.230   4.004   2.466  0.5475  0.2922 -0.2701
  100MOL   C21538033   4.224   3.946   2.608 -0.0753 -0.1030  0.7149
  100MOL   C21638034   4.336   3.845   2.639  0.3483 -0.1263  0.6456
  100MOL   C21738035   4.138   4.125   2.450 -0.0220 -0.5397  0.1150
  100MOL   H21838036   4.240   4.210   2.276 -1.5417  2.5414 -0.0691
  100MOL   H21938037   4.056   3.976   2.218  0.9782 -1.0418 -1.7139
  100MOL   H22038038   4.220   4.007   2.156  1.7769  0.4991  1.6884
  100MOL   H22138039   4.151   3.829   2.372 -1.3755  1.0813  0.9273
  100MOL   H22238040   4.302   3.872   2.310 -1.0717 -0.6134  0.0305
  100MOL   H22338041   4.328   4.049   2.453 -0.6903  3.8808  2.1365
  100MOL   H22438042   4.132   3.918   2.659 -0.8292 -1.3579 -1.2646
  100MOL   H22538043   4.253   4.032   2.668  1.0994 -1.6288  2.3783
  100MOL   H22638044   4.415   3.853   2.565  0.1576 -2.4168  0.1617
  100MOL   H22738045   4.372   3.859   2.741  0.4978 -0.9013  0.7059
  100MOL   H22838046   4.164   4.211   2.512  1.5075 -1.2094  0.4090
  100MOL   H22938047   4.034   4.100   2.472 -1.0644  1.6421 -2.0308
  100MOL   C23038048   4.304   3.695   2.620  0.2442  0.3019 -0.0568
  100MOL   C23138049   4.162   3.665   2.665 -0.3646 -0.4549  0.4137
  100MOL   C23238050   4.170   3.515   2.684  0.1111 -0.0870 -0.4105
  100MOL   C23338051   4.304   3.478   2.729 -0.2224 -0.7424  0.0002
  100MOL   C23438052   4.350   3.330   2.694 -0.5996  0.0709 -0.1713
  100MOL   C23538053   4.473   3.289   2.771  0.6383  0.0415 -0.5719
  100MOL   C23638054   4.399   3.601   2.697  0.7262 -0.1640  0.8873
  100MOL   H23738055   4.318   3.669   2.515  0.5010  1.1972 -0.2516
  100MOL   H23838056   4.130   3.718   2.754 -1.5237  0.9000 -0.8021
  100MOL   H23938057   4.087   3.689   2.590 -0.0436  0.0133  0.2450
  100MOL   H24038058   4.154   3.466   2.588  0.6656 -0.4176 -0.3370
  100MOL   H24138059   4.100   3.475   2.757 -0.1454  1.8145  0.4108
  100MOL   H24238060   4.295   3.481   2.837 -3.0739 -1.1508 -0.1829
  100MOL   H24338061   4.371   3.327   2.587 -0.7500 -2.7695 -0.1410
  100MOL   H24438062   4.273   3.257   2.715 -1.6932  1.2473 -0.0074
  100MOL   H24538063   4.538   3.377   2.764 -0.5461  1.0813  1.1746
  100MOL   H24638064   4.449   3.276   2.876 -2.3433  1.8460 -0.9658
  100MOL   H24738065   4.483   3.564   2.638 -0.6117 -1.0796 -0.4923
  100MOL   H24838066   4.432   3.646   2.790 -0.5915 -0.5752  1.5632
  100MOL   C24938067   4.546   3.168   2.717 -0.2812 -0.5617 -0.2333
  100MOL   C25038068   4.577   3.174   2.568  0.4706 -0.6754 -0.2787
  100MOL   C25138069   4.686   3.081   2.548 -0.6563  0.3762 -0.1699
  100MOL   C25238070   4.759   3.066   2.681 -0.1285 -0.3930  0.3720
  100MOL   C25338071   4.787   2.926   2.723 -0.5400  0.2022  0.1424
  100MOL   C25438072   4.881   2.849   2.629  0.3722  0.2581  0.2755
  100MOL   C25538073   4.686   3.155   2.778 -0.0189 -0.3286 -0.9067
  100MOL   H25638074   4.501   3.072   2.741 -0.9457 -0.2910 -0.3893
  100MOL   H25738075   4.488   3.159   2.507 -0.3396 -0.1391  0.7361
  100MOL   H25838076   4.604   3.276   2.541  0.6520 -0.1961  1.6253
  100MOL   H25938077   4.759   3.117   2.474  0.5304 -1.8549 -0.1246
  100MOL   H26038078   4.662   2.979   2.520  2.6007 -0.9834  1.7045
  100MOL   H26138079   4.856   3.112   2.657 -1.3690  1.4253 -1.3090
  100MOL   H26238080   4.689   2.881   2.735 -0.8079  0.3593 -1.4252
  100MOL   H26338081   4.827   2.919   2.824 -1.5437  1.8468  0.6794
  100MOL   H26438082   4.982   2.890   2.633  0.4773  0.0098  0.1885
  100MOL   H26538083   4.843   2.842   2.527 -1.0648 -0.5167  0.8536
  100MOL   H26638084   4.740   3.250   2.781 -0.3363 -0.2109  3.0708
  100MOL   H26738085   4.685   3.126   2.883  0.1111  3.2459  0.1518
  100MOL   C26838086   4.896   2.701   2.676  0.7296  0.4598 -0.0198
  100MOL   C26938087   4.978   2.699   2.807 -0.5813 -0.8770  0.6581
  100MOL   C27038088   5.104   2.611   2.786  0.0532 -0.5254  0.2512
  100MOL   C27138089   5.057   2.519   2.676  0.2319 -0.1145 -0.0019
  100MOL   C27238090   5.162   2.436   2.605 -0.1417 -0.1033  0.3183
  100MOL   C27338091   5.254   2.365   2.706 -0.8673  0.4002 -0.4372
  100MOL   C27438092   4.980   2.615   2.579  0.5508 -0.0373 -0.3240
  100MOL   H27538093   4.801   2.648   2.684 -0.5709  3.1575  3.7668
  100MOL   H27638094   4.997   2.797   2.851  0.4953  0.0535 -1.8172
  100MOL   H27738095   4.928   2.640   2.884 -2.1748 -1.5664 -0.8767
  100MOL   H27838096   5.188   2.667   2.746  0.2359 -0.8548  0.1748
  100MOL   H27938097   5.129   2.548   2.871  0.0088  0.7430  1.2223
  100MOL   H28038098   4.992   2.448   2.727  1.6384 -1.6339 -0.2526
  100MOL   H28138099   5.225   2.497   2.539  0.5717 -1.2996 -0.1314
  100MOL   H28238100   5.123   2.364   2.534  0.2626  0.9396 -0.9899
  100MOL   H28338101   5.326   2.438   2.743  0.8630 -0.9984 -0.9732
  100MOL   H28438102   5.200   2.329   2.793 -0.2845 -0.9161 -0.6121
  100MOL   H28538103   5.046   2.681   2.522  3.1656 -0.8064  1.7095
  100MOL   H28638104   4.921   2.558   2.507 -1.5551 -0.8369  1.9521
  100MOL   C28738105   5.346   2.252   2.647  0.6481  0.0680 -0.4758
  100MOL   C28838106   5.430   2.184   2.761  0.0066 -0.1762 -0.0746
  100MOL   C28938107   5.457   2.036   2.717  0.8306 -0.3122  0.1049
  100MOL   C29038108   5.392   2.022   2.577 -0.5285  0.1744  0.0334
  100MOL   C29138109   5.331   1.883   2.558 -0.6111 -0.2589  0.1843
  100MOL   C29238110   5.279   1.848   2.415 -0.1722  0.1240  0.4488
  100MOL   C29338111   5.282   2.134   2.583 -0.7974  0.6113 -0.4023
  100MOL   H29438112   5.420   2.295   2.579  0.4496 -0.5421 -1.0844
  100MOL   H29538113   5.520   2.239   2.791  0.5184 -2.0330  1.9444
  100MOL   H29638114   5.386   2.192   2.860  0.6365 -2.5592  0.4375
  100MOL   H29738115   5.393   1.968   2.773  0.3533 -1.0618 -1.3080
  100MOL   H29838116   5.558   1.995   2.728  1.0840 -0.1927 -1.6051
  100MOL   H29938117   5.473   2.038   2.506 -0.1582  0.5624  0.5384
  100MOL   H30038118   5.249   1.888   2.630  0.1522  1.6157  0.9744
  100MOL   H30138119   5.387   1.795   2.590 -0.7913  0.1377  1.6411
  100MOL   H30238120   5.368   1.798   2.376 -0.2446  1.1010 -0.9859
  100MOL   H30338121   5.267   1.937   2.353 -0.2785  0.3899  0.8485
  100MOL   H30438122   5.199   2.094   2.640 -1.4176  1.2859 -0.8328
  100MOL   H30538123   5.249   2.158   2.482 -0.2859 -1.2980 -1.0484
  100MOL   C30638124   5.163   1.750   2.409  0.7655  0.1886  0.6745
  100MOL   C30738125   5.036   1.820   2.462 -0.5693  0.1034 -0.3459
  100MOL   C30838126   4.913   1.783   2.370  0.2070  0.6618  0.2030
  100MOL   C30938127   4.976   1.674   2.278 -0.7014  0.2898  0.0596
  100MOL   C31038128   4.911   1.669   2.138 -0.3936  0.0439  0.3323
  100MOL   C31138129   4.804   1.552   2.111  0.8753 -0.2117 -0.3701
  100MOL   C31238130   5.120   1.726   2.266 -0.2997 -0.3397  0.1014
  100MOL   H31338131   5.179   1.662   2.471  1.1726 -0.5129 -0.4264
  100MOL   H31438132   5.022   1.788   2.565 -0.1597  0.7363 -0.0906
  100MOL   H31538133   5.052   1.928   2.466 -0.6187  0.1251 -0.6945
  100MOL   H31638134   4.816   1.741   2.397 -0.4052 -0.4397 -3.3806
  100MOL   H31738135   4.895   1.874   2.314  1.8898 -0.7855 -2.8068
  100MOL   H31838136   4.968   1.590   2.347 -0.5216  0.6155  0.4794
  100MOL   H31938137   4.863   1.765   2.119  2.9007  1.0751 -3.4992
  100MOL   H32038138   4.994   1.656   2.069  1.7082 -3.8157  3.3594
  100MOL   H32138139   4.728   1.549   2.189 -2.2420  0.2662 -3.2501
  100MOL   H32238140   4.863   1.460   2.115  0.8217 -0.3915 -2.7713
  100MOL   H32338141   5.132   1.816   2.206  0.7793 -0.1923  0.5346
  100MOL   H32438142   5.168   1.646   2.210 -0.8261 -0.6509  0.0856
  100MOL   C32538143   4.733   1.569   1.972 -0.7576  0.0533  0.4574
  100MOL   C32638144   4.640   1.452   1.942  0.5556 -0.2384 -0.4893
  100MOL   C32738145   4.550   1.499   1.833 -0.8798  0.2999 -0.1969
  100MOL   C32838146   4.528   1.645   1.867  0.5891  0.3283  0.3934
  100MOL   C32938147   4.532   1.733   1.742  0.3844 -0.1099 -0.6042
  100MOL   C33038148   4.425   1.703   1.641 -0.0555 -0.1521  0.5288
  100MOL   C33138149   4.635   1.686   1.967 -0.1613 -0.1731 -0.5113
  100MOL   H33238150   4.806   1.567   1.891 -1.0060  0.8187  0.2116
  100MOL   H33338151   4.583   1.423   2.030 -0.1166  0.1894 -0.7765
  100MOL   H33438152   4.698   1.364   1.915  1.2446 -0.1646  0.7567
  100MOL   H33538153   4.597   1.475   1.738 -0.5688 -1.8991  0.4773
  100MOL   H33638154   4.471   1.424   1.838 -2.8995  2.2721 -1.5693
  100MOL   H33738155   4.427   1.661   1.905 -0.1086 -1.2814 -0.7248
  100MOL   H33838156   4.527   1.839   1.765  1.0371  0.1592 -1.6652
  100MOL   H33938157   4.633   1.728   1.703  0.4707 -0.1714 -0.3739
  100MOL   H34038158   4.439   1.601   1.603  2.9095  0.7308 -0.8502
  100MOL   H34138159   4.325   1.699   1.686  0.6317  3.2362  2.4782
  100MOL   H34238160   4.587   1.688   2.065 -2.3374 -1.0048 -1.5002
  100MOL   H34338161   4.670   1.786   1.944 -0.2298 -0.4187 -1.6933
  100MOL   C34438162   4.424   1.814   1.525  0.2333  0.6159  0.0622
  100MOL   C34538163   4.328   1.928   1.529  0.8851 -0.0790 -0.3704
  100MOL   C34638164   4.346   1.991   1.393 -0.5231 -0.0388 -0.6920
  100MOL   C34738165   4.379   1.874   1.295 -0.2383  0.1595  0.2087
  100MOL   C34838166   4.471   1.923   1.187 -0.1627 -0.3786  0.2468
  100MOL   C34938167   4.472   1.816   1.073 -0.0243  0.3719  0.1636
  100MOL   C35038168   4.419   1.753   1.380 -0.8972 -0.7372 -0.4948
  100MOL   H35138169   4.526   1.852   1.534  0.1197  0.7659  0.8214
  100MOL   H35238170   4.364   1.985   1.614  2.1307 -0.9522 -0.3002
  100MOL   H35338171   4.230   1.887   1.554  0.9844 -0.6034 -0.8396
  100MOL   H35438172   4.248   2.032   1.369 -0.3895  0.4091 -0.4926
  100MOL   H35538173   4.412   2.077   1.382 -0.9031  0.2649 -0.6213
  100MOL   H35638174   4.286   1.844   1.247  0.2300  0.8705 -1.2025
  100MOL   H35738175   4.440   2.022   1.151  0.1912 -0.1946  0.4471
  100MOL   H35838176   4.574   1.932   1.222 -0.2203  1.9497 -0.0568
  100MOL   H35938177   4.375   1.802   1.026 -0.0099  1.0122 -0.0638
  100MOL   H36038178   4.501   1.719   1.115  1.6977 -0.8690 -3.6649
  100MOL   H36138179   4.358   1.663   1.370  0.0312 -1.4168 -0.1265
  100MOL   H36238180   4.520   1.721   1.352 -0.6590 -3.1591  2.9315
  100MOL   C36338181   4.577   1.842   0.965 -0.5312  0.4670  0.3297
  100MOL   C36438182   4.537   1.958   0.867  0.0134  0.7325  0.5369
  100MOL   C36538183   4.518   1.887   0.738 -0.0211 -1.0780 -0.3981
  100MOL   C36638184   4.616   1.774   0.742  0.2222  0.7533  0.0627
  100MOL   C36738185   4.603   1.671   0.633  0.0096 -0.3241 -0.3299
  100MOL   C36838186   4.738   1.594   0.599 -0.0753 -0.0149  0.1570
  100MOL   C36938187   4.605   1.719   0.878  0.2230 -0.9170 -0.5543
  100MOL   H37038188   4.678   1.851   1.005 -0.7520  1.8448  0.5928
  100MOL   H37138189   4.446   1.998   0.910  0.3033 -0.8840  2.7133
  100MOL   H37238190   4.614   2.034   0.859  0.8343 -0.2816 -1.6304
  100MOL   H37338191   4.414   1.858   0.720 -0.7799 -0.0691  2.0459
  100MOL   H37438192   4.550   1.959   0.663  1.0361 -0.2825  0.7844
  100MOL   H37538193   4.719   1.809   0.740  0.5960 -0.3769 -0.5015
  100MOL   H37638194   4.515   1.605   0.631 -0.6129  0.5107 -0.9516
  100MOL   H37738195   4.583   1.730   0.544 -1.0093 -0.6170 -0.3043
  100MOL   H37838196   4.753   1.512   0.670 -0.3864 -0.5225 -0.3579
  100MOL   H37938197   4.831   1.650   0.611  1.5777 -2.4429 -0.9443
  100MOL   H38038198   4.515   1.656   0.876 -0.3851 -0.0315 -2.1370
  100MOL   H38138199   4.683   1.660   0.926  0.7727  1.8250  1.9999
  100MOL   H38238200   4.748   1.556   0.497 -2.2603  0.7800 -0.3682
  101MOL     C138201   2.417   4.855   1.175 -0.1372 -0.6086  0.1498
  101MOL     C238202   2.484   4.734   1.228 -0.0266  0.0455 -0.1495
  101MOL     C338203   2.617   4.789   1.276  0.9981 -0.0808 -0.2790
  101MOL     C438204   2.628   4.935   1.226  0.0611  0.1629 -0.7682
  101MOL     C538205   2.774   4.964   1.191 -0.1714 -0.1824  0.7219
  101MOL     C638206   2.790   5.095   1.106  0.0792  0.0472  0.2021
  101MOL     C738207   2.530   4.934   1.112 -0.3290  0.4033  0.2227
  101MOL     H838208   2.339   4.841   1.100 -1.0332  0.4380  0.8760
  101MOL     H938209   2.507   4.669   1.144 -1.6153  1.4188 -1.6920
  101MOL    H1038210   2.423   4.689   1.306 -0.6350 -0.0432 -0.6717
  101MOL    H1138211   2.627   4.800   1.384  0.5448  2.1770 -0.4512
  101MOL    H1238212   2.699   4.728   1.237  3.0572  0.3524  3.1040
  101MOL    H1338213   2.588   4.999   1.305  1.2667 -0.0952  0.0709
  101MOL    H1438214   2.838   4.969   1.279 -1.4055 -0.9338  1.6869
  101MOL    H1538215   2.826   4.883   1.140 -2.4679 -0.3068 -1.5444
  101MOL    H1638216   2.715   5.102   1.027  0.3809  0.1169 -0.0771
  101MOL    H1738217   2.782   5.189   1.161 -0.6225  0.9857 -1.4677
  101MOL    H1838218   2.493   5.030   1.076 -2.3951 -0.5793 -0.3854
  101MOL    H1938219   2.578   4.878   1.032 -0.6447 -0.8618  0.9063
  101MOL    H2038220   2.362   4.910   1.251 -0.2023 -2.7153  1.6560
  101MOL    C2138221   2.933   5.092   1.042  0.0281 -0.7629  0.1791
  101MOL    C2238222   2.966   5.225   0.973  0.2469 -0.1169  0.6348
  101MOL    C2338223   3.115   5.252   1.008  0.3920  0.1424  0.2381
  101MOL    C2438224   3.173   5.129   1.074 -0.0052 -0.1344  0.9096
  101MOL    C2538225   3.305   5.163   1.151  0.0603 -0.1205  0.2447
  101MOL    C2638226   3.350   5.039   1.239 -0.1664  0.3296 -0.2695
  101MOL    C2738227   3.050   5.073   1.148 -0.3226  0.6549 -0.2933
  101MOL    H2838228   2.942   5.014   0.967 -0.5135 -1.5581  0.9301
  101MOL    H2938229   2.957   5.215   0.865 -1.5327 -2.0900  0.9421
  101MOL    H3038230   2.892   5.301   0.998  2.2672  1.7460  1.1035
  101MOL    H3138231   3.175   5.257   0.917 -1.9365  1.1202 -1.2895
  101MOL    H3238232   3.133   5.347   1.058  4.7930 -0.3651 -0.1972
  101MOL    H3338233   3.191   5.066   0.987  1.0084  1.4690 -0.0752
  101MOL    H3438234   3.291   5.252   1.212 -0.9664 -0.1888  0.1259
  101MOL    H3538235   3.386   5.183   1.081  1.9776 -3.7726  1.2521
  101MOL    H3638236   3.349   4.948   1.179  0.6139 -0.6374  1.1756
  101MOL    H3738237   3.284   5.015   1.322  2.9377 -0.8028  1.9550
  101MOL    H3838238   3.075   4.969   1.169 -0.7691  0.9774  1.9996
  101MOL    H3938239   3.020   5.119   1.243  0.4681  0.1314  0.2121
  101MOL    C4038240   3.491   5.060   1.293  0.4643 -1.1485  0.6773
  101MOL    C4138241   3.496   5.127   1.435  0.2357 -0.2949  0.9390
  101MOL    C4238242   3.629   5.093   1.500 -0.8786  0.0603  0.6683
  101MOL    C4338243   3.681   4.973   1.415 -0.0835  0.6377  0.2815
  101MOL    C4438244   3.819   5.003   1.350  0.0798 -0.2007 -0.0611
  101MOL    C4538245   3.942   5.007   1.443 -0.2230  0.4696 -0.1103
  101MOL    C4638246   3.573   4.939   1.316 -0.6700 -0.1228 -0.6291
  101MOL    H4738247   3.559   5.122   1.234 -0.3689 -1.3039 -0.4587
  101MOL    H4838248   3.420   5.076   1.494 -0.4151 -0.8480 -0.3484
  101MOL    H4938249   3.467   5.231   1.451 -2.2512 -0.6799 -0.7163
  101MOL    H5038250   3.699   5.177   1.495 -0.8506 -0.1226 -4.5958
  101MOL    H5138251   3.617   5.071   1.606 -0.3794 -1.1923  0.4723
  101MOL    H5238252   3.694   4.886   1.480 -0.0144  1.1619  0.9650
  101MOL    H5338253   3.832   4.920   1.282 -1.6254  0.3845 -1.1260
  101MOL    H5438254   3.812   5.097   1.296 -2.5601  1.3353  2.7656
  101MOL    H5538255   3.950   4.913   1.497  1.5516  1.4101  1.3281
  101MOL    H5638256   3.912   5.084   1.514 -2.1657 -0.2474 -0.1404
  101MOL    H5738257   3.609   4.882   1.230  0.9130 -0.6798  0.3753
  101MOL    H5838258   3.508   4.862   1.357 -0.1265  0.2101  0.8543
  101MOL    C5938259   4.080   5.033   1.369  1.5640 -0.0043  0.4695
  101MOL    C6038260   4.189   5.065   1.478  0.1111  0.0515 -0.4148
  101MOL    C6138261   4.258   4.934   1.534  0.1719  0.9740 -0.2696
  101MOL    C6238262   4.215   4.822   1.432  0.5003  0.1360 -0.4936
  101MOL    C6338263   4.327   4.728   1.386  0.3963  0.2856 -0.0155
  101MOL    C6438264   4.362   4.626   1.497 -0.0421 -0.5397 -0.7364
  101MOL    C6538265   4.153   4.903   1.311  0.5263  0.0654  0.2244
  101MOL    H6638266   4.062   5.122   1.308 -1.5139 -0.3337  0.8408
  101MOL    H6738267   4.261   5.122   1.420  1.8421 -3.4145 -1.8344
  101MOL    H6838268   4.150   5.129   1.556  1.7933 -1.3676  1.6355
  101MOL    H6938269   4.367   4.925   1.531  0.1070  0.2191 -0.4694
  101MOL    H7038270   4.220   4.903   1.631  1.2648 -0.6917 -0.3518
  101MOL    H7138271   4.130   4.766   1.471  0.7163  0.4126  0.3977
  101MOL    H7238272   4.419   4.782   1.361  0.4574  0.5561  0.7578
  101MOL    H7338273   4.290   4.678   1.297 -1.5144 -0.4608  1.1604
  101MOL    H7438274   4.413   4.665   1.586  0.0207 -1.4346 -0.3766
  101MOL    H7538275   4.271   4.578   1.533 -0.8209  0.3198 -1.5106
  101MOL    H7638276   4.237   4.933   1.248  0.9216  1.7816  1.5298
  101MOL    H7738277   4.084   4.843   1.252  0.3120 -1.0253  1.5887
  101MOL    C7838278   4.441   4.515   1.427  0.3269 -0.0020 -0.2312
  101MOL    C7938279   4.502   4.424   1.532 -1.0706  0.2782 -0.3031
  101MOL    C8038280   4.505   4.282   1.473 -1.2437 -0.3671  0.0206
  101MOL    C8138281   4.448   4.306   1.331  0.4236  0.0228 -0.4846
  101MOL    C8238282   4.373   4.173   1.291 -0.3598 -0.1870  0.6331
  101MOL    C8338283   4.314   4.162   1.141  0.2976 -0.3096 -0.2002
  101MOL    C8438284   4.361   4.424   1.333  0.1663 -0.3724 -0.1792
  101MOL    H8538285   4.530   4.558   1.380 -1.1272  0.8916 -2.2121
  101MOL    H8638286   4.600   4.460   1.563 -1.1720  0.0843  0.2645
  101MOL    H8738287   4.440   4.427   1.622 -1.2028  0.1872 -0.3909
  101MOL    H8838288   4.600   4.229   1.468  0.8180  3.0439  0.7575
  101MOL    H8938289   4.445   4.203   1.517 -1.9843 -0.7425 -1.6338
  101MOL    H9038290   4.534   4.321   1.267 -0.4843 -3.6081 -2.6788
  101MOL    H9138291   4.281   4.168   1.350 -0.4469  1.5856  0.6744
  101MOL    H9238292   4.432   4.087   1.319  0.0897  0.3171  1.2367
  101MOL    H9338293   4.403   4.176   1.080  0.4476  2.1294  0.5188
  101MOL    H9438294   4.250   4.249   1.126 -2.7535 -2.5566 -0.6170
  101MOL    H9538295   4.270   4.392   1.384 -0.0085 -0.6973 -0.6978
  101MOL    H9638296   4.322   4.465   1.240 -0.4920  2.1709  1.1496
  101MOL    C9738297   4.238   4.031   1.123  1.0919 -0.7245  0.0317
  101MOL    C9838298   4.310   3.932   1.032 -0.1346 -0.0752 -0.0893
  101MOL    C9938299   4.266   3.985   0.898  0.7827  0.3092  0.8025
  101MOL   C10038300   4.115   4.022   0.909  0.7939  0.3794 -0.4011
  101MOL   C10138301   4.086   4.141   0.826  0.4029 -0.0653  0.6827
  101MOL   C10238302   4.097   4.102   0.681  0.0138  0.1510  0.4808
  101MOL   C10338303   4.093   4.050   1.058  0.3152 -0.7935  0.4044
  101MOL   H10438304   4.205   3.990   1.218  0.4680  0.9241  0.5379
  101MOL   H10538305   4.417   3.942   1.047 -0.4332  0.3640  1.8543
  101MOL   H10638306   4.262   3.834   1.032  1.2045 -0.7394 -1.0131
  101MOL   H10738307   4.334   4.063   0.865 -1.0311  0.6240 -2.3646
  101MOL   H10838308   4.278   3.916   0.814 -4.5959  2.2222 -1.7810
  101MOL   H10938309   4.059   3.935   0.876 -1.2583  1.2673  0.6401
  101MOL   H11038310   3.993   4.193   0.850  0.6542 -0.8322  3.4250
  101MOL   H11138311   4.166   4.215   0.840  0.4279  0.6672 -2.9382
  101MOL   H11238312   4.188   4.050   0.654 -0.1287  1.0260 -1.8711
  101MOL   H11338313   4.016   4.031   0.663  0.2714 -0.3976  1.4521
  101MOL   H11438314   4.051   4.149   1.077  0.7297 -0.8694  1.7212
  101MOL   H11538315   4.030   3.976   1.107 -1.1591 -0.6735 -1.2463
  101MOL   C11638316   4.062   4.219   0.592 -0.4075 -0.6201  0.4373
  101MOL   C11738317   4.181   4.315   0.558  0.6066  0.4875  0.0703
  101MOL   C11838318   4.138   4.368   0.419 -0.3956 -0.5324 -0.1922
  101MOL   C11938319   4.005   4.313   0.387 -0.3154  0.1443 -0.4729
  101MOL   C12038320   3.984   4.290   0.234 -0.0689 -0.5374  0.1129
  101MOL   C12138321   3.839   4.277   0.196  0.0901  0.9000  0.5883
  101MOL   C12238322   3.999   4.184   0.457 -0.4281 -0.2115  0.0231
  101MOL   H12338323   3.988   4.287   0.635 -1.0631 -0.1013 -1.4647
  101MOL   H12438324   4.277   4.267   0.539  0.8916  2.0848 -2.7348
  101MOL   H12538325   4.198   4.387   0.638  0.1006  1.0660 -0.3371
  101MOL   H12638326   4.213   4.337   0.347 -0.1878  0.3517 -0.3598
  101MOL   H12738327   4.152   4.476   0.417 -0.4635 -0.5309 -0.5482
  101MOL   H12838328   3.924   4.379   0.416 -0.2837 -1.0882  2.5943
  101MOL   H12938329   4.039   4.201   0.202  0.9484 -0.5755  1.8829
  101MOL   H13038330   4.019   4.386   0.196  2.3158 -0.9571  1.1629
  101MOL   H13138331   3.783   4.361   0.238 -1.9876  0.4253 -1.1550
  101MOL   H13238332   3.792   4.193   0.246  0.4742 -0.6128 -1.5290
  101MOL   H13338333   3.898   4.143   0.458 -1.3335  1.9493 -0.0572
  101MOL   H13438334   4.066   4.120   0.400 -0.8174 -1.3083  0.7915
  101MOL   C13538335   3.814   4.270   0.042  0.5658  0.3523  0.2241
  101MOL   C13638336   3.668   4.297   7.646 -0.0868  0.0551  0.4825
  101MOL   C13738337   3.676   4.308   7.494 -0.1538 -0.3251 -0.3839
  101MOL   C13838338   3.818   4.355   7.460 -0.4615  0.0940  0.3002
  101MOL   C13938339   3.874   4.267   7.344  0.8007 -0.1267  0.4641
  101MOL   C14038340   4.021   4.306   7.299 -0.4318  0.3014  0.0334
  101MOL   C14138341   3.900   4.350   7.592  0.8771  0.4943  0.0459
  101MOL   H14238342   3.848   4.172   0.006 -0.5705 -0.1564  0.5017
  101MOL   H14338343   3.598   4.220   0.032  1.5738 -0.6027  2.5805
  101MOL   H14438344   3.624   4.384   0.047 -2.3111  0.0274 -1.4561
  101MOL   H14538345   3.657   4.204   7.466  1.2194 -0.1428 -2.1065
  101MOL   H14638346   3.597   4.372   7.456  0.4720 -0.5148 -2.0666
  101MOL   H14738347   3.816   4.461   7.438 -0.5722  0.1548  0.6096
  101MOL   H14838348   3.808   4.293   7.262 -0.5077  0.7556  1.7540
  101MOL   H14938349   3.879   4.160   7.367 -0.1252 -0.5185 -1.1109
  101MOL   H15038350   4.032   4.414   7.300 -1.3991  0.4073 -0.1628
  101MOL   H15138351   4.094   4.265   7.369  0.2967 -2.7641 -2.3887
  101MOL   H15238352   3.901   4.447   7.641  1.7688 -0.0352  1.0881
  101MOL   H15338353   4.006   4.326   7.589  0.6983 -0.2899 -0.0080
  101MOL   C15438354   4.045   4.260   7.152 -0.0228  0.2216 -0.8088
  101MOL   C15538355   4.020   4.110   7.121  0.0436  0.2442 -0.7374
  101MOL   C15638356   4.109   4.080   6.996  0.0837  1.0788 -0.2625
  101MOL   C15738357   4.180   4.210   6.961  0.2337 -0.7544  0.4726
  101MOL   C15838358   4.324   4.171   6.902  0.0868 -0.1732  0.2393
  101MOL   C15938359   4.314   4.076   6.784 -0.7896 -0.2119  0.0496
  101MOL   C16038360   4.186   4.285   7.095 -0.2322  0.4319 -0.4494
  101MOL   H16138361   3.981   4.323   7.091 -0.1910  2.3423  1.4814
  101MOL   H16238362   4.043   4.040   7.202  0.3355  0.8917 -0.2621
  101MOL   H16338363   3.924   4.078   7.080  1.2192 -1.3107 -2.3321
  101MOL   H16438364   4.183   4.002   7.013 -0.8785  0.3537  0.6832
  101MOL   H16538365   4.050   4.047   6.910 -1.4158 -0.4021  1.2776
  101MOL   H16638366   4.121   4.270   6.893  1.6070  0.2686  0.1593
  101MOL   H16738367   4.384   4.123   6.979 -1.3296 -0.3113  1.2788
  101MOL   H16838368   4.370   4.262   6.864 -0.4878 -0.2441 -0.6441
  101MOL   H16938369   4.257   3.986   6.804 -0.3948 -0.6717 -0.8389
  101MOL   H17038370   4.258   4.121   6.702 -0.3467  0.4246  0.0910
  101MOL   H17138371   4.211   4.391   7.086 -1.0111  0.5052 -1.9554
  101MOL   H17238372   4.265   4.233   7.149 -1.5974 -1.2996 -0.0552
  101MOL   C17338373   4.458   4.031   6.752 -0.1720 -0.0600 -0.0108
  101MOL   C17438374   4.497   3.915   6.839  0.7392  0.5489 -0.2861
  101MOL   C17538375   4.527   3.798   6.746 -0.0734 -0.2711 -0.5744
  101MOL   C17638376   4.566   3.871   6.614  0.3137 -0.5173 -0.3159
  101MOL   C17738377   4.561   3.785   6.485 -0.3162 -0.4767  0.0523
  101MOL   C17838378   4.620   3.867   6.363 -0.1549  1.0566  0.5545
  101MOL   C17938379   4.474   3.985   6.605  0.1482 -0.2137  0.3223
  101MOL   H18038380   4.522   4.118   6.769 -2.4131  1.6230  0.0008
  101MOL   H18138381   4.423   3.900   6.918  2.0588  1.4005  1.1555
  101MOL   H18238382   4.590   3.939   6.891 -0.5291  1.7013  1.5187
  101MOL   H18338383   4.596   3.725   6.787  1.0521  1.0819 -0.0091
  101MOL   H18438384   4.427   3.755   6.735 -1.0737  1.8760 -0.2104
  101MOL   H18538385   4.668   3.905   6.629  0.6643 -1.4717 -0.5184
  101MOL   H18638386   4.463   3.742   6.466 -0.5137  0.0359 -0.0850
  101MOL   H18738387   4.634   3.704   6.490  1.3372  1.0349  1.2959
  101MOL   H18838388   4.719   3.909   6.384  0.7234 -1.0521  0.7809
  101MOL   H18938389   4.551   3.949   6.342  0.2228  0.9105 -1.3698
  101MOL   H19038390   4.380   3.953   6.561  1.1268 -1.5247 -0.8545
  101MOL   H19138391   4.503   4.076   6.553 -0.2593  0.7142  1.6650
  101MOL   C19238392   4.613   3.788   6.226  0.2422 -0.1144  0.2246
  101MOL   C19338393   4.590   3.883   6.101 -0.4141  0.0351 -0.5928
  101MOL   C19438394   4.443   3.891   6.078  0.0836  0.4917 -0.2446
  101MOL   C19538395   4.376   3.791   6.169  0.4788 -0.3002 -0.3201
  101MOL   C19638396   4.241   3.729   6.112 -0.3420 -0.2397 -0.2122
  101MOL   C19738397   4.132   3.840   6.109 -0.4174 -0.0557  0.4232
  101MOL   C19838398   4.493   3.694   6.199 -0.2171  0.1409  0.0864
  101MOL   H19938399   4.715   3.751   6.216 -0.2480 -1.3219 -0.3017
  101MOL   H20038400   4.622   3.987   6.113  2.9349 -0.9696 -0.2062
  101MOL   H20138401   4.640   3.836   6.016  0.3118  1.0381 -0.7275
  101MOL   H20238402   4.422   3.862   5.975 -0.7968 -2.0575  0.6084
  101MOL   H20338403   4.399   3.989   6.094  0.5679  0.4413  1.5162
  101MOL   H20438404   4.350   3.843   6.260 -2.2242 -0.0792 -1.1800
  101MOL   H20538405   4.211   3.640   6.167  0.1156 -1.3219 -1.6862
  101MOL   H20638406   4.269   3.694   6.012  0.5225 -4.0270  1.2590
  101MOL   H20738407   4.152   3.914   6.032  1.0568  0.6639  1.4664
  101MOL   H20838408   4.134   3.896   6.203  1.2867 -0.8622  0.8847
  101MOL   H20938409   4.511   3.642   6.105 -4.0410  3.6527 -2.7686
  101MOL   H21038410   4.470   3.630   6.284 -1.5187  0.6767  0.1464
  101MOL   C21138411   3.982   3.787   6.095  0.2930 -0.1951  1.1368
  101MOL   C21238412   3.944   3.728   5.959 -1.0203 -0.0141 -0.5982
  101MOL   C21338413   3.814   3.787   5.924  0.3504 -0.5941 -0.3241
  101MOL   C21438414   3.750   3.842   6.052 -0.7220  0.6725  0.8710
  101MOL   C21538415   3.647   3.946   6.026 -0.7725 -0.2779 -0.0227
  101MOL   C21638416   3.608   4.016   6.153 -0.1556 -0.1442 -0.4500
  101MOL   C21738417   3.864   3.886   6.133 -0.6460 -0.0245  0.5789
  101MOL   H21838418   3.978   3.717   6.178 -1.2858  0.7577  1.8927
  101MOL   H21938419   4.016   3.738   5.877  0.2946 -0.8333  0.4458
  101MOL   H22038420   3.924   3.621   5.965  0.2077 -0.1509  1.4353
  101MOL   H22138421   3.828   3.866   5.850  0.4906  1.2661  1.6277
  101MOL   H22238422   3.758   3.705   5.878 -1.2079 -0.0313  0.5399
  101MOL   H22338423   3.694   3.761   6.099 -0.9558 -0.8423 -1.9107
  101MOL   H22438424   3.569   3.912   5.958 -0.8129  1.2032 -0.7370
  101MOL   H22538425   3.697   4.022   5.966  1.5751 -1.1493  0.7658
  101MOL   H22638426   3.576   3.943   6.228 -0.4917 -1.1421 -1.5504
  101MOL   H22738427   3.692   4.069   6.197  0.9843 -1.2673 -1.2317
  101MOL   H22838428   3.857   3.895   6.241 -2.0718 -0.7743  0.5603
  101MOL   H22938429   3.893   3.985   6.096  1.1620  0.0861  2.2249
  101MOL   C23038430   3.494   4.122   6.132 -0.4160  0.3815 -0.2238
  101MOL   C23138431   3.452   4.212   6.253  0.0635 -0.5885 -0.0741
  101MOL   C23238432   3.314   4.258   6.211  0.7208  0.4888 -0.2670
  101MOL   C23338433   3.252   4.155   6.118  0.7843  0.4842  0.2560
  101MOL   C23438434   3.192   4.222   5.982 -0.4650  0.7687  0.6463
  101MOL   C23538435   3.175   4.125   5.860 -0.1313 -0.0211  0.5452
  101MOL   C23638436   3.365   4.054   6.088 -0.2393 -0.1198  0.0976
  101MOL   H23738437   3.519   4.195   6.055 -2.1086 -1.0130 -2.1315
  101MOL   H23838438   3.423   4.150   6.338 -1.9662  0.6627  0.1965
  101MOL   H23938439   3.512   4.301   6.274  1.5877 -1.7139  0.3893
  101MOL   H24038440   3.320   4.356   6.165 -0.9119  0.9964  0.5653
  101MOL   H24138441   3.250   4.256   6.299 -0.8653 -0.2194 -1.3967
  101MOL   H24238442   3.168   4.099   6.159  1.0731 -0.4075 -0.3385
  101MOL   H24338443   3.252   4.310   5.959 -1.5436  0.6710 -2.7236
  101MOL   H24438444   3.093   4.260   6.009 -0.9618 -0.2567  0.2791
  101MOL   H24538445   3.272   4.105   5.813 -0.4177  3.5857 -1.7042
  101MOL   H24638446   3.125   4.029   5.878 -3.3035  1.5592  0.4190
  101MOL   H24738447   3.366   4.017   5.986  2.2707 -0.6418  0.2702
  101MOL   H24838448   3.355   3.959   6.140 -3.3055 -0.0335 -0.2812
  101MOL   C24938449   3.096   4.186   5.745  0.0555 -0.7733  0.5893
  101MOL   C25038450   3.145   4.327   5.696  0.5999  0.6152  0.1437
  101MOL   C25138451   3.078   4.344   5.556 -0.0245  0.3848  0.1244
  101MOL   C25238452   3.090   4.205   5.494 -0.2121  0.4106 -0.1386
  101MOL   C25338453   2.977   4.166   5.395  0.4948 -0.1200  0.8085
  101MOL   C25438454   3.004   4.230   5.263 -0.1069 -0.1791  0.6799
  101MOL   C25538455   3.107   4.105   5.615 -0.0103 -0.1836  0.0204
  101MOL   H25638456   2.990   4.194   5.770  0.0569  1.0317  0.1050
  101MOL   H25738457   3.094   4.399   5.760 -0.2791 -0.6655  0.9074
  101MOL   H25838458   3.253   4.336   5.713  0.7308 -0.0212 -0.3315
  101MOL   H25938459   3.115   4.420   5.487 -0.0900 -2.6536 -3.3853
  101MOL   H26038460   2.977   4.375   5.581  0.5916  1.8541  0.8818
  101MOL   H26138461   3.182   4.204   5.435 -1.1936  0.5822 -1.7061
  101MOL   H26238462   2.883   4.202   5.436  0.8914  0.6070  1.1008
  101MOL   H26338463   2.972   4.059   5.376  1.0786  0.1511 -0.9804
  101MOL   H26438464   3.082   4.171   5.215  1.8332  1.5197  1.6816
  101MOL   H26538465   3.029   4.336   5.271 -0.1862 -0.2481  1.9658
  101MOL   H26638466   3.206   4.064   5.595 -0.1936 -0.1240 -1.0447
  101MOL   H26738467   3.047   4.013   5.613 -1.2805  0.6290  0.5718
  101MOL   C26838468   2.878   4.222   5.167 -0.7399  0.4050 -0.0316
  101MOL   C26938469   2.838   4.081   5.116 -0.2423  0.4844  0.5083
  101MOL   C27038470   2.851   4.082   4.968 -0.0015  0.0284 -0.2678
  101MOL   C27138471   2.819   4.227   4.934 -0.1344  0.3071 -0.4655
  101MOL   C27238472   2.877   4.262   4.797  0.5724  0.1201  0.2065
  101MOL   C27338473   2.802   4.187   4.682 -0.2720 -0.2334 -0.1162
  101MOL   C27438474   2.900   4.304   5.039 -0.2944  0.5338  0.2808
  101MOL   H27538475   2.796   4.267   5.222 -0.3226 -1.2094  1.9550
  101MOL   H27638476   2.905   4.006   5.158 -0.1779 -0.0382 -0.4927
  101MOL   H27738477   2.737   4.055   5.144 -1.1678  0.1562 -2.8953
  101MOL   H27838478   2.956   4.064   4.944 -0.3026 -1.1195 -0.7216
  101MOL   H27938479   2.786   4.009   4.919  0.2960  0.1404 -0.8367
  101MOL   H28038480   2.713   4.255   4.939  0.2310  1.7089 -0.6083
  101MOL   H28138481   2.983   4.238   4.800  0.5131 -0.2246 -0.3164
  101MOL   H28238482   2.861   4.368   4.779  1.3555  0.3252  0.7382
  101MOL   H28338483   2.763   4.095   4.725 -1.2197 -0.2171 -0.9392
  101MOL   H28438484   2.716   4.247   4.652  0.0915 -0.7312 -2.2311
  101MOL   H28538485   3.007   4.294   5.019  0.0306  3.4824  0.3658
  101MOL   H28638486   2.883   4.411   5.046  2.1064  0.9422  0.1539
  101MOL   C28738487   2.892   4.149   4.559  0.1702  2.0054 -0.0337
  101MOL   C28838488   2.814   4.067   4.449  0.7565 -0.1163  0.0868
  101MOL   C28938489   2.883   4.097   4.316 -1.0505 -0.3836 -0.1452
  101MOL   C29038490   2.975   4.217   4.343  0.5315 -0.3457 -0.5588
  101MOL   C29138491   2.977   4.322   4.229  0.1937  0.1834 -0.5637
  101MOL   C29238492   3.018   4.262   4.098 -0.1980  0.0334 -0.1327
  101MOL   C29338493   2.940   4.273   4.482  0.0756  0.1931 -0.2890
  101MOL   H29438494   2.985   4.098   4.585 -0.1594  0.4821 -1.7352
  101MOL   H29538495   2.822   3.961   4.475 -0.9257 -0.7338 -1.6873
  101MOL   H29638496   2.707   4.091   4.449  0.8628  0.3973  2.4185
  101MOL   H29738497   2.809   4.096   4.235  1.1302 -0.3824 -2.1926
  101MOL   H29838498   2.945   4.017   4.276  2.8063  2.0822  0.5967
  101MOL   H29938499   3.076   4.176   4.350 -0.0765 -1.5246  1.8307
  101MOL   H30038500   3.046   4.397   4.268  1.7362 -0.8820 -1.2208
  101MOL   H30138501   2.874   4.358   4.221 -0.6929 -2.0999  0.3272
  101MOL   H30238502   2.951   4.182   4.067  1.1245 -0.1125 -2.7931
  101MOL   H30338503   3.120   4.222   4.102  0.1639  0.9736  0.4339
  101MOL   H30438504   2.859   4.346   4.475 -0.5362 -0.4909 -0.4163
  101MOL   H30538505   3.015   4.327   4.540  1.1084  0.1451 -1.5710
  101MOL   C30638506   3.013   4.373   3.988 -0.4193  0.1783  1.1599
  101MOL   C30738507   3.041   4.320   3.845 -0.2242 -0.4987  0.1420
  101MOL   C30838508   2.950   4.398   3.749 -0.4645 -0.1418 -0.2455
  101MOL   C30938509   2.886   4.506   3.838 -0.3806 -0.1951  0.1532
  101MOL   C31038510   2.752   4.571   3.795 -0.2810  0.2573 -0.6520
  101MOL   C31138511   2.768   4.630   3.662 -0.3544 -0.0447  0.1433
  101MOL   C31238512   2.869   4.440   3.980 -0.0664 -0.4622 -0.9477
  101MOL   H31338513   3.089   4.446   4.015  0.9356 -1.2131  1.1978
  101MOL   H31438514   3.148   4.333   3.834 -0.6380  0.5215 -3.1853
  101MOL   H31538515   3.005   4.218   3.832 -0.6248 -0.2030 -1.2174
  101MOL   H31638516   3.005   4.442   3.667  0.2005 -0.1015  0.2165
  101MOL   H31738517   2.876   4.331   3.705 -1.1397  0.2016  0.3504
  101MOL   H31838518   2.945   4.595   3.858 -0.7322  0.2015 -0.5664
  101MOL   H31938519   2.691   4.480   3.795  1.2934 -0.8412  0.9291
  101MOL   H32038520   2.716   4.655   3.854 -1.2825 -0.5403 -0.1114
  101MOL   H32138521   2.811   4.559   3.592  0.1150  0.9636 -0.6041
  101MOL   H32238522   2.842   4.710   3.670  2.1705 -2.0866 -2.0610
  101MOL   H32338523   2.791   4.365   3.995 -1.6097  1.5461  1.4236
  101MOL   H32438524   2.851   4.514   4.058 -0.1953  1.3017 -2.6203
  101MOL   C32538525   2.644   4.681   3.594 -0.3547  0.3577 -0.3119
  101MOL   C32638526   2.669   4.756   3.462 -0.0293  0.1386  0.4716
  101MOL   C32738527   2.550   4.722   3.379 -0.1701 -0.2619  0.1155
  101MOL   C32838528   2.527   4.576   3.400 -0.0931 -0.3682 -0.0456
  101MOL   C32938529   2.391   4.524   3.352 -0.5657 -0.9244  0.8261
  101MOL   C33038530   2.376   4.504   3.204  0.0763 -0.5249  0.3656
  101MOL   C33138531   2.549   4.561   3.553  0.1046  0.2645 -0.1527
  101MOL   H33238532   2.587   4.749   3.657 -0.9758 -1.8244  1.5634
  101MOL   H33338533   2.757   4.708   3.418  0.6079 -0.7758  2.6720
  101MOL   H33438534   2.679   4.864   3.468  0.7654  0.0736  0.4549
  101MOL   H33538535   2.463   4.774   3.420  0.3613  0.8986 -0.1973
  101MOL   H33638536   2.571   4.735   3.273  0.4306  0.1578  0.2794
  101MOL   H33738537   2.609   4.530   3.345 -0.1957  1.0239 -1.4055
  101MOL   H33838538   2.384   4.424   3.394 -2.7087 -1.1653 -0.0784
  101MOL   H33938539   2.308   4.585   3.387  0.0230  0.1574  0.3766
  101MOL   H34038540   2.382   4.603   3.159  0.0367 -0.0517  1.3858
  101MOL   H34138541   2.461   4.444   3.173 -0.4066  0.6770 -3.5356
  101MOL   H34238542   2.584   4.461   3.578 -1.8115 -0.6397 -0.9521
  101MOL   H34338543   2.456   4.573   3.610 -0.0077  1.1895 -0.5107
  101MOL   C34438544   2.248   4.442   3.152 -0.5949 -0.5720 -0.6812
  101MOL   C34538545   2.236   4.299   3.204 -0.3591 -0.9534 -0.0739
  101MOL   C34638546   2.127   4.248   3.114  1.2083 -0.4673  0.3682
  101MOL   C34738547   2.147   4.310   2.972  0.6874  0.0142  0.1381
  101MOL   C34838548   2.011   4.329   2.901 -0.9708  0.7854  0.2333
  101MOL   C34938549   2.033   4.364   2.753 -0.5550 -0.5264  0.1132
  101MOL   C35038550   2.221   4.441   2.998 -0.6466 -0.1256  0.0095
  101MOL   H35138551   2.177   4.508   3.201  0.1730 -0.0437 -0.2579
  101MOL   H35238552   2.220   4.298   3.311  1.9018  0.8674  0.3076
  101MOL   H35338553   2.327   4.246   3.177  0.9183  1.6372 -0.9714
  101MOL   H35438554   2.124   4.139   3.107  0.9430 -0.4113 -0.4010
  101MOL   H35538555   2.038   4.293   3.159  1.4540  1.0532 -0.6470
  101MOL   H35638556   2.213   4.254   2.905  2.8572  1.0458  1.3331
  101MOL   H35738557   1.949   4.241   2.919 -0.0659  0.1043  0.0023
  101MOL   H35838558   1.955   4.411   2.946 -1.5184  0.9089 -0.6443
  101MOL   H35938559   2.072   4.280   2.695 -1.2110  0.2690 -1.4882
  101MOL   H36038560   2.100   4.449   2.744  0.0495 -1.0647 -0.5758
  101MOL   H36138561   2.318   4.416   2.957 -0.8022 -2.4071  0.9429
  101MOL   H36238562   2.194   4.540   2.961  1.4956  1.8227  3.4512
  101MOL   C36338563   1.911   4.409   2.670  0.3811  0.0850 -0.3507
  101MOL   C36438564   1.801   4.302   2.666  0.9121  0.4576  0.3171
  101MOL   C36538565   1.694   4.353   2.569 -0.1579 -0.0246 -0.1535
  101MOL   C36638566   1.775   4.434   2.462 -0.3075 -0.3786  0.1096
  101MOL   C36738567   1.777   4.360   2.321 -0.1075  0.4931 -0.0570
  101MOL   C36838568   1.831   4.459   2.220 -0.1308 -0.3041 -0.0131
  101MOL   C36938569   1.924   4.447   2.522  0.0944  0.2287  0.0823
  101MOL   H37038570   1.866   4.498   2.714 -0.4077 -0.0481 -0.8657
  101MOL   H37138571   1.850   4.213   2.626  0.1843  0.7293 -1.2394
  101MOL   H37238572   1.763   4.265   2.761  1.6243 -0.5427  0.2174
  101MOL   H37338573   1.639   4.274   2.518  0.7512 -0.6922 -0.1160
  101MOL   H37438574   1.619   4.411   2.624  0.7429  1.7089 -0.7000
  101MOL   H37538575   1.730   4.533   2.450  0.5802 -0.1829 -1.7606
  101MOL   H37638576   1.840   4.274   2.342 -0.5230  0.0498 -0.6106
  101MOL   H37738577   1.679   4.321   2.292 -0.4257  1.4269 -0.2664
  101MOL   H37838578   1.770   4.550   2.216  1.6282  0.9132  0.1777
  101MOL   H37938579   1.839   4.408   2.124 -0.5395  0.0494 -0.2369
  101MOL   H38038580   1.996   4.389   2.465 -1.5263 -0.9217 -0.8225
  101MOL   H38138581   1.949   4.552   2.503  0.8883  0.1349  0.6195
  101MOL   H38238582   1.934   4.467   2.255 -0.5385 -0.6899  1.2809
  102MOL     C138583   5.699   2.102   3.732 -0.2691  0.2412  0.3518
  102MOL     C238584   5.697   1.993   3.837 -0.1190 -0.2965  0.4894
  102MOL     C338585   5.825   2.008   3.925 -0.5299 -0.2912  0.1748
  102MOL     C438586   5.849   2.159   3.935  0.1412 -0.0240 -0.1368
  102MOL     C538587   5.986   2.211   3.987 -0.2044 -0.1464 -0.1553
  102MOL     C638588   6.000   2.365   3.982  0.3187 -0.1639  0.5544
  102MOL     C738589   5.806   2.204   3.787  0.3360 -0.1899  0.1951
  102MOL     H838590   5.721   2.060   3.634 -3.1985  1.8330 -1.0646
  102MOL     H938591   5.684   1.893   3.797 -2.9029 -0.6513  2.1637
  102MOL    H1038592   5.606   2.018   3.892 -1.6887 -1.0167 -1.7429
  102MOL    H1138593   5.806   1.966   4.024 -1.7455 -0.8945 -0.3130
  102MOL    H1238594   5.910   1.964   3.872  0.5594  0.8655  0.9327
  102MOL    H1338595   5.777   2.202   4.005  0.5044  1.8107 -0.8644
  102MOL    H1438596   6.006   2.181   4.090  2.4027  1.3424 -0.1677
  102MOL    H1538597   6.071   2.174   3.930 -1.3157 -0.2842 -1.7621
  102MOL    H1638598   5.982   2.391   3.878  0.5207  0.9893  0.8020
  102MOL    H1738599   5.916   2.420   4.023  1.3109  3.1827 -1.7008
  102MOL    H1838600   5.765   2.304   3.780 -0.5700 -0.4904  1.0756
  102MOL    H1938601   5.893   2.202   3.722 -0.5402 -1.5959 -0.9819
  102MOL    H2038602   5.600   2.149   3.732  0.4274  1.7504  1.6541
  102MOL    C2138603   6.124   2.417   4.047 -0.4204  0.1024 -1.0064
  102MOL    C2238604   6.244   2.428   3.951  0.4143 -0.1658  0.1196
  102MOL    C2338605   6.316   2.563   3.973  0.2487  0.2703 -0.5489
  102MOL    C2438606   6.204   2.653   4.013 -0.4843 -0.3291  0.2072
  102MOL    C2538607   6.137   2.726   3.891  0.0748  0.5133  0.0343
  102MOL    C2638608   6.075   2.862   3.925 -0.4632 -0.0450  0.5321
  102MOL    C2738609   6.118   2.564   4.095  0.0208  0.7991  0.0237
  102MOL    H2838610   6.157   2.347   4.124 -0.3995  1.5532  0.3251
  102MOL    H2938611   6.328   2.362   3.974  0.0997  0.0360  1.9405
  102MOL    H3038612   6.216   2.408   3.848 -0.3182 -2.1516  0.6826
  102MOL    H3138613   6.389   2.545   4.053  0.8417  0.2176 -1.0986
  102MOL    H3238614   6.369   2.591   3.882 -1.3950 -1.0393 -1.9384
  102MOL    H3338615   6.238   2.729   4.083 -0.7684  0.5931 -0.6347
  102MOL    H3438616   6.060   2.656   3.858 -0.6522  0.8837  0.9360
  102MOL    H3538617   6.207   2.742   3.808  0.9624  2.1321  1.0766
  102MOL    H3638618   6.161   2.924   3.950  2.5754 -4.2744  0.9553
  102MOL    H3738619   6.006   2.855   4.009  0.4717 -0.3390  1.2823
  102MOL    H3838620   6.150   2.572   4.198 -0.2813 -2.0987  0.3837
  102MOL    H3938621   6.018   2.608   4.089 -1.1135 -1.6550  0.2971
  102MOL    C4038622   6.010   2.925   3.797 -0.1645  0.1804  0.2011
  102MOL    C4138623   5.959   3.067   3.820  0.3609  0.2141 -0.5378
  102MOL    C4238624   5.933   3.123   3.672  0.8021 -0.2666 -0.1490
  102MOL    C4338625   6.016   3.029   3.581  1.1478  0.1536 -0.0206
  102MOL    C4438626   5.932   2.979   3.457  0.3248 -0.7640 -0.2775
  102MOL    C4538627   5.928   3.083   3.350 -0.0998 -0.6245  0.0608
  102MOL    C4638628   6.091   2.936   3.671  0.5850  0.4800 -0.1871
  102MOL    H4738629   5.935   2.848   3.775  1.4361 -0.8251 -1.9156
  102MOL    H4838630   6.037   3.126   3.869 -0.0286  0.6872 -0.4821
  102MOL    H4938631   5.865   3.060   3.874  0.2762 -0.6526 -0.7977
  102MOL    H5038632   5.825   3.123   3.658  0.5038 -0.2828  2.0416
  102MOL    H5138633   5.964   3.227   3.665  4.7400 -1.4396 -1.4112
  102MOL    H5238634   6.094   3.084   3.528  2.9943 -2.1424  0.2593
  102MOL    H5338635   5.972   2.885   3.419 -1.7710 -2.0929  0.7227
  102MOL    H5438636   5.835   2.939   3.486 -0.2224  0.9848  0.3569
  102MOL    H5538637   6.026   3.080   3.302  0.2794  1.3249  0.6449
  102MOL    H5638638   5.900   3.181   3.389  2.4520  0.2562 -0.2790
  102MOL    H5738639   6.107   2.839   3.624 -0.2495  0.5464 -0.6182
  102MOL    H5838640   6.193   2.962   3.701  1.0334 -0.3145 -1.0175
  102MOL    C5938641   5.823   3.047   3.247 -0.0861  0.2101 -0.1825
  102MOL    C6038642   5.679   3.056   3.307 -0.2444 -0.1155  0.0699
  102MOL    C6138643   5.598   3.136   3.206  0.6840  0.2678 -0.4778
  102MOL    C6238644   5.704   3.231   3.147  0.5184  0.1280 -0.4848
  102MOL    C6338645   5.650   3.296   3.019  0.3300 -0.8876 -0.3974
  102MOL    C6438646   5.753   3.365   2.924 -0.3993 -0.2129  0.0994
  102MOL    C6538647   5.826   3.137   3.128 -0.4674  0.0754  0.7172
  102MOL    H6638648   5.831   2.946   3.207  1.7870  0.0518  0.5211
  102MOL    H6738649   5.625   2.965   3.331 -0.8346  0.1602 -0.2046
  102MOL    H6838650   5.685   3.121   3.395 -0.4819  0.2598 -0.1949
  102MOL    H6938651   5.560   3.074   3.124 -1.2493  0.8893 -0.0790
  102MOL    H7038652   5.514   3.188   3.252 -0.1828 -1.1097 -0.4715
  102MOL    H7138653   5.732   3.303   3.223 -0.4901  1.5599 -1.4470
  102MOL    H7238654   5.566   3.363   3.033  0.9619 -0.4009  1.3026
  102MOL    H7338655   5.596   3.217   2.967 -1.2298  0.2185 -0.4731
  102MOL    H7438656   5.829   3.292   2.897  0.0952 -0.0988  1.1387
  102MOL    H7538657   5.700   3.397   2.835 -1.7249 -1.8293  0.2898
  102MOL    H7638658   5.829   3.066   3.045 -0.6392 -1.4938  2.0307
  102MOL    H7738659   5.921   3.191   3.122 -0.6488  0.3657  0.4391
  102MOL    C7838660   5.831   3.485   2.991  0.2144  0.2796  0.1472
  102MOL    C7938661   5.967   3.526   2.929 -0.3719  0.0699 -0.4976
  102MOL    C8038662   5.945   3.668   2.876  0.3808  0.5315 -0.5327
  102MOL    C8138663   5.815   3.727   2.947  0.3719  0.4810  0.1143
  102MOL    C8238664   5.721   3.805   2.853 -0.3283  0.0298 -0.4834
  102MOL    C8338665   5.792   3.912   2.771  0.5033 -0.3564  0.0956
  102MOL    C8438666   5.739   3.609   3.006 -0.0313  0.6719 -0.3974
  102MOL    H8538667   5.858   3.441   3.087  0.2255 -0.0951 -0.0265
  102MOL    H8638668   6.043   3.528   3.007 -0.9669  2.7726  0.0632
  102MOL    H8738669   6.000   3.476   2.838 -1.5053 -1.8185  0.0933
  102MOL    H8838670   6.029   3.736   2.885 -1.5616  3.2022 -1.7173
  102MOL    H8938671   5.921   3.664   2.770 -0.6520 -0.4462 -0.2749
  102MOL    H9038672   5.840   3.791   3.032 -1.1482  1.5914 -0.2621
  102MOL    H9138673   5.658   3.850   2.929  1.0386  2.0527 -0.5078
  102MOL    H9238674   5.674   3.736   2.783  2.7141 -2.7100  0.0972
  102MOL    H9338675   5.866   3.865   2.706 -0.5460 -2.2403  0.2108
  102MOL    H9438676   5.835   3.991   2.831 -0.3139 -0.0749  0.3246
  102MOL    H9538677   5.647   3.595   2.949  2.1881 -0.6559 -3.7969
  102MOL    H9638678   5.714   3.625   3.111  0.7363 -0.4490 -0.0364
  102MOL    C9738679   5.703   3.993   2.675 -0.5255  0.0748  0.5655
  102MOL    C9838680   5.788   4.081   2.580  0.1244  0.9170 -0.0867
  102MOL    C9938681   5.731   4.228   2.567 -0.0956  0.6261 -0.0149
  102MOL   C10038682   5.595   4.206   2.636 -0.0528  0.3078 -0.0649
  102MOL   C10138683   5.526   4.336   2.684  0.3199  0.5888  0.5661
  102MOL   C10238684   5.375   4.290   2.709  0.1346  0.2409  0.3540
  102MOL   C10338685   5.616   4.094   2.741  0.8093  0.1401 -0.3092
  102MOL   H10438686   5.637   3.927   2.618  1.7066 -1.7913  0.1018
  102MOL   H10538687   5.889   4.079   2.620 -0.3114 -0.6867  1.0120
  102MOL   H10638688   5.786   4.029   2.484  0.5084 -0.9116  0.8600
  102MOL   H10738689   5.782   4.307   2.622  0.9216  1.7591 -2.5050
  102MOL   H10838690   5.736   4.271   2.467 -1.0837 -1.2444 -0.8947
  102MOL   H10938691   5.537   4.172   2.551  1.4527 -0.8973 -0.6277
  102MOL   H11038692   5.571   4.392   2.765 -0.1682  1.0615  0.5123
  102MOL   H11138693   5.518   4.412   2.607 -2.3234 -0.9421 -0.7924
  102MOL   H11238694   5.345   4.245   2.614 -0.3520  1.7719 -0.2350
  102MOL   H11338695   5.368   4.214   2.786 -1.7473 -1.3868 -1.3485
  102MOL   H11438696   5.665   4.137   2.828  3.4383 -0.7917 -1.2774
  102MOL   H11538697   5.517   4.053   2.761  0.8198  0.8712  1.3678
  102MOL   C11638698   5.281   4.406   2.748 -0.1461  0.7393  0.2390
  102MOL   C11738699   5.264   4.507   2.631 -0.5224 -0.1171 -0.5289
  102MOL   C11838700   5.124   4.570   2.654 -0.6948  0.0823  0.0070
  102MOL   C11938701   5.035   4.461   2.722  0.1482 -0.4888 -0.3952
  102MOL   C12038702   4.926   4.406   2.631 -0.2975 -0.5318 -0.0862
  102MOL   C12138703   4.805   4.504   2.628 -0.1918 -0.0654 -0.2770
  102MOL   C12238704   5.140   4.355   2.770 -0.0687  0.0674  0.1508
  102MOL   H12338705   5.323   4.451   2.838  0.5577 -0.1556  0.3635
  102MOL   H12438706   5.265   4.454   2.536 -1.7974 -0.2487 -0.4705
  102MOL   H12538707   5.338   4.587   2.622  0.8450 -1.4311 -1.2378
  102MOL   H12638708   5.089   4.622   2.565 -2.0023  0.0591  0.4897
  102MOL   H12738709   5.149   4.650   2.724 -1.3215  0.2073  0.0900
  102MOL   H12838710   4.989   4.509   2.808 -1.0151 -2.9280  0.3677
  102MOL   H12938711   4.895   4.308   2.667 -1.5727 -0.5336 -1.1547
  102MOL   H13038712   4.970   4.403   2.532  2.0822  1.8366  0.8264
  102MOL   H13138713   4.849   4.599   2.598  3.0947 -0.6115  2.5188
  102MOL   H13238714   4.764   4.509   2.729  1.6785 -0.8698  0.5397
  102MOL   H13338715   5.126   4.335   2.877  1.9068  2.6427  0.9476
  102MOL   H13438716   5.127   4.266   2.710  0.8704 -1.6728  2.4450
  102MOL   C13538717   4.707   4.440   2.535 -0.1292  0.0907  0.6240
  102MOL   C13638718   4.653   4.305   2.577  0.2640  0.2932  0.9410
  102MOL   C13738719   4.506   4.305   2.561 -0.6601 -0.0638 -0.1346
  102MOL   C13838720   4.462   4.449   2.595 -0.1615 -0.1947  0.1084
  102MOL   C13938721   4.322   4.477   2.551  0.1451 -0.2709  0.5038
  102MOL   C14038722   4.275   4.620   2.583  0.1716 -0.6655  0.5870
  102MOL   C14138723   4.577   4.527   2.521 -0.2038  0.0723  0.4411
  102MOL   H14238724   4.753   4.425   2.437  0.9687  1.4729  0.8901
  102MOL   H14338725   4.695   4.222   2.520  1.4529  1.5082  0.0394
  102MOL   H14438726   4.672   4.284   2.682  0.2621  0.0290  0.8888
  102MOL   H14538727   4.488   4.285   2.456  0.5200 -0.5072 -0.2672
  102MOL   H14638728   4.455   4.229   2.620  0.4839  0.9839  2.3117
  102MOL   H14738729   4.468   4.470   2.702 -0.2616 -0.1314  0.1015
  102MOL   H14838730   4.254   4.406   2.597  0.4030  0.5700  2.2399
  102MOL   H14938731   4.310   4.474   2.443 -0.5549  0.5210  0.5542
  102MOL   H15038732   4.265   4.625   2.691  0.7249 -0.5905  0.6342
  102MOL   H15138733   4.356   4.690   2.563 -0.9600  0.7325  0.7916
  102MOL   H15238734   4.584   4.631   2.553 -4.3530  0.1344  1.4307
  102MOL   H15338735   4.555   4.527   2.414 -1.8619 -0.8509  0.7670
  102MOL   C15438736   4.139   4.657   2.529 -0.2124  0.0775  0.1809
  102MOL   C15538737   4.114   4.805   2.530  0.1318 -0.5105  0.3848
  102MOL   C15638738   3.958   4.805   2.528 -0.1238 -0.4586  0.7162
  102MOL   C15738739   3.900   4.664   2.565  0.6422  0.3640 -0.0908
  102MOL   C15838740   3.796   4.674   2.676  0.5656  0.2906  0.5344
  102MOL   C15938741   3.718   4.544   2.705  0.5136  0.3207 -0.4264
  102MOL   C16038742   4.027   4.584   2.601  0.1596 -0.2389  0.3095
  102MOL   H16138743   4.129   4.635   2.423 -3.2561  1.9816  0.0104
  102MOL   H16238744   4.138   4.845   2.628  1.7005 -0.3833 -0.0476
  102MOL   H16338745   4.152   4.865   2.448 -1.6924 -1.4805 -1.2088
  102MOL   H16438746   3.928   4.882   2.599  1.0376  0.0610  0.6601
  102MOL   H16538747   3.927   4.834   2.427  0.2313  0.5246  0.8877
  102MOL   H16638748   3.851   4.622   2.477 -3.8130  0.7495  2.0786
  102MOL   H16738749   3.721   4.733   2.625 -0.5325 -1.3812  0.1765
  102MOL   H16838750   3.826   4.728   2.765  3.2820 -0.7159  0.2840
  102MOL   H16938751   3.683   4.516   2.606  0.2214  0.0541 -0.2464
  102MOL   H17038752   3.798   4.477   2.735 -2.0782 -3.0260 -0.8124
  102MOL   H17138753   4.018   4.477   2.583 -1.8498  0.2800 -2.0721
  102MOL   H17238754   4.047   4.585   2.708 -0.7364 -1.8394  0.5150
  102MOL   C17338755   3.593   4.566   2.793  0.6110 -0.4562 -0.1256
  102MOL   C17438756   3.464   4.592   2.724  0.3262 -0.1457 -0.2115
  102MOL   C17538757   3.388   4.457   2.710  0.3500  0.0524 -0.2523
  102MOL   C17638758   3.442   4.374   2.828 -0.0637  0.0023  0.0624
  102MOL   C17738759   3.466   4.222   2.794  0.4632 -0.4229 -0.3533
  102MOL   C17838760   3.589   4.195   2.701 -0.3838  0.4769 -0.3629
  102MOL   C17938761   3.570   4.446   2.887  0.2222 -0.8095  0.4827
  102MOL   H18038762   3.619   4.651   2.855 -1.4230  0.8148 -0.9598
  102MOL   H18138763   3.475   4.642   2.628 -1.0894  0.8803  0.1373
  102MOL   H18238764   3.408   4.670   2.777  1.7823 -0.5248  1.9391
  102MOL   H18338765   3.285   4.476   2.738  0.8191  2.0682  0.1626
  102MOL   H18438766   3.406   4.414   2.611 -1.3666  1.4792 -1.2045
  102MOL   H18538767   3.368   4.371   2.908  0.2191 -0.8438  0.2913
  102MOL   H18638768   3.378   4.173   2.751  0.4060  1.0913 -2.0452
  102MOL   H18738769   3.481   4.165   2.885 -4.0368 -1.3348 -0.0708
  102MOL   H18838770   3.669   4.260   2.735  0.3340 -0.9771  0.8028
  102MOL   H18938771   3.564   4.235   2.603  0.4744 -1.9988 -1.6226
  102MOL   H19038772   3.658   4.385   2.903 -0.4795 -1.7174  0.9290
  102MOL   H19138773   3.555   4.477   2.990 -0.6072 -1.0649  0.4404
  102MOL   C19238774   3.639   4.050   2.692 -0.4574  0.4936  0.0838
  102MOL   C19338775   3.785   4.037   2.650 -0.1967  0.6045  0.2181
  102MOL   C19438776   3.796   3.892   2.600  0.5894 -0.4150 -0.4278
  102MOL   C19538777   3.665   3.859   2.526  0.8749 -0.3515 -0.1691
  102MOL   C19638778   3.622   3.714   2.533 -0.5472 -0.2152 -0.5252
  102MOL   C19738779   3.731   3.610   2.497  0.1851 -0.5719 -0.0455
  102MOL   C19838780   3.563   3.955   2.593  0.5798 -0.3845  0.3261
  102MOL   H19938781   3.638   4.011   2.794 -0.8367 -1.9300 -0.8026
  102MOL   H20038782   3.812   4.104   2.569 -1.9959  0.7150 -0.3020
  102MOL   H20138783   3.854   4.047   2.734  0.4732  1.9853 -0.4738
  102MOL   H20238784   3.810   3.830   2.688 -1.2451 -0.8970 -0.4581
  102MOL   H20338785   3.888   3.898   2.541  0.1772 -0.7689 -1.1141
  102MOL   H20438786   3.683   3.881   2.420 -2.3792  2.5614 -0.2046
  102MOL   H20538787   3.535   3.695   2.470 -0.4414  1.1116 -1.0814
  102MOL   H20638788   3.582   3.699   2.633 -3.7309  0.7243 -1.6156
  102MOL   H20738789   3.824   3.625   2.552 -1.1460  2.0582  1.5821
  102MOL   H20838790   3.758   3.611   2.391  0.6466 -2.5705  0.0421
  102MOL   H20938791   3.491   3.897   2.649 -0.5543  1.6257  1.0131
  102MOL   H21038792   3.517   4.020   2.518  1.0962 -1.6130 -1.0855
  102MOL   C21138793   3.686   3.463   2.520 -0.1900 -0.1476 -0.4183
  102MOL   C21238794   3.795   3.373   2.471 -0.2564  0.5410  0.8063
  102MOL   C21338795   3.737   3.256   2.397 -0.2701  0.5544 -0.6250
  102MOL   C21438796   3.585   3.266   2.417  0.3815 -0.4362  0.3279
  102MOL   C21538797   3.513   3.217   2.288 -0.6849 -0.0012 -0.6940
  102MOL   C21638798   3.363   3.252   2.279 -0.4550  0.0302 -0.4667
  102MOL   C21738799   3.562   3.420   2.441 -0.1570  0.2228 -0.2608
  102MOL   H21838800   3.660   3.430   2.621  2.9010 -1.0268  0.1356
  102MOL   H21938801   3.875   3.415   2.410 -2.6184  1.2015 -1.9244
  102MOL   H22038802   3.856   3.339   2.555  2.4064 -0.5349 -1.4673
  102MOL   H22138803   3.765   3.249   2.292 -1.3171  1.0752 -0.9454
  102MOL   H22238804   3.772   3.166   2.448  0.7514  1.6476  0.6716
  102MOL   H22338805   3.554   3.209   2.504 -0.6683  2.4718  1.9367
  102MOL   H22438806   3.533   3.110   2.291 -2.5465 -0.5122 -3.9594
  102MOL   H22538807   3.561   3.262   2.200 -2.4322  0.4725 -1.4343
  102MOL   H22638808   3.310   3.199   2.359  0.9502 -2.7282 -1.2839
  102MOL   H22738809   3.345   3.356   2.307 -0.1816  0.3853 -1.5958
  102MOL   H22838810   3.466   3.431   2.492  0.1535  0.3625  0.2904
  102MOL   H22938811   3.563   3.469   2.344 -0.0971 -1.3840 -1.0876
  102MOL   C23038812   3.282   3.227   2.148  0.3978 -0.1487  0.0408
  102MOL   C23138813   3.131   3.240   2.150 -0.6020 -0.0475 -0.0456
  102MOL   C23238814   3.088   3.104   2.086  1.1093 -0.0310  0.1232
  102MOL   C23338815   3.202   3.053   1.996  0.0337 -0.2077 -0.5672
  102MOL   C23438816   3.218   3.115   1.857 -0.2312  0.8722 -0.1082
  102MOL   C23538817   3.097   3.087   1.769  0.0445 -0.7584 -0.0315
  102MOL   C23638818   3.320   3.095   2.084 -0.2222  0.9206 -0.5734
  102MOL   H23738819   3.319   3.303   2.079 -0.8362 -1.6985 -2.3794
  102MOL   H23838820   3.083   3.260   2.245 -0.1554 -2.0666  0.6446
  102MOL   H23938821   3.087   3.322   2.093 -0.4208 -0.7420 -1.2171
  102MOL   H24038822   2.992   3.109   2.035  1.7215 -0.1101 -1.0571
  102MOL   H24138823   3.070   3.035   2.168  0.3766  0.9621  0.8056
  102MOL   H24238824   3.202   2.944   1.995  0.3833 -0.2457  1.7016
  102MOL   H24338825   3.307   3.070   1.813  0.3799  2.7485 -0.8406
  102MOL   H24438826   3.235   3.223   1.860  3.0861  0.3766  1.1648
  102MOL   H24538827   3.056   2.993   1.805  0.9936 -1.1495  0.0529
  102MOL   H24638828   3.021   3.164   1.772  0.8086 -0.0189  0.3194
  102MOL   H24738829   3.415   3.096   2.030 -0.4565  0.8060 -0.9872
  102MOL   H24838830   3.337   3.017   2.158  1.1836  0.7161 -1.1000
  102MOL   C24938831   3.151   3.066   1.632 -0.3699  0.1552 -0.2276
  102MOL   C25038832   3.052   3.007   1.541  0.0974 -0.2758 -0.0480
  102MOL   C25138833   3.089   3.036   1.399  0.2913  0.5340  0.3191
  102MOL   C25238834   3.196   3.145   1.411  0.8607 -0.0220  0.7139
  102MOL   C25338835   3.328   3.086   1.361 -0.0740 -0.0021 -0.6338
  102MOL   C25438836   3.449   3.181   1.368 -1.0336  0.5532 -0.2985
  102MOL   C25538837   3.191   3.194   1.560  0.2988  0.1394 -0.0565
  102MOL   H25638838   3.236   2.998   1.631 -1.9290 -1.8605 -0.6531
  102MOL   H25738839   3.043   2.903   1.571 -1.2121  0.0362  0.7132
  102MOL   H25838840   2.953   3.049   1.557  0.0208 -0.7008  0.6298
  102MOL   H25938841   3.005   3.074   1.340  0.8920 -0.0518 -0.9379
  102MOL   H26038842   3.121   2.943   1.351 -0.0381  1.1682 -1.1707
  102MOL   H26138843   3.185   3.224   1.336  1.5538 -1.2670 -0.7121
  102MOL   H26238844   3.318   3.050   1.259 -0.5919  0.9630 -0.9347
  102MOL   H26338845   3.344   3.005   1.433  0.7311 -0.2062 -1.0435
  102MOL   H26438846   3.450   3.242   1.459  1.2107  0.3665 -0.1721
  102MOL   H26538847   3.463   3.244   1.281 -0.5361 -0.4162 -0.9336
  102MOL   H26638848   3.127   3.277   1.590  0.0622 -0.1081  0.1271
  102MOL   H26738849   3.285   3.224   1.606  0.6709  0.1588 -0.8212
  102MOL   C26838850   3.580   3.105   1.385  0.0839 -0.0449  0.0579
  102MOL   C26938851   3.588   3.056   1.529  0.2844  0.3706  0.5441
  102MOL   C27038852   3.708   3.118   1.595  0.3289 -0.0868 -0.5846
  102MOL   C27138853   3.801   3.155   1.479  0.5012 -0.6218  0.3596
  102MOL   C27238854   3.896   3.270   1.514  1.0330 -0.5723 -1.0158
  102MOL   C27338855   4.013   3.227   1.598  0.3564  0.2348  0.3145
  102MOL   C27438856   3.706   3.182   1.362 -0.7946 -0.5002  0.5164
  102MOL   H27538857   3.590   3.019   1.319 -2.2915 -1.0360  0.9169
  102MOL   H27638858   3.497   3.068   1.588  0.7278 -0.9163  1.5276
  102MOL   H27738859   3.615   2.950   1.522  0.9281  0.5945 -0.5025
  102MOL   H27838860   3.681   3.206   1.652  0.5306 -0.6161  0.3396
  102MOL   H27938861   3.765   3.058   1.667 -3.0151  0.8490  3.0212
  102MOL   H28038862   3.858   3.064   1.460  0.4334 -0.1585 -2.1476
  102MOL   H28138863   3.847   3.348   1.572  1.7053 -0.2273 -0.9018
  102MOL   H28238864   3.933   3.326   1.428  2.0594  0.3165 -0.0064
  102MOL   H28338865   3.987   3.166   1.685  1.6156 -0.3450  0.2876
  102MOL   H28438866   4.079   3.162   1.542 -0.9484  0.7387 -1.8473
  102MOL   H28538867   3.685   3.288   1.371  1.9910  0.0439  0.7841
  102MOL   H28638868   3.754   3.168   1.266  1.6814  3.0833  1.1739
  102MOL   C28738869   4.079   3.353   1.650  0.0426 -0.2584 -0.4901
  102MOL   C28838870   4.193   3.313   1.748  0.5488  1.0337 -0.2261
  102MOL   C28938871   4.303   3.421   1.730 -0.2650 -0.1575  1.0243
  102MOL   C29038872   4.253   3.522   1.624  0.0971 -0.2096  0.5664
  102MOL   C29138873   4.365   3.572   1.534  0.3572 -0.2741 -0.4775
  102MOL   C29238874   4.464   3.656   1.618 -0.2904 -0.4442  1.1669
  102MOL   C29338875   4.144   3.444   1.550  0.3146 -0.5509  0.4730
  102MOL   H29438876   4.011   3.424   1.698  2.5266  3.3588 -2.0408
  102MOL   H29538877   4.160   3.292   1.850  0.6967  1.7054 -0.0327
  102MOL   H29638878   4.227   3.217   1.709 -3.4938 -1.2478  1.5844
  102MOL   H29738879   4.392   3.368   1.696 -0.0885  0.6288  0.2433
  102MOL   H29838880   4.320   3.474   1.823  1.6615 -1.9091  1.7141
  102MOL   H29938881   4.207   3.605   1.678 -1.7763 -0.3042 -0.8547
  102MOL   H30038882   4.326   3.648   1.467  1.7525  1.2507  0.4017
  102MOL   H30138883   4.412   3.492   1.476 -0.0190 -0.4863 -0.4890
  102MOL   H30238884   4.482   3.607   1.713  0.0808 -1.3761  0.6186
  102MOL   H30338885   4.406   3.748   1.629  2.1241  1.1633  0.7342
  102MOL   H30438886   4.176   3.377   1.470 -2.2606  0.2869 -1.3296
  102MOL   H30538887   4.063   3.504   1.507  0.9886 -1.2464 -1.8624
  102MOL   C30638888   4.594   3.683   1.549 -0.9989 -0.2793 -0.1905
  102MOL   C30738889   4.576   3.754   1.417 -0.9990 -0.0985  0.0589
  102MOL   C30838890   4.608   3.899   1.465 -0.0880 -0.3056 -0.0324
  102MOL   C30938891   4.728   3.881   1.563 -0.0221  0.5948  0.3258
  102MOL   C31038892   4.760   4.000   1.664  0.5059  0.2061  0.0148
  102MOL   C31138893   4.859   4.102   1.610 -0.1988 -0.2393  0.3268
  102MOL   C31238894   4.683   3.762   1.647 -0.2557 -0.1459  0.0575
  102MOL   H31338895   4.650   3.592   1.530 -1.2958 -0.5620  0.2611
  102MOL   H31438896   4.665   3.731   1.358 -0.4203  2.8326 -0.2892
  102MOL   H31538897   4.483   3.736   1.363 -0.6674 -0.2970 -0.4585
  102MOL   H31638898   4.629   3.979   1.393  0.5394 -1.5572 -1.2922
  102MOL   H31738899   4.526   3.947   1.517  1.5272  0.5378  1.7941
  102MOL   H31838900   4.817   3.856   1.506  0.1695  0.4902  0.6719
  102MOL   H31938901   4.667   4.049   1.691 -0.4575  0.2806 -3.2370
  102MOL   H32038902   4.805   3.956   1.753  0.7512  0.6582  0.1145
  102MOL   H32138903   4.829   4.117   1.507 -1.5024 -0.3545  0.6790
  102MOL   H32238904   4.957   4.056   1.602 -0.5669 -0.5612 -2.6519
  102MOL   H32338905   4.626   3.795   1.734 -0.3360  1.2859 -0.5254
  102MOL   H32438906   4.772   3.720   1.695 -0.5994  0.6531  1.4236
  102MOL   C32538907   4.872   4.234   1.690  0.0812  0.5057 -0.0395
  102MOL   C32638908   4.985   4.239   1.789 -0.0196 -0.9846  0.3630
  102MOL   C32738909   4.973   4.384   1.836 -0.0560  0.1345  0.3337
  102MOL   C32838910   4.940   4.461   1.701  0.1033 -0.0699 -0.6202
  102MOL   C32938911   4.845   4.587   1.726 -0.1490 -0.4800  0.4350
  102MOL   C33038912   4.821   4.675   1.608  0.0189 -0.7405  0.5082
  102MOL   C33138913   4.892   4.356   1.600 -0.2560  0.2936 -0.2666
  102MOL   H33238914   4.778   4.240   1.745  0.5554 -0.1343  0.8520
  102MOL   H33338915   5.083   4.217   1.747  0.3756  1.7361 -0.2432
  102MOL   H33438916   4.962   4.167   1.867  1.1953 -0.9534  0.7593
  102MOL   H33538917   4.892   4.394   1.908 -0.1369  1.8002  0.0400
  102MOL   H33638918   5.062   4.424   1.886  0.2621 -0.9540  0.6443
  102MOL   H33738919   5.037   4.502   1.673 -0.2534  1.1087 -0.2013
  102MOL   H33838920   4.753   4.561   1.778  0.5106 -3.2633  0.3162
  102MOL   H33938921   4.898   4.649   1.798  0.2836  0.0580 -0.3506
  102MOL   H34038922   4.918   4.715   1.580 -0.3010 -2.0907 -2.7253
  102MOL   H34138923   4.786   4.615   1.523 -1.8349  0.7304  0.2010
  102MOL   H34238924   4.970   4.337   1.527  0.0783  0.2521  0.1010
  102MOL   H34338925   4.814   4.389   1.531  0.0236  2.4781  0.4470
  102MOL   C34438926   4.730   4.791   1.630 -0.8307  0.0973  0.2538
  102MOL   C34538927   4.728   4.896   1.514 -0.0924  0.0712  0.1608
  102MOL   C34638928   4.666   5.025   1.567  0.3201 -0.6548  0.2714
  102MOL   C34738929   4.702   5.025   1.711 -0.4393 -0.1295  0.0759
  102MOL   C34838930   4.588   5.080   1.808  0.3981  0.0205  0.1879
  102MOL   C34938931   4.570   5.234   1.791  0.6393 -0.4084  0.0926
  102MOL   C35038932   4.765   4.886   1.751  0.1616  0.3137  0.2400
  102MOL   H35138933   4.627   4.760   1.649 -0.3668 -1.2227  0.6937
  102MOL   H35238934   4.679   4.857   1.425  1.5210 -3.7133  0.8460
  102MOL   H35338935   4.828   4.924   1.480  0.3611 -1.8381 -0.1338
  102MOL   H35438936   4.705   5.103   1.502 -1.4644 -0.7431 -0.9488
  102MOL   H35538937   4.560   5.034   1.543  0.7700  0.8982 -1.2606
  102MOL   H35638938   4.780   5.102   1.708  0.5488 -1.1591 -1.5527
  102MOL   H35738939   4.497   5.022   1.790  0.0770  0.6268 -0.1679
  102MOL   H35838940   4.614   5.058   1.911 -1.3333  0.4725  0.7475
  102MOL   H35938941   4.566   5.262   1.686 -0.9346  2.4787  0.8912
  102MOL   H36038942   4.655   5.284   1.838  0.0250  0.7321 -0.0030
  102MOL   H36138943   4.869   4.903   1.777 -0.4442 -1.3428  4.1018
  102MOL   H36238944   4.732   4.845   1.847  0.2902 -0.0805  0.1157
  102MOL   C36338945   4.440   5.285   1.845  0.7050  0.5477  0.2188
  102MOL   C36438946   4.405   5.427   1.796  0.1225  0.9682 -0.0284
  102MOL   C36538947   4.376   5.505   1.927 -0.5445 -0.4900 -0.9115
  102MOL   C36638948   4.341   5.401   2.035  0.0329  0.5238 -0.2117
  102MOL   C36738949   4.370   5.455   2.181 -0.1467  0.3450 -0.1362
  102MOL   C36838950   4.338   5.342   2.279  0.3531 -0.1403 -0.6721
  102MOL   C36938951   4.437   5.287   2.001 -0.0573 -0.2040  0.2302
  102MOL   H37038952   4.353   5.227   1.813 -1.4043  2.7737  1.6756
  102MOL   H37138953   4.478   5.471   1.727  1.0431 -1.6325 -0.8052
  102MOL   H37238954   4.310   5.426   1.742 -0.4140  1.4175  0.9055
  102MOL   H37338955   4.468   5.553   1.961 -1.9987  0.8460  1.2314
  102MOL   H37438956   4.300   5.583   1.919  0.1985  0.1594 -1.7584
  102MOL   H37538957   4.240   5.364   2.019 -0.7665  2.5917 -0.1234
  102MOL   H37638958   4.475   5.485   2.191  0.3543 -1.8761  1.8719
  102MOL   H37738959   4.306   5.542   2.196  0.5932  0.8718  0.0095
  102MOL   H37838960   4.415   5.265   2.287 -1.6720 -2.0789  0.5979
  102MOL   H37938961   4.237   5.302   2.268  0.5574 -1.5366  2.1688
  102MOL   H38038962   4.539   5.302   2.037  0.0960 -0.2420 -0.1811
  102MOL   H38138963   4.416   5.188   2.041  1.1830 -1.2195 -1.5738
  102MOL   H38238964   4.334   5.394   2.375  0.4310  0.6628 -1.0927
  103MOL     C138965   0.274   5.009   1.480  0.1635  0.4242 -0.1766
  103MOL     C238966   0.266   5.015   1.326  0.0216  0.1236 -0.0608
  103MOL     C338967   0.217   4.877   1.286  0.2835 -0.2647 -0.4331
  103MOL     C438968   0.120   4.833   1.396  0.2974 -0.6128 -0.1267
  103MOL     C538969   0.080   4.685   1.401 -0.5457  0.9010 -0.2888
  103MOL     C638970   7.625   4.656   1.282  0.3641 -0.7065 -0.0674
  103MOL     C738971   0.172   4.897   1.524 -0.0957 -0.2371  0.7978
  103MOL     H838972   0.369   4.974   1.520 -0.8547  0.0668  2.0529
  103MOL     H938973   0.347   5.050   1.262 -0.3034  0.7657 -0.1206
  103MOL    H1038974   0.188   5.084   1.294 -1.6902 -0.9820  1.5578
  103MOL    H1138975   0.175   4.881   1.185  1.7498  0.6625 -1.0212
  103MOL    H1238976   0.302   4.810   1.294 -2.6635 -4.1050  0.0508
  103MOL    H1338977   0.023   4.881   1.385 -0.0594 -1.0899  0.8630
  103MOL    H1438978   0.161   4.614   1.417 -1.5590 -0.1150  0.4464
  103MOL    H1538979   0.025   4.672   1.494  3.4067 -0.5705  1.9923
  103MOL    H1638980   7.536   4.720   1.281  0.6788 -0.2553  0.6686
  103MOL    H1738981   0.033   4.684   1.193 -1.9948 -0.4440 -1.4921
  103MOL    H1838982   0.096   4.929   1.595 -1.2759 -0.4740 -0.3560
  103MOL    H1938983   0.223   4.819   1.581 -0.0669 -1.7191 -1.2202
  103MOL    H2038984   0.254   5.107   1.523 -2.9119  1.0413 -2.8580
  103MOL    C2138985   7.603   4.504   1.277 -0.0279 -0.7198  0.1924
  103MOL    C2238986   7.499   4.447   1.366  0.6463 -0.2071 -0.9110
  103MOL    C2338987   7.454   4.318   1.301 -0.6534 -0.9158  0.3015
  103MOL    C2438988   7.528   4.313   1.164  0.5518  0.1680  0.0306
  103MOL    C2538989   7.445   4.239   1.058  0.0454  0.2784 -0.0429
  103MOL    C2638990   7.531   4.210   0.929  0.8330 -0.1794 -0.2519
  103MOL    C2738991   7.564   4.456   1.140 -0.1694 -0.0241  0.8630
  103MOL    H2838992   0.046   4.454   1.314  1.2384  0.7671 -0.8291
  103MOL    H2938993   7.531   4.428   1.468 -1.4103  0.6883 -0.0667
  103MOL    H3038994   7.416   4.518   1.372  0.6449 -0.2176 -0.8114
  103MOL    H3138995   7.475   4.229   1.361 -1.1468 -1.1629  0.1088
  103MOL    H3238996   7.347   4.327   1.284 -0.6416  0.3769  0.8582
  103MOL    H3338997   7.611   4.248   1.192 -1.1893 -1.5992  1.2618
  103MOL    H3438998   7.363   4.308   1.040  0.1498 -0.1715 -2.4130
  103MOL    H3538999   7.401   4.147   1.097  0.4210  0.7558  1.5609
  103MOL    H3639000   7.597   4.124   0.932  0.3178 -0.5312  1.4306
  103MOL    H3739001   7.596   4.296   0.910 -1.6550  1.8183 -0.0710
  103MOL    H3839002   7.643   4.462   1.065 -2.4118  0.5057 -1.5417
  103MOL    H3939003   7.479   4.509   1.095 -1.0384 -2.2944 -0.2660
  103MOL    C4039004   7.437   4.172   0.809  0.5437 -0.1850  0.3741
  103MOL    C4139005   7.333   4.058   0.837  0.4868 -0.1731  0.5371
  103MOL    C4239006   7.186   4.118   0.827  0.3564 -0.1294  0.0164
  103MOL    C4339007   7.200   4.266   0.806 -0.6664  0.0132 -0.0608
  103MOL    C4439008   7.112   4.324   0.697  0.1710 -0.4098  0.0454
  103MOL    C4539009   6.962   4.336   0.731 -0.3004  0.1470  0.0193
  103MOL    C4639010   7.349   4.284   0.760  0.6207  0.8829  0.1500
  103MOL    H4739011   7.491   4.145   0.718  1.0422  1.7963  0.0435
  103MOL    H4839012   7.339   3.991   0.923 -0.0398  0.4296  1.0503
  103MOL    H4939013   7.342   3.988   0.754  2.0855  2.2492 -1.3825
  103MOL    H5039014   7.133   4.068   0.746 -0.0235  0.4351 -0.0894
  103MOL    H5139015   7.130   4.104   0.920  1.3279  0.5107  0.7075
  103MOL    H5239016   7.177   4.319   0.898  0.0004  0.2912 -0.0473
  103MOL    H5339017   7.158   4.420   0.672 -0.8972 -0.3320 -1.7752
  103MOL    H5439018   7.128   4.260   0.610 -0.2981  2.1612 -2.0029
  103MOL    H5539019   6.934   4.409   0.807 -2.2656 -1.5236  0.9406
  103MOL    H5639020   6.926   4.245   0.777 -0.2687  0.4005  0.5431
  103MOL    H5739021   7.349   4.287   0.651  3.3519 -0.6736  0.0799
  103MOL    H5839022   7.382   4.379   0.803  0.1416  2.4666 -2.8272
  103MOL    C5939023   6.882   4.373   0.610  0.0492  0.2066 -0.5027
  103MOL    C6039024   6.734   4.404   0.636 -0.0210 -0.2473  0.6774
  103MOL    C6139025   6.695   4.494   0.523 -0.5901 -0.5254  0.0050
  103MOL    C6239026   6.823   4.517   0.437 -0.0488  0.4625  0.2018
  103MOL    C6339027   6.807   4.427   0.311  0.3583  0.4978  0.3370
  103MOL    C6439028   6.927   4.421   0.215 -0.5215 -0.3641 -0.0179
  103MOL    C6539029   6.935   4.493   0.530 -0.1204 -0.0076 -0.1297
  103MOL    H6639030   6.882   4.285   0.546  1.6079  1.5119 -2.3651
  103MOL    H6739031   6.680   4.311   0.655 -0.1031 -0.1878  0.7357
  103MOL    H6839032   6.722   4.455   0.732  0.1928  1.3157 -0.1112
  103MOL    H6939033   6.608   4.457   0.469  0.9125 -0.2611 -2.7024
  103MOL    H7039034   6.658   4.590   0.561 -1.0073 -0.6528 -0.0788
  103MOL    H7139035   6.826   4.623   0.411 -0.4134  0.3867 -0.1366
  103MOL    H7239036   6.721   4.473   0.262  0.6881  1.0135  0.2409
  103MOL    H7339037   6.780   4.322   0.327  0.1549  0.4891 -0.0508
  103MOL    H7439038   7.014   4.391   0.274  0.4555 -0.5497 -1.5069
  103MOL    H7539039   6.917   4.341   0.142 -0.7969 -1.6124  1.3797
  103MOL    H7639040   7.034   4.469   0.490 -0.4069 -0.7344 -0.3998
  103MOL    H7739041   6.955   4.577   0.596 -2.0347 -0.5386  1.1422
  103MOL    C7839042   6.954   4.563   0.144 -0.3490 -0.0816  0.4189
  103MOL    C7939043   7.087   4.595   0.085 -0.2202  0.3827 -0.2507
  103MOL    C8039044   7.060   4.676   7.606  0.3967 -0.5883 -0.1844
  103MOL    C8139045   6.916   4.697   7.593 -0.1494 -0.5822  0.3422
  103MOL    C8239046   6.859   4.707   7.447  0.3164  0.4037 -0.8374
  103MOL    C8339047   6.899   4.833   7.362 -0.7367  0.2831  0.5321
  103MOL    C8439048   6.853   4.582   0.027  0.3453  0.8296 -0.2909
  103MOL    H8539049   6.931   4.633   0.224  0.1324  0.6322 -0.0515
  103MOL    H8639050   7.157   4.630   0.161 -1.8800 -0.9345  1.9593
  103MOL    H8739051   7.140   4.508   0.047  0.9807  2.0414 -2.5035
  103MOL    H8839052   7.115   4.770   7.614 -0.4118 -0.1745  0.5103
  103MOL    H8939053   7.106   4.631   7.518 -1.7500 -0.6066 -1.3131
  103MOL    H9039054   6.888   4.788   7.646  0.7779 -0.1399  0.0882
  103MOL    H9139055   6.751   4.692   7.440  0.3086  0.2244 -0.3135
  103MOL    H9239056   6.895   4.618   7.396  2.3718 -0.5654  2.1762
  103MOL    H9339057   7.008   4.832   7.359 -0.6421 -3.2031  1.9722
  103MOL    H9439058   6.875   4.919   7.424  0.0459  0.0450  1.1718
  103MOL    H9539059   6.856   4.488   7.620  0.1450  0.8862 -0.3991
  103MOL    H9639060   6.752   4.601   0.063  0.0539  0.3801 -0.8833
  103MOL    C9739061   6.847   4.843   7.219 -0.5113 -0.0330 -0.0414
  103MOL    C9839062   6.944   4.764   7.124  0.2867 -0.8173 -0.4020
  103MOL    C9939063   6.981   4.871   7.019  0.2721  0.0592  0.3132
  103MOL   C10039064   6.873   4.975   7.009 -0.4730  0.6086 -0.1028
  103MOL   C10139065   6.917   5.102   6.932 -0.4394  0.0902 -0.1138
  103MOL   C10239066   6.967   5.085   6.791 -0.2358 -0.0923  0.1799
  103MOL   C10339067   6.842   4.986   7.161 -0.5270 -0.4111  0.9252
  103MOL   H10439068   6.747   4.801   7.208 -0.3557 -1.1004  2.3024
  103MOL   H10539069   7.021   4.714   7.184 -0.3581 -2.2954 -0.7881
  103MOL   H10639070   6.895   4.673   7.090  2.1899 -1.4404 -1.5359
  103MOL   H10739071   7.071   4.924   7.051  0.6941  0.2228 -1.1195
  103MOL   H10839072   6.996   4.819   6.924 -1.7645  0.4947 -0.2599
  103MOL   H10939073   6.790   4.929   6.956 -0.9607 -0.9620  1.9885
  103MOL   H11039074   6.828   5.160   6.911  1.1478  2.2199 -1.1889
  103MOL   H11139075   6.985   5.162   6.993 -1.7462 -1.0482  2.5279
  103MOL   H11239076   7.031   4.997   6.794  1.1882  0.8979 -0.4992
  103MOL   H11339077   6.877   5.058   6.735 -0.6181 -2.0139  1.6500
  103MOL   H11439078   6.918   5.054   7.201 -1.0599 -0.0561  1.3421
  103MOL   H11539079   6.746   5.033   7.182 -1.4460 -0.8383 -2.0281
  103MOL   C11639080   7.025   5.216   6.738 -0.4929 -0.4515 -0.2615
  103MOL   C11739081   7.150   5.260   6.807 -0.0966 -0.5405 -0.3585
  103MOL   C11839082   7.245   5.320   6.706  0.0853  0.2850  0.0757
  103MOL   C11939083   7.166   5.336   6.577  0.5720  0.3710  0.7810
  103MOL   C12039084   7.247   5.353   6.444 -0.0272  0.2773  0.0679
  103MOL   C12139085   7.149   5.347   6.331  0.2128 -0.3521  0.3813
  103MOL   C12239086   7.070   5.218   6.592  0.1050 -0.1537 -0.1942
  103MOL   H12339087   6.944   5.288   6.747 -0.5235 -0.5621  0.3977
  103MOL   H12439088   7.195   5.177   6.860  0.1790  1.2703  2.3400
  103MOL   H12539089   7.115   5.336   6.877 -2.5386 -0.6400 -1.4108
  103MOL   H12639090   7.326   5.250   6.684  0.8274  1.2837 -0.4066
  103MOL   H12739091   7.290   5.413   6.741 -1.0822  0.6131  0.7300
  103MOL   H12839092   7.097   5.418   6.597  0.6584  0.5703  0.2839
  103MOL   H12939093   7.325   5.277   6.438  1.4365  1.9003 -1.6875
  103MOL   H13039094   7.312   5.440   6.449  2.7942 -1.7037 -1.1358
  103MOL   H13139095   7.064   5.413   6.347  1.2471  1.4873 -1.4264
  103MOL   H13239096   7.116   5.244   6.325  3.1387 -1.4321  1.8253
  103MOL   H13339097   6.990   5.221   6.517  2.3334 -1.6904 -2.7528
  103MOL   H13439098   7.122   5.126   6.563  2.1796 -0.2947  3.6639
  103MOL   C13539099   7.203   5.389   6.193 -0.4036  0.0908  0.3584
  103MOL   C13639100   7.095   5.395   6.083 -0.1185  0.3222  1.0817
  103MOL   C13739101   7.097   5.533   6.025 -0.6340 -0.9466 -0.2961
  103MOL   C13839102   7.241   5.585   6.049  0.3919  0.3692 -0.7192
  103MOL   C13939103   7.343   5.540   5.946 -0.1489 -0.8411  0.1755
  103MOL   C14039104   7.331   5.613   5.808 -0.2099 -0.0384 -0.1201
  103MOL   C14139105   7.266   5.535   6.188  0.6113  0.8592 -0.8375
  103MOL   H14239106   7.277   5.314   6.163  0.9949  1.3342  0.6345
  103MOL   H14339107   7.111   5.328   5.999 -0.6942 -0.8283  1.8667
  103MOL   H14439108   6.997   5.365   6.121 -1.1852  2.6267  0.2737
  103MOL   H14539109   7.075   5.522   5.919  0.8211  0.2465 -0.7465
  103MOL   H14639110   7.020   5.595   6.071 -0.3608 -1.0991  0.3663
  103MOL   H14739111   7.246   5.694   6.053 -2.6175  0.5377 -0.0073
  103MOL   H14839112   7.337   5.432   5.940  1.4360 -0.8421 -2.0349
  103MOL   H14939113   7.446   5.548   5.981  0.5877 -1.5250 -1.7628
  103MOL   H15039114   7.240   5.582   5.757 -0.2624  0.4230 -0.3095
  103MOL   H15139115   7.310   5.719   5.825 -0.7913 -0.1089 -0.3922
  103MOL   H15239116   7.211   5.603   6.253  1.3192  1.4546 -0.8604
  103MOL   H15339117   7.371   5.539   6.214  0.4533  0.3657 -0.1054
  103MOL   C15439118   7.451   5.582   5.712 -0.0733 -1.3486 -0.1502
  103MOL   C15539119   7.439   5.659   5.581 -0.4917  0.6776 -0.4113
  103MOL   C15639120   7.541   5.596   5.488 -0.0570 -0.6133  0.6197
  103MOL   C15739121   7.554   5.455   5.531 -0.5822  0.0701 -0.6584
  103MOL   C15839122   7.519   5.357   5.418  0.7766 -0.1914  0.5972
  103MOL   C15939123   7.528   5.205   5.441  0.4694 -0.6233 -0.3895
  103MOL   C16039124   7.462   5.440   5.657 -0.4787 -0.6821  0.7150
  103MOL   H16139125   7.539   5.603   5.773 -0.1476  0.1637 -0.5396
  103MOL   H16239126   7.337   5.642   5.545 -0.0474  0.3054 -1.5370
  103MOL   H16339127   7.451   5.767   5.589  2.2486  0.1307  5.0411
  103MOL   H16439128   7.507   5.606   5.385  1.2044 -0.1676  0.2280
  103MOL   H16539129   7.632   5.655   5.500  0.6342 -2.0235  2.6035
  103MOL   H16639130   0.011   5.449   5.561 -0.4596  2.3446 -0.5628
  103MOL   H16739131   7.578   5.384   5.331  0.2260 -3.8363 -0.9890
  103MOL   H16839132   7.416   5.377   5.389  1.0346 -0.0371 -0.2068
  103MOL   H16939133   7.577   5.179   5.535 -0.6772 -1.3314  0.0258
  103MOL   H17039134   7.427   5.164   5.444  0.1827  0.2020  2.9507
  103MOL   H17139135   7.494   5.359   5.723  0.7093 -2.2358 -1.6920
  103MOL   H17239136   7.364   5.412   5.620 -0.3575  0.7556 -0.7502
  103MOL   C17339137   7.599   5.126   5.336 -0.5748 -0.8688 -0.6012
  103MOL   C17439138   0.102   5.135   5.348 -0.0163  0.3861 -0.1138
  103MOL   C17539139   0.157   5.024   5.262  0.0122 -0.2857 -0.0766
  103MOL   C17639140   0.043   4.922   5.246 -0.5256 -0.2879  0.0408
  103MOL   C17739141   0.088   4.781   5.275  0.0235 -0.3569 -0.1367
  103MOL   C17839142   7.632   4.667   5.270 -0.5543  1.0274  0.6059
  103MOL   C17939143   7.573   4.971   5.333 -0.5922 -1.4729  0.0635
  103MOL   H18039144   7.560   5.170   5.244 -2.4928  1.7411  1.4036
  103MOL   H18139145   0.123   5.108   5.451 -0.4247 -1.2322 -0.4545
  103MOL   H18239146   0.144   5.232   5.321  1.5524 -0.3251 -0.2728
  103MOL   H18339147   0.165   5.057   5.158 -0.7172  0.2568  0.0339
  103MOL   H18439148   0.249   4.986   5.306 -0.7525  0.7588  2.5484
  103MOL   H18539149   0.020   4.910   5.140 -1.7307  0.4585  0.1986
  103MOL   H18639150   0.141   4.784   5.371  0.8702 -0.9984 -0.5798
  103MOL   H18739151   0.162   4.762   5.197 -0.0560 -1.5499  0.0708
  103MOL   H18839152   7.565   4.669   5.355 -2.1852  1.7798 -0.6692
  103MOL   H18939153   0.044   4.576   5.264 -2.2655 -0.1493  1.3137
  103MOL   H19039154   7.573   4.923   5.430  0.0445 -1.0620  0.2676
  103MOL   H19139155   7.478   4.955   5.282 -0.3367  2.2035 -1.7697
  103MOL   C19239156   7.526   4.666   5.159  0.2422 -0.4167 -0.5953
  103MOL   C19339157   7.415   4.562   5.185 -0.1489 -0.2238 -0.2641
  103MOL   C19439158   7.339   4.557   5.054  0.1157 -0.4873 -0.5609
  103MOL   C19539159   7.443   4.584   4.942 -0.0561  0.1791 -0.5252
  103MOL   C19639160   7.396   4.671   4.825 -0.6211 -0.7251 -0.4738
  103MOL   C19739161   7.475   4.655   4.694  0.2118 -0.4778  0.1312
  103MOL   C19839162   7.564   4.632   5.016 -0.9444  0.3175  0.7830
  103MOL   H19939163   7.468   4.759   5.159 -1.0250 -1.1758 -2.5853
  103MOL   H20039164   7.452   4.462   5.208 -1.1035 -0.3368  0.8255
  103MOL   H20139165   7.352   4.573   5.273  0.9689  0.6170  0.4600
  103MOL   H20239166   7.257   4.629   5.066  1.3101  0.7153  0.4719
  103MOL   H20339167   7.286   4.462   5.046 -0.9837 -0.1352  2.0807
  103MOL   H20439168   7.468   4.483   4.910  2.5512  0.1113  1.5632
  103MOL   H20539169   7.407   4.771   4.867 -0.8016 -0.8875 -0.0416
  103MOL   H20639170   7.290   4.653   4.812 -0.8087 -0.0125  0.0689
  103MOL   H20739171   7.473   4.551   4.662 -0.5954 -0.6361  0.6582
  103MOL   H20839172   7.576   4.685   4.719  0.1687 -0.8828  0.8333
  103MOL   H20939173   7.616   4.719   4.974 -0.0741 -0.3254  0.5167
  103MOL   H21039174   7.640   4.554   5.025 -0.4002  1.0023  2.3058
  103MOL   C21139175   7.427   4.742   4.578 -0.4976 -0.7989  0.4593
  103MOL   C21239176   7.496   4.727   4.433  0.2982  0.6975 -0.0998
  103MOL   C21339177   7.455   4.846   4.352  0.6683  0.2340  0.2383
  103MOL   C21439178   7.462   4.964   4.449  0.5785  0.4900  0.0913
  103MOL   C21539179   7.591   5.049   4.435  0.4865 -0.4544  0.1170
  103MOL   C21639180   7.586   5.153   4.330  0.0940  0.0853  0.3565
  103MOL   C21739181   7.450   4.894   4.591 -0.6035 -0.4219  0.3757
  103MOL   H21839182   7.321   4.723   4.564 -0.2511 -1.9917  0.1065
  103MOL   H21939183   7.603   4.705   4.441  0.1002 -0.0488  0.5387
  103MOL   H22039184   7.450   4.644   4.380  2.3993  0.2672 -1.3226
  103MOL   H22139185   7.510   4.872   4.261 -0.1051  0.6717 -0.1115
  103MOL   H22239186   7.357   4.827   4.307  1.2783  3.4603 -2.7052
  103MOL   H22339187   7.381   5.033   4.423 -0.5952 -1.1069 -0.5760
  103MOL   H22439188   0.029   4.985   4.409 -0.1188 -1.2030 -0.0284
  103MOL   H22539189   7.623   5.089   4.532  0.1947  1.1398 -0.4313
  103MOL   H22639190   7.553   5.110   4.236  0.6564  1.3376 -0.4274
  103MOL   H22739191   7.513   5.227   4.364 -1.1167 -0.7497 -0.4267
  103MOL   H22839192   7.369   4.939   4.648 -0.0509 -0.8322  1.5120
  103MOL   H22939193   7.541   4.918   4.646  0.2773  0.1903 -1.3085
  103MOL   C23039194   0.078   5.222   4.316 -0.0366 -0.3001  1.0360
  103MOL   C23139195   0.140   5.304   4.426  0.0135 -0.1527 -0.7795
  103MOL   C23239196   0.229   5.404   4.363  0.6335 -0.1020 -0.2704
  103MOL   C23339197   0.238   5.381   4.211  0.2164 -0.6244 -0.9951
  103MOL   C23439198   0.355   5.290   4.159  0.4733  0.2370 -0.2796
  103MOL   C23539199   0.481   5.370   4.141 -0.2208 -0.2242  0.0516
  103MOL   C23639200   0.102   5.313   4.188  0.2132  0.9894 -0.1746
  103MOL   H23739201   0.151   5.141   4.317 -0.0921 -0.3429  1.5780
  103MOL   H23839202   0.066   5.357   4.486  0.8118 -0.0369  0.1146
  103MOL   H23939203   0.187   5.252   4.509  2.2141  1.4057 -1.0079
  103MOL   H24039204   0.330   5.417   4.404 -0.2793 -0.4330  2.1320
  103MOL   H24139205   0.184   5.502   4.378 -3.2049 -1.6997 -0.8552
  103MOL   H24239206   0.243   5.470   4.149  1.1130 -0.1047 -0.1826
  103MOL   H24339207   0.324   5.256   4.059  0.1768 -0.0378 -0.0949
  103MOL   H24439208   0.361   5.206   4.228  0.8413 -1.2802 -2.1230
  103MOL   H24539209   0.454   5.440   4.061 -0.8310 -0.2815  0.1998
  103MOL   H24639210   0.505   5.427   4.231  0.4180 -1.0677  0.4154
  103MOL   H24739211   0.095   5.252   4.099  1.5105  0.0332  0.3579
  103MOL   H24839212   0.024   5.389   4.182  1.3409  2.2181  0.3452
  103MOL   C24939213   0.590   5.285   4.101  0.2465  0.2031  0.0030
  103MOL   C25039214   0.579   5.195   3.983  0.1593 -0.0588  0.1316
  103MOL   C25139215   0.715   5.136   3.978  0.1003  0.2948 -0.0849
  103MOL   C25239216   0.816   5.245   4.018  0.3296 -0.5159  0.0388
  103MOL   C25339217   0.930   5.193   4.100 -0.2322 -0.9578 -0.2802
  103MOL   C25439218   1.019   5.107   4.015  0.0887  0.2866  0.2792
  103MOL   C25539219   0.729   5.351   4.087 -0.5598  0.3442  0.1027
  103MOL   H25639220   0.597   5.223   4.191 -1.0768  0.5198  0.3356
  103MOL   H25739221   0.498   5.122   3.993 -0.0146  0.0407 -0.4886
  103MOL   H25839222   0.560   5.256   3.895 -1.1590 -0.9261 -0.2052
  103MOL   H25939223   0.727   5.099   3.876  1.8214 -1.0278  0.5714
  103MOL   H26039224   0.725   5.048   4.042 -2.3641  1.1765  1.6113
  103MOL   H26139225   0.851   5.281   3.922 -2.3127  2.1750  0.0192
  103MOL   H26239226   0.895   5.146   4.191 -0.6275 -2.1500 -1.0367
  103MOL   H26339227   0.988   5.282   4.123  0.9681 -2.1871  1.5296
  103MOL   H26439228   1.078   5.163   3.942  0.8350 -1.1114 -0.2194
  103MOL   H26539229   0.951   5.041   3.961  0.4151  0.1013  0.0895
  103MOL   H26639230   0.727   5.443   4.029 -0.3676  1.1115  1.3140
  103MOL   H26739231   0.763   5.378   4.186 -0.1526 -1.8385  0.5813
  103MOL   C26839232   1.118   5.020   4.104  1.0469  0.4604 -0.1302
  103MOL   C26939233   1.236   4.947   4.032  0.3104 -0.3833 -0.1248
  103MOL   C27039234   1.235   4.798   4.081  0.0908 -0.6045 -0.1188
  103MOL   C27139235   1.134   4.790   4.193  0.6565 -0.8485  0.6357
  103MOL   C27239236   1.060   4.652   4.211 -0.0675 -0.0716  0.7896
  103MOL   C27339237   0.983   4.637   4.349 -0.4044  0.3026 -0.0799
  103MOL   C27439238   1.041   4.916   4.185 -0.1153  0.3362  0.7138
  103MOL   H27539239   1.168   5.090   4.171  1.0865  0.2813  0.0248
  103MOL   H27639240   1.227   4.953   3.923 -1.2165 -2.1714 -0.1070
  103MOL   H27739241   1.336   4.976   4.065  0.1204 -0.3053  0.3871
  103MOL   H27839242   1.198   4.731   4.003 -0.6006 -1.8757  1.2822
  103MOL   H27939243   1.332   4.754   4.103  1.0676  0.8994 -1.3075
  103MOL   H28039244   1.195   4.811   4.281 -0.0415  1.3026  0.6281
  103MOL   H28139245   1.127   4.566   4.211  1.7063  1.2889  0.5215
  103MOL   H28239246   0.992   4.635   4.127  1.3927 -0.5366 -0.3159
  103MOL   H28339247   1.055   4.609   4.425 -0.0788 -0.8210 -0.7818
  103MOL   H28439248   0.932   4.730   4.375  1.0551  0.5011  2.1881
  103MOL   H28539249   0.944   4.897   4.139  0.3032  1.0173 -0.4963
  103MOL   H28639250   1.024   4.943   4.289  1.7607 -1.7512  1.5996
  103MOL   C28739251   0.882   4.520   4.351 -1.1538 -0.5357 -0.6669
  103MOL   C28839252   0.790   4.510   4.477  0.1075 -0.2927  0.3029
  103MOL   C28939253   0.652   4.487   4.425  0.4210 -0.8279  0.3432
  103MOL   C29039254   0.675   4.425   4.283  0.0238 -0.5243 -0.0760
  103MOL   C29139255   0.548   4.428   4.197 -0.5334 -0.5855  0.2566
  103MOL   C29239256   0.583   4.392   4.056 -0.0648  0.4392  0.2865
  103MOL   C29339257   0.795   4.504   4.224  0.0910 -0.1176  0.0022
  103MOL   H29439258   0.939   4.427   4.350  2.0595  1.3399  0.7336
  103MOL   H29539259   0.817   4.425   4.539  0.5025 -0.4344 -0.0685
  103MOL   H29639260   0.792   4.601   4.537  0.8362 -1.0615  1.4570
  103MOL   H29739261   0.608   4.586   4.421  2.2379 -0.0275 -0.4276
  103MOL   H29839262   0.593   4.420   4.488 -1.7468  0.9073  0.2196
  103MOL   H29939263   0.709   4.321   4.286 -0.7528 -0.7803 -0.1447
  103MOL   H30039264   0.501   4.526   4.191  0.7543  0.0790  0.8938
  103MOL   H30139265   0.471   4.365   4.242 -2.5518  1.9905  0.4965
  103MOL   H30239266   0.639   4.298   4.056 -1.2065 -0.3089 -2.3479
  103MOL   H30339267   0.642   4.472   4.012  1.9053 -0.9995  0.2259
  103MOL   H30439268   0.759   4.598   4.183  2.9824  1.0020 -0.0342
  103MOL   H30539269   0.845   4.451   4.144 -1.5575 -2.1146  0.2518
  103MOL   C30639270   0.473   4.354   3.959  0.6487  0.0930  0.0896
  103MOL   C30739271   0.387   4.475   3.926 -0.1848  0.5482  0.2989
  103MOL   C30839272   0.392   4.476   3.777 -0.1742 -0.1431 -0.4585
  103MOL   C30939273   0.425   4.335   3.731  0.1422 -0.6680  0.1088
  103MOL   C31039274   0.472   4.326   3.583 -0.5549 -0.3595  0.2561
  103MOL   C31139275   0.459   4.184   3.531  0.4028  0.6433  0.3094
  103MOL   C31239276   0.532   4.290   3.831  0.0132 -0.6072 -0.3718
  103MOL   H31339277   0.407   4.278   4.000 -0.6716  1.8593  1.3062
  103MOL   H31439278   0.293   4.446   3.972 -0.9774  0.4916 -1.3253
  103MOL   H31539279   0.419   4.571   3.968 -0.2798 -0.1188  1.9232
  103MOL   H31639280   0.298   4.513   3.736 -1.0008 -0.0366  1.4641
  103MOL   H31739281   0.471   4.539   3.734 -0.3589 -0.1774 -0.8523
  103MOL   H31839282   0.337   4.272   3.747  2.0470 -2.8836  2.2595
  103MOL   H31939283   0.415   4.404   3.534 -1.4451 -1.1921 -0.0364
  103MOL   H32039284   0.575   4.359   3.565  0.3684 -2.8386  0.7395
  103MOL   H32139285   0.355   4.152   3.543  0.4699  0.3368  0.0807
  103MOL   H32239286   0.527   4.116   3.582 -0.7773 -0.3154  0.6318
  103MOL   H32339287   0.628   4.327   3.796  0.9572 -3.4576 -0.9391
  103MOL   H32439288   0.528   4.181   3.836 -0.6325 -0.5016  2.1462
  103MOL   C32539289   0.478   4.178   3.375  0.0523  0.1505  0.1354
  103MOL   C32639290   0.512   4.042   3.313 -0.2861 -0.8486 -0.1768
  103MOL   C32739291   0.474   4.056   3.164  0.4903 -0.7830 -0.8093
  103MOL   C32839292   0.346   4.148   3.167  0.6260 -0.4453  0.1528
  103MOL   C32939293   0.344   4.241   3.034  0.5392  0.4137  0.2219
  103MOL   C33039294   0.202   4.282   2.995  0.3969 -0.0560 -0.0033
  103MOL   C33139295   0.355   4.230   3.293  0.3957 -0.1153  0.1954
  103MOL   H33239296   0.566   4.238   3.355 -1.3633  2.2649  0.0844
  103MOL   H33339297   0.471   3.955   3.365 -0.2555 -1.4493 -1.1470
  103MOL   H33439298   0.620   4.025   3.316  0.4590  2.9413 -2.2391
  103MOL   H33539299   0.554   4.109   3.112  0.3594  1.7904  1.5238
  103MOL   H33639300   0.477   3.961   3.112  0.1161 -0.3681 -1.6092
  103MOL   H33739301   0.261   4.081   3.169 -0.5789  1.0771  0.5659
  103MOL   H33839302   0.419   4.319   3.044  0.6410  0.2410  0.8301
  103MOL   H33939303   0.381   4.194   2.943  1.2731  4.1357 -1.4804
  103MOL   H34039304   0.152   4.188   2.970 -1.2057  1.0394 -1.0273
  103MOL   H34139305   0.156   4.342   3.073  1.8310 -1.1195  1.6949
  103MOL   H34239306   0.260   4.232   3.347  0.2452 -1.2712 -0.0078
  103MOL   H34339307   0.372   4.335   3.270  0.0874 -0.2787 -0.8087
  103MOL   C34439308   0.213   4.367   2.861 -0.7698  0.2185  0.1952
  103MOL   C34539309   0.309   4.493   2.874  0.6881  0.5408  0.1310
  103MOL   C34639310   0.251   4.604   2.784 -0.6796 -0.4179 -0.0236
  103MOL   C34739311   0.103   4.572   2.784  0.2083  0.2079 -0.0976
  103MOL   C34839312   0.005   4.634   2.666 -0.4645  0.1012 -0.7216
  103MOL   C34939313   0.018   4.791   2.659  0.2570  0.2800 -0.1450
  103MOL   C35039314   0.080   4.421   2.812 -0.5450 -0.2407 -0.2862
  103MOL   H35139315   0.250   4.301   2.783 -0.4480  1.2406 -0.5298
  103MOL   H35239316   0.408   4.469   2.836  1.3745  1.2605  1.4015
  103MOL   H35339317   0.301   4.540   2.972 -2.3664  1.0911 -0.3327
  103MOL   H35439318   0.271   4.707   2.815 -0.3376  0.5571 -3.3185
  103MOL   H35539319   0.290   4.603   2.683  0.7793  1.8915  0.4872
  103MOL   H35639320   0.080   4.628   2.875 -1.3929 -0.4341 -0.0993
  103MOL   H35739321   0.027   4.589   2.569 -1.9674 -0.6323 -0.7305
  103MOL   H35839322   7.557   4.586   2.689  0.7661 -1.5171  1.2632
  103MOL   H35939323   7.629   4.821   2.560 -1.9115  0.1185  0.5731
  103MOL   H36039324   0.120   4.829   2.662  0.1874  0.3423  2.5156
  103MOL   H36139325   0.005   4.407   2.890 -1.6434  2.1936 -0.8515
  103MOL   H36239326   0.063   4.365   2.720  2.4708  0.0918 -1.0955
  103MOL   C36339327   7.589   4.876   2.775 -0.4955 -0.4537 -0.4337
  103MOL   C36439328   7.444   4.853   2.796 -0.0640 -0.1657  0.8785
  103MOL   C36539329   7.384   4.974   2.865  1.3275 -0.5155  0.1734
  103MOL   C36639330   7.493   5.086   2.848 -0.0553  0.3087 -0.2704
  103MOL   C36739331   7.431   5.219   2.799  0.0850 -0.2523  0.1354
  103MOL   C36839332   7.536   5.331   2.784  0.5081  0.4579  0.1372
  103MOL   C36939333   7.604   5.027   2.759 -0.3189  0.4568 -0.3423
  103MOL   H37039334   7.637   4.851   2.870 -1.1489  0.2723  0.0859
  103MOL   H37139335   7.397   4.824   2.702 -2.0043 -1.7325  2.3043
  103MOL   H37239336   7.433   4.759   2.849  0.7173 -2.0533 -2.1917
  103MOL   H37339337   7.286   4.998   2.826  0.6840 -0.2973  1.8879
  103MOL   H37439338   7.368   4.951   2.970  1.3093  0.9990  0.5125
  103MOL   H37539339   7.534   5.082   2.949  1.7784 -2.7154 -1.0791
  103MOL   H37639340   7.387   5.208   2.700  2.8170  0.7936 -1.2725
  103MOL   H37739341   7.358   5.257   2.870 -0.0585 -0.5433  0.1385
  103MOL   H37839342   7.496   5.429   2.810 -0.8160 -0.0034 -0.1190
  103MOL   H37939343   7.560   5.332   2.678 -0.2454 -0.9671 -0.0782
  103MOL   H38039344   7.599   5.074   2.661 -0.7118 -0.2077 -0.6366
  103MOL   H38139345   0.053   5.047   2.807 -0.5287 -1.7593  1.0806
  103MOL   H38239346   7.627   5.325   2.843  0.2304  1.8351  0.7206
  104MOL     C139347   3.412   7.567   6.009  0.1637 -0.0641  0.9133
  104MOL     C239348   3.312   0.028   6.053 -0.2423  0.5741 -0.6007
  104MOL     C339349   3.235   7.605   6.175  0.3500 -0.3494 -0.8178
  104MOL     C439350   3.263   7.452   6.161  0.0332 -0.1062  0.5478
  104MOL     C539351   3.143   7.355   6.176  0.3828 -0.1719 -0.4335
  104MOL     C639352   3.180   7.205   6.172 -0.4682 -0.2044 -0.2148
  104MOL     C739353   3.332   7.443   6.024  0.5755 -0.2583  0.1892
  104MOL     H839354   3.444   7.596   5.909 -3.2947 -0.4131 -0.3486
  104MOL     H939355   3.229   0.036   5.983  0.5032  1.5722 -1.3824
  104MOL    H1039356   3.342   0.126   6.091 -2.3690  0.4208  1.6150
  104MOL    H1139357   3.283   7.629   6.270 -3.2468  1.6715  0.6128
  104MOL    H1239358   3.129   7.633   6.182  0.8120  1.4828 -0.9112
  104MOL    H1339359   3.341   7.425   6.232  1.5875  1.1144 -0.6630
  104MOL    H1439360   3.108   7.365   6.279  0.7223  0.3534 -0.3662
  104MOL    H1539361   3.060   7.371   6.108 -0.3602 -1.2392  0.2068
  104MOL    H1639362   3.249   7.171   6.250 -1.0989 -0.9997  0.0091
  104MOL    H1739363   3.086   7.158   6.201 -0.0969 -1.4432 -0.9656
  104MOL    H1839364   3.390   7.351   6.012 -0.0952 -1.0057  2.4583
  104MOL    H1939365   3.248   7.441   5.954  0.7951 -0.2351 -0.0794
  104MOL    H2039366   3.504   7.580   6.065 -0.4070  0.7290  1.6794
  104MOL    C2139367   3.222   7.136   6.037 -0.1403  0.7564  0.7318
  104MOL    C2239368   3.222   6.983   6.048 -0.3063 -0.3582  0.4515
  104MOL    C2339369   3.209   6.944   5.901  0.6388  0.6414  0.1773
  104MOL    C2439370   3.172   7.064   5.810  0.1856 -0.8017 -0.4897
  104MOL    C2539371   3.073   7.030   5.699 -0.0898 -0.0380 -0.2375
  104MOL    C2639372   3.053   7.143   5.599 -0.2882 -0.1407  0.2771
  104MOL    C2739373   3.128   7.166   5.921  0.0191 -0.3670 -0.0247
  104MOL    H2839374   3.324   7.170   6.023  0.0535 -0.1712 -0.1199
  104MOL    H2939375   3.311   6.936   6.090 -0.6943 -1.6317 -0.1163
  104MOL    H3039376   3.144   6.941   6.111  1.6676 -0.5211  2.8404
  104MOL    H3139377   3.299   6.891   5.869  0.5982  0.2674  0.6785
  104MOL    H3239378   3.131   6.868   5.901  0.6092  0.6564  1.7462
  104MOL    H3339379   3.266   7.102   5.770  1.1900 -0.9668  1.6575
  104MOL    H3439380   2.979   7.001   5.745  0.8355  1.0583  2.4296
  104MOL    H3539381   3.132   6.957   5.643  1.9633  1.8571 -0.6295
  104MOL    H3639382   3.155   7.180   5.592  0.3133 -1.9244 -0.9367
  104MOL    H3739383   2.996   7.226   5.640 -0.2301  0.1383 -0.2025
  104MOL    H3839384   3.129   7.267   5.879  0.6832 -0.3966 -0.0837
  104MOL    H3939385   3.026   7.143   5.952 -0.1114  0.9110  0.5337
  104MOL    C4039386   2.999   7.111   5.451  0.1174  0.0195 -0.2942
  104MOL    C4139387   2.980   7.230   5.354 -0.3888 -0.1016  0.0230
  104MOL    C4239388   2.945   7.163   5.222 -0.7821  0.0933 -0.5159
  104MOL    C4339389   3.032   7.036   5.218  0.1654 -0.2799  0.4585
  104MOL    C4439390   2.961   6.910   5.156  0.5974  0.0800  0.0215
  104MOL    C4539391   2.896   6.945   5.022  0.3842 -0.3284  0.3019
  104MOL    C4639392   3.083   7.015   5.365 -0.1750 -0.1783 -0.5047
  104MOL    H4739393   2.901   7.065   5.465 -0.9658  1.9841 -1.0824
  104MOL    H4839394   3.077   7.280   5.344 -0.2242 -0.4974 -0.3622
  104MOL    H4939395   2.902   7.296   5.391  0.0266 -0.4290  1.5031
  104MOL    H5039396   2.838   7.150   5.211 -1.0732  0.4397  1.8016
  104MOL    H5139397   2.978   7.232   5.144  4.5123 -0.8041  0.7368
  104MOL    H5239398   3.120   7.061   5.159  1.3024 -1.6362  1.5472
  104MOL    H5339399   3.036   6.835   5.134  0.0567 -0.3381 -0.3960
  104MOL    H5439400   2.889   6.866   5.225  1.2337 -1.6024 -0.3844
  104MOL    H5539401   2.969   6.986   4.952 -1.5016  1.9008 -0.4557
  104MOL    H5639402   2.815   7.017   5.034  0.7826 -0.1545  2.1372
  104MOL    H5739403   3.089   6.910   5.396  2.1640 -0.0145 -0.3551
  104MOL    H5839404   3.188   7.042   5.376  0.6513 -2.5774 -1.9875
  104MOL    C5939405   2.844   6.825   4.937 -0.6313  0.0109  0.4951
  104MOL    C6039406   2.726   6.756   5.018 -1.0127  0.5411 -0.2841
  104MOL    C6139407   2.604   6.762   4.936  0.8083 -0.4878  0.4352
  104MOL    C6239408   2.625   6.881   4.839 -0.6678  0.5234  0.2110
  104MOL    C6339409   2.535   6.876   4.714  0.8374 -0.9961 -0.1070
  104MOL    C6439410   2.542   7.012   4.643  0.3187 -0.6436 -0.3396
  104MOL    C6539411   2.776   6.877   4.806  0.3872  0.6688  0.2099
  104MOL    H6639412   2.917   6.748   4.910 -1.0058 -0.4514  0.7868
  104MOL    H6739413   2.746   6.657   5.058 -4.7016  0.6999  2.2188
  104MOL    H6839414   2.697   6.801   5.113  2.0451  0.4228  0.7441
  104MOL    H6939415   2.615   6.677   4.868  2.1586 -1.5999  2.0222
  104MOL    H7039416   2.511   6.755   4.991 -0.4905 -1.1123 -1.7696
  104MOL    H7139417   2.601   6.963   4.906  0.1979  1.4489 -0.6091
  104MOL    H7239418   2.439   6.867   4.765 -0.4575 -0.2308 -2.3127
  104MOL    H7339419   2.541   6.789   4.649 -0.1822 -1.3513  0.2682
  104MOL    H7439420   2.508   7.078   4.723 -0.4308 -0.3493 -0.8930
  104MOL    H7539421   2.642   7.041   4.613 -0.6218  0.8246 -2.2165
  104MOL    H7639422   2.788   6.804   4.726 -1.7208 -0.2157  0.6813
  104MOL    H7739423   2.811   6.977   4.780 -0.6387  1.7569  2.7703
  104MOL    C7839424   2.442   7.033   4.525  0.1144  0.4168  0.2903
  104MOL    C7939425   2.443   7.173   4.464 -1.2521  0.0370 -0.0707
  104MOL    C8039426   2.423   7.162   4.312 -0.3139 -0.3313  0.6586
  104MOL    C8139427   2.386   7.012   4.285  0.3299  0.0303  0.8954
  104MOL    C8239428   2.416   6.980   4.141  0.1111  0.0372  0.3337
  104MOL    C8339429   2.357   6.847   4.102  0.3761  0.4734 -0.4825
  104MOL    C8439430   2.466   6.938   4.395 -0.3151  0.5248  0.1993
  104MOL    H8539431   2.342   7.007   4.559 -0.7481  3.4880  0.2246
  104MOL    H8639432   2.380   7.245   4.517 -2.0840 -1.6057  1.1928
  104MOL    H8739433   2.541   7.214   4.487 -0.9696  0.4113 -1.8598
  104MOL    H8839434   2.354   7.244   4.289  2.2162  0.7134 -3.6456
  104MOL    H8939435   2.514   7.199   4.264 -1.8176  1.3289 -1.0102
  104MOL    H9039436   2.278   7.008   4.299 -0.1482 -1.6142 -2.8204
  104MOL    H9139437   2.524   6.981   4.125 -0.1969 -0.8292 -2.0228
  104MOL    H9239438   2.379   7.053   4.068 -2.0117  0.8740  2.1956
  104MOL    H9339439   2.285   6.810   4.176  0.3152 -0.7789 -1.1714
  104MOL    H9439440   2.438   6.775   4.101  0.4818  0.6019 -3.0040
  104MOL    H9539441   2.572   6.932   4.371 -0.6879  1.5585 -1.8332
  104MOL    H9639442   2.427   6.838   4.414 -1.2816  0.2480 -2.9262
  104MOL    C9739443   2.280   6.846   3.975 -0.2963 -0.1787  0.4826
  104MOL    C9839444   2.356   6.891   3.853  0.5557 -0.0825  0.5408
  104MOL    C9939445   2.260   6.974   3.776 -0.1871 -0.3681 -0.3537
  104MOL   C10039446   2.123   6.972   3.835  0.1340  0.2163  0.1283
  104MOL   C10139447   2.040   7.096   3.808 -0.2090 -0.1458  0.3277
  104MOL   C10239448   1.901   7.084   3.871 -0.5434  0.9798 -0.0798
  104MOL   C10339449   2.148   6.916   3.978 -1.1334 -0.3110  0.2611
  104MOL   H10439450   2.259   6.740   3.961 -2.7897  0.2033  1.0174
  104MOL   H10539451   2.446   6.951   3.867  1.0635 -0.8178  0.4217
  104MOL   H10639452   2.380   6.803   3.794 -1.8042 -1.5999  1.7334
  104MOL   H10739453   2.290   7.079   3.783  0.1409 -0.5985  2.9456
  104MOL   H10839454   2.261   6.953   3.670  2.5207  1.8980 -0.8619
  104MOL   H10939455   2.069   6.892   3.783 -1.6903  0.9490  0.8382
  104MOL   H11039456   2.093   7.185   3.843  0.5756 -1.3004  2.1587
  104MOL   H11139457   2.033   7.094   3.699  0.1863  0.4918  0.2916
  104MOL   H11239458   1.864   6.985   3.847  4.2032 -1.6302  2.6435
  104MOL   H11339459   1.910   7.076   3.979 -0.2467  1.7654 -0.0424
  104MOL   H11439460   2.166   7.000   4.045 -0.1931  0.9619 -1.5363
  104MOL   H11539461   2.062   6.854   4.005 -1.9270  0.8178  0.3577
  104MOL   C11639462   1.805   7.191   3.816  0.4015 -0.4463  0.1834
  104MOL   C11739463   1.654   7.188   3.879  0.0022  0.1396 -0.5124
  104MOL   C11839464   1.621   7.334   3.898  0.5519  0.3803  0.1506
  104MOL   C11939465   1.741   7.426   3.854 -0.5409 -0.7239  0.3031
  104MOL   C12039466   1.768   7.548   3.942  0.2119  0.7862  0.3928
  104MOL   C12139467   1.665   0.017   3.937  0.4885  0.0037 -0.5230
  104MOL   C12239468   1.859   7.333   3.832 -1.4570  0.2813  0.2104
  104MOL   H12339469   1.793   7.173   3.709  1.0881 -1.3639  0.2479
  104MOL   H12439470   1.648   7.118   3.962  0.6546  0.1297 -0.4712
  104MOL   H12539471   1.590   7.133   3.810 -0.8758 -0.0811  0.4591
  104MOL   H12639472   1.615   7.346   4.007  1.1851 -3.4070  0.6718
  104MOL   H12739473   1.527   7.366   3.853 -0.5377 -3.2169 -0.2266
  104MOL   H12839474   1.717   7.458   3.752  0.4842 -0.3160  0.1882
  104MOL   H12939475   1.871   7.581   3.924  1.0297 -0.7394  2.1663
  104MOL   H13039476   1.769   7.503   4.041  1.9520 -0.1468 -0.0280
  104MOL   H13139477   1.562   7.627   3.938  0.4236  0.1558 -1.6124
  104MOL   H13239478   1.669   0.061   3.837 -0.2800  1.8952  0.2546
  104MOL   H13339479   1.926   7.365   3.752 -0.1068  1.7344  1.8856
  104MOL   H13439480   1.920   7.334   3.922 -0.3755 -1.6049 -0.4674
  104MOL   C13539481   1.690   0.122   4.051 -0.3117  0.4219 -0.7764
  104MOL   C13639482   1.823   0.194   4.063  0.3970 -0.0054  0.2825
  104MOL   C13739483   1.794   0.305   4.165  0.3449 -0.4717 -0.4581
  104MOL   C13839484   1.661   0.358   4.116 -0.1358 -0.9273  0.0985
  104MOL   C13939485   1.576   0.415   4.226 -0.1448  0.0756 -0.0135
  104MOL   C14039486   1.634   0.550   4.278 -0.3915  0.2650  0.6858
  104MOL   C14139487   1.596   0.243   4.042  0.2614  0.2513 -0.1787
  104MOL   H14239488   1.668   0.073   4.146  0.3643  1.2878 -0.1579
  104MOL   H14339489   1.894   0.118   4.096  0.2827 -0.3555 -0.2727
  104MOL   H14439490   1.863   0.224   3.967 -3.2238  1.5141 -0.8369
  104MOL   H14539491   1.782   0.257   4.262  0.7342 -0.9815 -0.6572
  104MOL   H14639492   1.882   0.371   4.168  0.4637 -0.6723  1.0900
  104MOL   H14739493   1.687   0.441   4.050  1.8900 -2.6819 -1.3728
  104MOL   H14839494   1.574   0.347   4.311  0.3615  0.8833  0.6605
  104MOL   H14939495   1.469   0.413   4.205  0.0230 -0.8748 -0.8163
  104MOL   H15039496   1.729   0.523   4.324 -0.8918 -0.1989  1.4602
  104MOL   H15139497   1.661   0.610   4.192 -1.4904 -0.5251 -0.2339
  104MOL   H15239498   1.570   0.260   3.937 -0.7223 -0.0254  0.0166
  104MOL   H15339499   1.501   0.216   4.087  1.2494 -0.4606  1.5351
  104MOL   C15439500   1.553   0.637   4.375  0.1795 -0.1730 -0.0529
  104MOL   C15539501   1.590   0.788   4.398 -0.4589  0.3752 -0.4673
  104MOL   C15639502   1.541   0.820   4.538 -0.0657  0.4855  0.4696
  104MOL   C15739503   1.505   0.684   4.603  0.5377 -0.2116 -0.5841
  104MOL   C15839504   1.551   0.657   4.745  0.3614  0.9429 -0.6485
  104MOL   C15939505   1.485   0.533   4.811 -0.2073  0.2479  0.2993
  104MOL   C16039506   1.539   0.567   4.512  1.2322  0.2365  0.5175
  104MOL   H16139507   1.454   0.644   4.330  0.4628 -0.2246 -0.6852
  104MOL   H16239508   1.697   0.803   4.387  0.1862 -3.4570  0.1358
  104MOL   H16339509   1.560   0.867   4.329 -2.1183  1.2501  1.1901
  104MOL   H16439510   1.607   0.878   4.603  1.4366 -0.0864 -0.5202
  104MOL   H16539511   1.447   0.873   4.534 -0.3496 -0.0944 -0.7926
  104MOL   H16639512   1.396   0.687   4.596  0.5231  0.7266 -0.0476
  104MOL   H16739513   1.527   0.743   4.808 -0.3661  1.3581 -1.4829
  104MOL   H16839514   1.659   0.644   4.745  0.3336  0.6988 -0.8785
  104MOL   H16939515   1.378   0.543   4.794 -0.2099  0.7231  0.5792
  104MOL   H17039516   1.516   0.441   4.762 -0.8139  1.0394 -1.6212
  104MOL   H17139517   1.463   0.489   4.511 -0.5005  1.9032 -1.1810
  104MOL   H17239518   1.639   0.528   4.535  1.9493 -0.0247 -2.8333
  104MOL   C17339519   1.512   0.522   4.964 -0.8825  0.2333  0.0828
  104MOL   C17439520   1.445   0.635   5.048 -0.0010 -0.3297 -0.5811
  104MOL   C17539521   1.402   0.579   5.187 -0.2135 -0.6313 -0.7210
  104MOL   C17639522   1.429   0.432   5.170 -0.2521 -0.7044 -0.0307
  104MOL   C17739523   1.319   0.355   5.245  0.1038 -0.6273 -0.4798
  104MOL   C17839524   1.351   0.212   5.277 -0.6234  0.6723  0.0293
  104MOL   C17939525   1.457   0.390   5.022 -0.2862  0.4139 -0.2635
  104MOL   H18039526   1.618   0.525   4.989 -0.6877  1.5390 -0.8507
  104MOL   H18139527   1.362   0.681   4.994 -0.5522 -0.3445  0.2414
  104MOL   H18239528   1.517   0.717   5.057  0.6154 -0.5184 -3.4401
  104MOL   H18339529   1.466   0.612   5.268 -3.0113  0.4592  1.0987
  104MOL   H18439530   1.301   0.606   5.216  0.0665  2.0916 -2.1322
  104MOL   H18539531   1.522   0.409   5.222  1.9468  0.8651 -3.1592
  104MOL   H18639532   1.226   0.352   5.189 -1.2568  1.2556  1.6036
  104MOL   H18739533   1.283   0.410   5.332  1.1498  1.2831 -1.2003
  104MOL   H18839534   1.443   0.211   5.335 -1.3668  2.0026  1.2561
  104MOL   H18939535   1.360   0.149   5.188  1.4333  2.0310 -0.7579
  104MOL   H19039536   1.372   0.357   4.962 -0.3923  1.0394 -0.4573
  104MOL   H19139537   1.526   0.306   5.030 -2.1911 -1.1191  0.5079
  104MOL   C19239538   1.233   0.146   5.353 -0.6206  1.1925 -0.5173
  104MOL   C19339539   1.275   0.011   5.420 -0.0930  0.1100 -0.1082
  104MOL   C19439540   1.169   7.558   5.376  0.7439  0.5054 -0.2562
  104MOL   C19539541   1.108   7.608   5.250  0.4961  0.4106 -0.0215
  104MOL   C19639542   0.961   7.549   5.222 -0.2047 -1.1776  0.4898
  104MOL   C19739543   0.899   7.584   5.083 -0.5492  0.1336  0.0787
  104MOL   C19839544   1.109   0.109   5.272  0.3901 -0.0235 -0.2550
  104MOL   H19939545   1.205   0.223   5.424 -0.6226  0.3459  0.4080
  104MOL   H20039546   1.372   7.626   5.382 -0.8687 -1.2587 -0.9619
  104MOL   H20139547   1.291   0.024   5.527  0.0076  0.3606 -0.1534
  104MOL   H20239548   1.094   7.553   5.455  1.8468  2.4068  0.9577
  104MOL   H20339549   1.196   7.453   5.367  1.7436  0.6071  1.3716
  104MOL   H20439550   1.167   7.583   5.161  1.0921 -2.6969  1.1764
  104MOL   H20539551   0.909   7.594   5.307  1.1224  0.7307  0.3255
  104MOL   H20639552   0.955   7.442   5.240 -2.7036 -0.7985  2.0971
  104MOL   H20739553   0.965   7.541   5.007 -2.0018  1.0374 -1.7241
  104MOL   H20839554   0.908   0.043   5.060  1.3323 -0.6918 -3.3678
  104MOL   H20939555   1.018   0.147   5.318  1.3552  1.6473  0.3215
  104MOL   H21039556   1.107   0.160   5.176 -2.1939  2.5674  1.1013
  104MOL   C21139557   0.754   7.532   5.062  0.2423 -0.4930 -0.2129
  104MOL   C21239558   0.731   7.388   5.110 -0.1084  1.0924  0.5302
  104MOL   C21339559   0.600   7.356   5.037 -0.3738 -0.1612  0.3949
  104MOL   C21439560   0.579   7.447   4.917 -0.1600 -0.1002  0.1899
  104MOL   C21539561   0.575   7.373   4.780  1.3680 -0.3807  0.0610
  104MOL   C21639562   0.437   7.302   4.754  0.7891 -0.2195  0.1862
  104MOL   C21739563   0.705   7.535   4.919  0.0070 -0.6041  0.7329
  104MOL   H21839564   0.684   7.585   5.127  0.7473  0.1191 -0.1601
  104MOL   H21939565   0.816   7.335   5.065 -1.1275 -1.4619  1.5117
  104MOL   H22039566   0.734   7.379   5.219  0.0252  2.9372  0.6887
  104MOL   H22139567   0.596   7.249   5.017  2.3388  0.5392 -4.6094
  104MOL   H22239568   0.523   7.383   5.110 -0.7658  0.2638 -0.1656
  104MOL   H22339569   0.486   7.503   4.929  0.3175  0.2993  2.0812
  104MOL   H22439570   0.655   7.299   4.774  1.8040  0.1340 -0.6024
  104MOL   H22539571   0.593   7.443   4.698  1.2639 -2.0350 -1.4113
  104MOL   H22639572   0.408   7.249   4.844  0.3356 -2.4097 -1.2298
  104MOL   H22739573   0.354   7.370   4.736  1.8662  0.3826 -2.9299
  104MOL   H22839574   0.680   7.629   4.870 -0.5690 -1.1064  0.0665
  104MOL   H22939575   0.783   7.501   4.850  0.8965 -0.1478  1.4927
  104MOL   C23039576   0.425   7.192   4.646 -0.1568 -0.1865 -0.5437
  104MOL   C23139577   0.483   7.052   4.673  0.0369 -0.3502  0.8980
  104MOL   C23239578   0.500   6.989   4.541 -0.6736  0.7110  0.6304
  104MOL   C23339579   0.554   7.108   4.452  0.6213  0.1899 -0.5867
  104MOL   C23439580   0.529   7.089   4.297  0.0315  0.3172 -0.4527
  104MOL   C23539581   0.585   6.968   4.230  0.0186  0.0169  0.3193
  104MOL   C23639582   0.477   7.231   4.507  0.4980  0.1102  0.4447
  104MOL   H23739583   0.318   7.182   4.628 -0.1900  0.4784 -0.7304
  104MOL   H23839584   0.580   7.059   4.721  1.2291  3.6030 -1.7535
  104MOL   H23939585   0.409   7.001   4.734 -0.7283 -1.8658 -1.2481
  104MOL   H24039586   0.399   6.955   4.519 -0.2937 -1.1252  1.6710
  104MOL   H24139587   0.574   6.909   4.536 -2.6100 -1.1487  1.0716
  104MOL   H24239588   0.661   7.119   4.470  0.9471 -2.4841 -0.5977
  104MOL   H24339589   0.566   7.171   4.236 -1.9191  0.4437 -1.4926
  104MOL   H24439590   0.423   7.094   4.272 -0.1314  0.1525  0.1816
  104MOL   H24539591   0.691   6.965   4.254  0.6082  2.4580 -1.7400
  104MOL   H24639592   0.553   6.876   4.280 -1.4672  1.0588  1.3730
  104MOL   H24739593   0.389   7.252   4.446  0.6995 -0.2308  0.0367
  104MOL   H24839594   0.540   7.320   4.503  1.9952 -0.9758 -0.5772
  104MOL   C24939595   0.553   6.951   4.081  0.3955 -1.0842  0.4991
  104MOL   C25039596   0.630   6.837   4.016  0.4691 -0.2597 -0.2841
  104MOL   C25139597   0.548   6.796   3.894  0.4687  0.2715  0.1574
  104MOL   C25239598   0.403   6.812   3.937  0.7679  0.4261 -0.6199
  104MOL   C25339599   0.309   6.845   3.823  0.0729 -0.4226 -0.1397
  104MOL   C25439600   0.288   6.731   3.731  0.6078  0.2271  0.4454
  104MOL   C25539601   0.406   6.919   4.048  0.2213 -0.0150 -0.5870
  104MOL   H25639602   0.582   7.040   4.026  0.9514 -3.1980 -2.7684
  104MOL   H25739603   0.733   6.869   4.000  1.0557 -1.3638  1.1571
  104MOL   H25839604   0.633   6.752   4.084 -4.9549 -0.5426 -0.1899
  104MOL   H25939605   0.564   6.695   3.857  1.9999  0.4543  0.3208
  104MOL   H26039606   0.580   6.875   3.827  0.4979 -0.7602 -1.0518
  104MOL   H26139607   0.388   6.714   3.984  2.7921 -0.8684 -2.5605
  104MOL   H26239608   0.363   6.928   3.778  0.7713  0.8342  2.9076
  104MOL   H26339609   0.211   6.880   3.855  0.5714 -0.4984  1.4873
  104MOL   H26439610   0.259   6.636   3.777  0.2563  0.0204 -0.2035
  104MOL   H26539611   0.377   6.707   3.671  0.0453 -0.8924  0.0387
  104MOL   H26639612   0.367   6.874   4.139 -1.4928 -0.0074 -1.2924
  104MOL   H26739613   0.345   7.008   4.032 -0.0943 -0.1386 -0.0833
  104MOL   C26839614   0.175   6.752   3.645  0.0101 -0.1520  0.5703
  104MOL   C26939615   0.151   6.635   3.553 -0.0034  0.0723  0.0151
  104MOL   C27039616   0.040   6.688   3.460  0.2685  0.2517 -0.2855
  104MOL   C27139617   0.067   6.843   3.446  0.3394  0.6742  0.7997
  104MOL   C27239618   0.104   6.900   3.305  0.4691  0.7950 -0.6461
  104MOL   C27339619   0.002   6.880   3.196  0.0775  0.0289 -0.4248
  104MOL   C27439620   0.169   6.876   3.547 -0.2627  0.6130 -0.8057
  104MOL   H27539621   0.080   6.750   3.697  0.1162  0.3834  0.7846
  104MOL   H27639622   0.241   6.609   3.498 -0.3819 -1.3208  0.0266
  104MOL   H27739623   0.119   6.545   3.606  0.3976  0.8925  1.6766
  104MOL   H27839624   0.053   6.634   3.366 -2.3963  0.7374 -0.9718
  104MOL   H27939625   7.589   6.669   3.503 -0.0807 -1.6546 -1.8339
  104MOL   H28039626   7.617   6.887   3.471 -0.6016  0.7764 -2.7676
  104MOL   H28139627   0.193   6.844   3.274  0.6937  0.2945  0.8733
  104MOL   H28239628   0.139   7.003   3.302 -0.2312  1.0270 -0.8154
  104MOL   H28339629   7.595   6.786   3.204  0.3934 -0.2274 -1.2528
  104MOL   H28439630   7.566   6.949   3.210  0.2757  0.1572  0.1044
  104MOL   H28539631   0.265   6.903   3.502 -0.3975  1.8519 -0.3792
  104MOL   H28639632   0.135   6.968   3.594 -0.6295 -0.1866  0.5183
  104MOL   C28739633   0.069   6.897   3.054  0.5833 -0.1530 -0.4521
  104MOL   C28839634   0.134   6.766   3.000  0.0373 -0.5785  0.0167
  104MOL   C28939635   0.134   6.772   2.847  0.0448 -0.3204 -0.4589
  104MOL   C29039636   0.020   6.870   2.813 -0.8286  0.7059 -0.5770
  104MOL   C29139637   7.561   6.808   2.720 -0.3255 -0.1736  0.6825
  104MOL   C29239638   7.461   6.895   2.655  0.7937  0.6536 -0.6315
  104MOL   C29339639   7.609   6.923   2.946  0.2151  0.2473 -0.3166
  104MOL   H29439640   0.139   6.980   3.040 -0.5564  0.6511 -1.6236
  104MOL   H29539641   0.234   6.743   3.037  0.7357  2.5011  0.1910
  104MOL   H29639642   0.059   6.688   3.012  0.6252 -1.3101 -0.9726
  104MOL   H29739643   0.110   6.683   2.789 -0.7878  0.1979 -0.9325
  104MOL   H29839644   0.228   6.816   2.813  0.7050 -1.6647 -0.3828
  104MOL   H29939645   0.058   6.960   2.765 -1.3316  1.1798 -0.1063
  104MOL   H30039646   7.509   6.725   2.767  0.3264 -1.6125 -1.0527
  104MOL   H30139647   7.610   6.770   2.630  0.0206  1.7741  0.0355
  104MOL   H30239648   7.513   6.978   2.608  2.2058  0.9777  1.4320
  104MOL   H30339649   7.398   6.943   2.730 -2.4297 -3.7494 -0.3144
  104MOL   H30439650   7.521   6.863   2.966  0.1597  0.0520 -1.1377
  104MOL   H30539651   7.580   7.027   2.930 -0.4189 -0.0812 -1.2749
  104MOL   C30639652   7.375   6.817   2.549  0.5876 -0.1094 -0.1525
  104MOL   C30739653   7.270   6.726   2.594  0.4864 -0.5054  0.5117
  104MOL   C30839654   7.149   6.733   2.500  0.0128 -0.1411  0.2465
  104MOL   C30939655   7.196   6.832   2.392 -0.0470 -0.3435 -0.2551
  104MOL   C31039656   7.080   6.907   2.324  0.1825  0.6246 -0.6210
  104MOL   C31139657   7.016   6.809   2.227 -0.1412  0.7297  1.2518
  104MOL   C31239658   7.292   6.918   2.469  0.2524  0.6498 -0.2415
  104MOL   H31339659   7.445   6.760   2.488  1.0032 -0.4595  0.6540
  104MOL   H31439660   7.314   6.627   2.610  1.7375 -0.1149 -0.4198
  104MOL   H31539661   7.233   6.765   2.689 -0.5607 -1.2531  0.4154
  104MOL   H31639662   7.140   6.631   2.462 -0.9788 -0.0451  0.2181
  104MOL   H31739663   7.060   6.760   2.556 -0.7899 -3.2783  0.5633
  104MOL   H31839664   7.252   6.767   2.324 -0.1211  1.1061 -1.7334
  104MOL   H31939665   7.002   6.935   2.395 -0.1704  0.4622 -0.9373
  104MOL   H32039666   7.110   6.997   2.270 -1.1121  0.4414 -1.6801
  104MOL   H32139667   6.969   6.725   2.278  0.4471 -0.5046 -0.1972
  104MOL   H32239668   7.100   6.774   2.167  0.7099  2.5991  1.3402
  104MOL   H32339669   7.236   6.986   2.533  0.0388  0.2737 -0.0288
  104MOL   H32439670   7.358   6.979   2.408  0.7476 -0.4134 -0.7781
  104MOL   C32539671   6.910   6.874   2.138  0.4923 -0.4544 -0.1519
  104MOL   C32639672   6.945   6.956   2.015  0.0061  0.4830 -0.5681
  104MOL   C32739673   6.820   6.944   1.918 -0.1964 -0.7475 -0.3620
  104MOL   C32839674   6.780   6.799   1.933 -0.0501  0.6456 -0.0510
  104MOL   C32939675   6.622   6.773   1.898 -0.0456 -0.1655 -0.2290
  104MOL   C33039676   6.575   6.631   1.935 -0.2246  0.1013  0.3018
  104MOL   C33139677   6.827   6.758   2.072  0.2760  0.3225  0.3284
  104MOL   H33239678   6.842   6.929   2.203  0.1453 -1.2750  0.1860
  104MOL   H33339679   7.036   6.910   1.976 -0.3255  0.5442 -1.4127
  104MOL   H33439680   6.969   7.062   2.023 -2.3191  0.9125  1.5061
  104MOL   H33539681   6.744   7.013   1.954  2.3879  0.3490  3.3087
  104MOL   H33639682   6.832   6.973   1.813  1.8298  3.4025  0.9366
  104MOL   H33739683   6.831   6.752   1.849  1.8471  1.7778  0.4323
  104MOL   H33839684   6.555   6.850   1.937  0.1992  0.7630 -1.5812
  104MOL   H33939685   6.604   6.799   1.794  0.9235  2.9961  0.3365
  104MOL   H34039686   6.577   6.624   2.044 -0.3464  0.4216  0.3258
  104MOL   H34139687   6.469   6.621   1.913 -0.2073  1.9515 -0.7090
  104MOL   H34239688   6.875   6.660   2.069 -1.1359 -0.3622  0.0610
  104MOL   H34339689   6.744   6.719   2.131  1.5930 -0.8344  1.4526
  104MOL   C34439690   6.660   6.515   1.874 -0.0548  0.4928 -0.1992
  104MOL   C34539691   6.686   6.522   1.727  0.0229 -1.1301  0.2609
  104MOL   C34639692   6.667   6.389   1.660  0.3206 -0.1005 -0.0850
  104MOL   C34739693   6.567   6.319   1.748 -0.3500  0.4055  0.0687
  104MOL   C34839694   6.579   6.165   1.721 -0.1499 -0.5581 -0.3681
  104MOL   C34939695   6.487   6.066   1.800  0.2966 -0.1956 -0.1967
  104MOL   C35039696   6.598   6.374   1.887 -0.6134 -0.5833  0.7425
  104MOL   H35139697   6.756   6.515   1.925  0.0487 -0.0636 -0.3922
  104MOL   H35239698   6.789   6.553   1.707 -0.8253  0.9654 -1.0496
  104MOL   H35339699   6.614   6.594   1.686 -0.4713 -1.3923  0.6620
  104MOL   H35439700   6.618   6.394   1.563 -0.5386  0.6122  0.3794
  104MOL   H35539701   6.762   6.338   1.650  1.2453  1.4554  0.4995
  104MOL   H35639702   6.469   6.350   1.712 -0.6183 -0.6927 -0.1762
  104MOL   H35739703   6.566   6.152   1.614  1.7483 -0.0542 -0.6796
  104MOL   H35839704   6.680   6.127   1.737 -0.1347 -1.2469 -2.0152
  104MOL   H35939705   6.384   6.103   1.803  0.1844 -0.5293  0.1722
  104MOL   H36039706   6.510   6.076   1.906 -0.6626 -1.7072  0.1636
  104MOL   H36139707   6.507   6.386   1.945 -1.1281  1.6453 -0.4577
  104MOL   H36239708   6.669   6.310   1.941  0.6492  0.5908  0.4944
  104MOL   C36339709   6.508   5.923   1.762  0.2173  0.7964  0.0094
  104MOL   C36439710   6.476   5.903   1.611  0.4312  0.9799 -0.4103
  104MOL   C36539711   6.414   5.761   1.596 -0.2936 -0.1213 -0.0588
  104MOL   C36639712   6.410   5.709   1.741  0.0801  0.4999 -0.2237
  104MOL   C36739713   6.293   5.606   1.759  0.0996  0.9153  0.0190
  104MOL   C36839714   6.300   5.478   1.677  0.0866 -0.0008  0.3602
  104MOL   C36939715   6.401   5.835   1.821 -0.3701 -0.2209  0.5753
  104MOL   H37039716   6.611   5.897   1.787 -0.6025 -1.0790  1.5938
  104MOL   H37139717   6.404   5.974   1.569  0.4254  1.1726 -0.0714
  104MOL   H37239718   6.570   5.919   1.558  1.2954 -0.3605  0.6973
  104MOL   H37339719   6.313   5.772   1.556 -0.6892  0.3166  1.0276
  104MOL   H37439720   6.478   5.702   1.531  0.3323  1.2501 -0.7085
  104MOL   H37539721   6.506   5.668   1.771  0.0494  0.0141 -0.7689
  104MOL   H37639722   6.286   5.570   1.861 -1.8169  0.0053 -0.4000
  104MOL   H37739723   6.194   5.652   1.748 -1.2099 -1.9606 -0.6012
  104MOL   H37839724   6.298   5.494   1.570 -0.2793  0.8485  0.4913
  104MOL   H37939725   6.208   5.426   1.703 -0.7904  0.6384 -1.4265
  104MOL   H38039726   6.303   5.878   1.804 -0.7657 -1.5621 -0.7223
  104MOL   H38139727   6.422   5.812   1.925 -2.0612 -2.4968  0.4630
  104MOL   H38239728   6.386   5.418   1.708  0.7369  1.3993  1.3574
  105MOL     C139729   5.202   7.391   6.823 -0.1508 -0.6834  0.0866
  105MOL     C239730   5.254   7.533   6.870 -0.6176  0.4071  0.5379
  105MOL     C339731   5.165   7.583   6.984  0.7441  0.0887 -0.9838
  105MOL     C439732   5.046   7.483   6.994 -0.5002  0.7291 -0.5733
  105MOL     C539733   4.908   7.541   7.028 -0.5105  0.0590  0.3835
  105MOL     C639734   4.900   7.597   7.166 -0.0388  0.4151  1.1820
  105MOL     C739735   5.054   7.398   6.866 -0.1523 -0.1811  0.0243
  105MOL     H839736   5.218   7.364   6.718 -0.1902 -0.7578  0.1006
  105MOL     H939737   5.249   7.589   6.776  0.2036 -1.7868 -0.8403
  105MOL    H1039738   5.362   7.527   6.888 -0.8100 -0.7058  1.3269
  105MOL    H1139739   5.220   7.578   7.078 -0.0882 -0.1112 -0.5011
  105MOL    H1239740   5.121   0.035   6.979  0.3400  0.1010  1.8451
  105MOL    H1339741   5.066   7.420   7.081 -4.5724  0.2957  0.1436
  105MOL    H1439742   4.881   7.615   6.953  0.0368 -1.2750 -1.1472
  105MOL    H1539743   4.831   7.465   7.018 -1.5625  0.8297  2.3568
  105MOL    H1639744   4.902   7.504   7.223 -0.0083 -1.0554 -1.1683
  105MOL    H1739745   4.982   0.016   7.193 -0.5928  1.8316 -0.5281
  105MOL    H1839746   5.005   7.301   6.868  1.8601 -1.2669 -1.2970
  105MOL    H1939747   4.993   7.452   6.793 -1.8617  0.2589  1.7307
  105MOL    H2039748   5.254   7.318   6.883 -1.0291 -0.6745  0.8739
  105MOL    C2139749   4.770   0.027   7.195  0.4593 -0.7849  0.4421
  105MOL    C2239750   4.652   7.578   7.204 -0.1672 -0.0453 -0.0081
  105MOL    C2339751   4.543   0.014   7.272  0.7992  0.3212  0.0833
  105MOL    C2439752   4.613   0.138   7.335  0.0056 -0.1909 -0.1275
  105MOL    C2539753   4.573   0.182   7.479  0.4386 -0.1414  0.0302
  105MOL    C2639754   4.431   0.245   7.488 -0.0991  0.5181 -0.0774
  105MOL    C2739755   4.763   0.108   7.325  0.5317  0.0429 -0.3959
  105MOL    H2839756   4.751   0.105   7.122  1.8929 -1.5692 -0.8081
  105MOL    H2939757   4.619   7.547   7.106 -2.0873  0.5894  0.4300
  105MOL    H3039758   4.680   7.486   7.257 -2.1740  0.2637  1.6420
  105MOL    H3139759   4.476   0.053   7.196  1.1280  1.9937  0.6333
  105MOL    H3239760   4.479   7.609   7.343  1.3255 -2.2109 -1.2509
  105MOL    H3339761   4.595   0.223   7.268 -3.7676 -1.4294 -0.8372
  105MOL    H3439762   4.647   0.242   7.532  1.5932  0.7917 -2.5564
  105MOL    H3539763   4.586   0.093   7.542 -0.2758  0.6957  1.3930
  105MOL    H3639764   4.363   0.166   7.458  0.2993  0.5613 -1.1163
  105MOL    H3739765   4.430   0.323   7.412 -1.1093  0.1848 -0.4086
  105MOL    H3839766   4.822   0.199   7.315 -0.2799  0.6869  0.5568
  105MOL    H3939767   4.795   0.046   7.409  2.9230  1.9919  0.1873
  105MOL    C4039768   4.400   0.321   7.623  0.3333  0.2464  0.4495
  105MOL    C4139769   4.254   0.379   7.626 -1.1470  0.4208  0.0396
  105MOL    C4239770   4.240   0.388   0.133  0.0746  0.5661  0.3087
  105MOL    C4339771   4.302   0.261   0.192 -0.3028 -0.3618 -0.2598
  105MOL    C4439772   4.345   0.285   0.335 -0.3848 -0.1922 -0.3162
  105MOL    C4539773   4.223   0.319   0.426  0.1012  0.0708 -0.1508
  105MOL    C4639774   4.414   0.230   0.097  0.0860 -0.2426 -0.7380
  105MOL    H4739775   4.466   0.408   7.624  1.3288 -0.5065  0.6910
  105MOL    H4839776   4.181   0.320   7.573 -0.8909  0.4855 -0.3850
  105MOL    H4939777   4.246   0.479   7.584 -1.0487  1.3039  2.0430
  105MOL    H5039778   4.295   0.475   0.166  0.3489  0.6738 -0.4289
  105MOL    H5139779   4.135   0.401   0.160 -0.4723  0.4689 -1.6580
  105MOL    H5239780   4.230   0.180   0.207 -1.7367  0.8873 -0.3064
  105MOL    H5339781   4.402   0.194   0.352 -0.2416  0.1964  1.4536
  105MOL    H5439782   4.420   0.365   0.328  0.3639 -0.9178 -0.6838
  105MOL    H5539783   4.228   0.255   0.515 -0.1904  0.7693  0.3724
  105MOL    H5639784   4.133   0.280   0.378  1.3484 -0.4817 -2.1211
  105MOL    H5739785   4.516   0.241   0.135  0.2281  3.5034 -1.9621
  105MOL    H5839786   4.400   0.125   0.070  2.6131 -0.6617 -0.5316
  105MOL    C5939787   4.208   0.458   0.492  1.3580  0.0712 -0.0809
  105MOL    C6039788   4.075   0.490   0.557  0.1889  0.0390  0.1925
  105MOL    C6139789   4.124   0.616   0.631 -0.0188 -0.0504  0.7857
  105MOL    C6239790   4.249   0.566   0.704 -0.2789 -0.8101 -0.8998
  105MOL    C6339791   4.333   0.685   0.759  0.5139 -0.0831  0.5361
  105MOL    C6439792   4.262   0.777   0.864  0.0219  0.3220  0.6724
  105MOL    C6539793   4.319   0.480   0.601  0.0682  0.3587 -0.4953
  105MOL    H6639794   4.217   0.529   0.410 -1.9170 -1.0832 -1.5474
  105MOL    H6739795   3.996   0.510   0.486 -0.4226 -1.1738  0.5153
  105MOL    H6839796   4.040   0.410   0.622  1.5152 -1.0722 -0.4164
  105MOL    H6939797   4.147   0.700   0.565  2.9965 -1.3004  0.1444
  105MOL    H7039798   4.051   0.657   0.700  1.0874  0.1233  1.8816
  105MOL    H7139799   4.220   0.508   0.792  0.5559  1.2097  0.7368
  105MOL    H7239800   4.358   0.746   0.672  0.4920  1.5494  1.6515
  105MOL    H7339801   4.427   0.644   0.796  0.8156  0.8186  0.7810
  105MOL    H7439802   4.170   0.811   0.817 -0.4666 -0.0373  1.3736
  105MOL    H7539803   4.229   0.713   0.945 -1.9925 -2.0906 -1.9658
  105MOL    H7639804   4.404   0.534   0.559  1.2061  1.2888  2.8260
  105MOL    H7739805   4.365   0.394   0.649 -2.9709 -0.6415  0.6807
  105MOL    C7839806   4.342   0.894   0.918  0.3627  0.3768  0.0128
  105MOL    C7939807   4.283   0.979   1.039  0.2425 -0.3588  0.2462
  105MOL    C8039808   4.397   0.993   1.142  0.5542 -0.2100  0.0536
  105MOL    C8139809   4.526   0.965   1.069  0.3833 -0.3173  0.3953
  105MOL    C8239810   4.651   0.927   1.147 -0.1284  0.2746  0.0019
  105MOL    C8339811   4.779   0.943   1.064  0.7348 -0.1233 -0.3205
  105MOL    C8439812   4.484   0.856   0.970  0.0266 -0.1426 -0.2872
  105MOL    H8539813   4.361   0.962   0.835  1.5404 -2.3794 -2.0599
  105MOL    H8639814   4.257   1.077   1.000 -0.4239 -0.4366  0.4964
  105MOL    H8739815   4.210   0.922   1.095 -0.7354  0.7505  0.1210
  105MOL    H8839816   4.399   1.094   1.182 -1.2545 -0.4827  0.8661
  105MOL    H8939817   4.380   0.930   1.230  0.4831 -2.6776 -1.6902
  105MOL    H9039818   4.555   1.047   1.004  1.3860 -0.0451  1.1818
  105MOL    H9139819   4.640   0.825   1.185 -1.7796  0.3278 -0.2976
  105MOL    H9239820   4.663   0.990   1.235  1.5338  2.5992 -1.8520
  105MOL    H9339821   4.788   1.042   1.018  0.8472  0.2169  0.4334
  105MOL    H9439822   4.777   0.867   0.986 -2.5051 -1.7401  1.2309
  105MOL    H9539823   4.478   0.759   1.019  0.1961 -0.2715 -0.5187
  105MOL    H9639824   4.552   0.843   0.886 -0.6605 -1.8517 -0.6052
  105MOL    C9739825   4.909   0.930   1.144  0.1663 -0.1400 -0.6472
  105MOL    C9839826   5.038   0.984   1.082  0.4260 -0.6932 -0.2401
  105MOL    C9939827   5.142   0.893   1.132 -0.3876  0.2059  0.2456
  105MOL   C10039828   5.093   0.796   1.229  0.1579  0.1230  0.4888
  105MOL   C10139829   5.188   0.678   1.247  0.0140 -0.0412 -0.3294
  105MOL   C10239830   5.320   0.709   1.312 -0.8778  0.5712 -0.4377
  105MOL   C10339831   4.949   0.784   1.186 -0.6390 -0.0293  0.4035
  105MOL   H10439832   4.900   0.980   1.240 -0.3128 -0.1406 -0.6888
  105MOL   H10539833   5.041   0.996   0.974  1.5342 -0.6395 -0.2003
  105MOL   H10639834   5.051   1.085   1.119 -1.5257 -0.3554 -0.3829
  105MOL   H10739835   5.177   0.842   1.043 -1.7175 -0.3151  0.0174
  105MOL   H10839836   5.220   0.963   1.165  1.0338 -2.0535  1.7648
  105MOL   H10939837   5.086   0.842   1.327  0.6064  1.9302 -0.3108
  105MOL   H11039838   5.126   0.602   1.296 -3.3881  1.2241 -2.4765
  105MOL   H11139839   5.220   0.641   1.150 -1.4280 -2.1777 -0.0406
  105MOL   H11239840   5.372   0.768   1.236  0.8060 -0.5861 -0.2074
  105MOL   H11339841   5.315   0.766   1.405 -3.0767 -0.8218  0.3343
  105MOL   H11439842   4.940   0.724   1.095 -1.6375 -0.1129  0.5514
  105MOL   H11539843   4.896   0.730   1.265 -0.1189 -0.4755  0.4528
  105MOL   C11639844   5.407   0.582   1.334  0.0995 -0.5059  0.0566
  105MOL   C11739845   5.531   0.594   1.411 -0.2682  0.3762  0.1238
  105MOL   C11839846   5.558   0.457   1.485 -0.4508 -0.2622 -0.2217
  105MOL   C11939847   5.443   0.363   1.447  0.2551 -0.0083 -0.7364
  105MOL   C12039848   5.399   0.271   1.561 -0.7188  0.8548 -0.3865
  105MOL   C12139849   5.272   0.182   1.536  0.2057  0.3188 -0.2792
  105MOL   C12239850   5.341   0.461   1.403 -0.4271  0.2621 -0.2111
  105MOL   H12339851   5.425   0.543   1.233 -0.7131  1.0267 -0.7020
  105MOL   H12439852   5.535   0.681   1.476  1.7503  0.4900 -0.1107
  105MOL   H12539853   5.612   0.607   1.339 -0.7372 -0.3099 -0.5363
  105MOL   H12639854   5.571   0.467   1.593  0.3639 -0.8630 -0.2598
  105MOL   H12739855   5.656   0.426   1.449  0.2264  0.6983  0.7802
  105MOL   H12839856   5.470   0.300   1.362  1.8901 -1.9761  1.1956
  105MOL   H12939857   5.380   0.335   1.647 -1.2205  0.0351  0.1244
  105MOL   H13039858   5.485   0.213   1.595 -1.1692 -0.2778 -1.1358
  105MOL   H13139859   5.300   0.114   1.455 -1.0783  0.1614 -0.6057
  105MOL   H13239860   5.188   0.243   1.504 -1.1208 -0.8289  0.9422
  105MOL   H13339861   5.270   0.407   1.340  0.2368 -0.8900  0.0089
  105MOL   H13439862   5.281   0.491   1.489 -1.0187 -1.3997 -0.0347
  105MOL   C13539863   5.240   0.097   1.659  0.2531  0.5254 -0.8930
  105MOL   C13639864   5.193   0.183   1.773  0.3383  0.1224 -0.0174
  105MOL   C13739865   5.050   0.138   1.805  0.6184  1.1713  0.3952
  105MOL   C13839866   4.997   0.053   1.689  0.3714  0.0415 -0.0745
  105MOL   C13939867   4.890   7.597   1.723 -0.6619  0.2600 -0.2561
  105MOL   C14039868   4.800   7.558   1.607 -0.4477 -0.1923 -0.3844
  105MOL   C14139869   5.126   7.641   1.626  0.6156 -0.0876 -0.1517
  105MOL   H14239870   5.329   0.043   1.689 -0.4560  0.4146  1.0404
  105MOL   H14339871   5.251   0.158   1.862  0.0559  3.2489  1.1222
  105MOL   H14439872   5.209   0.290   1.761 -0.7084  0.2349 -0.4937
  105MOL   H14539873   5.059   0.071   1.891  1.3579 -1.2861 -1.5543
  105MOL   H14639874   4.981   0.220   1.825 -0.1354  0.8564 -0.8952
  105MOL   H14739875   4.964   0.124   1.613  2.5452 -1.9047 -2.9783
  105MOL   H14839876   4.832   0.000   1.800  2.4129  1.7098  1.1851
  105MOL   H14939877   4.930   7.508   1.772 -2.3212  0.0413  0.7384
  105MOL   H15039878   4.726   7.631   1.576 -0.0531  0.6718  0.6922
  105MOL   H15139879   4.858   7.544   1.515 -2.0264 -0.8938 -1.2918
  105MOL   H15239880   5.105   7.621   1.521  0.9531 -1.5353  0.0493
  105MOL   H15339881   5.139   7.543   1.672 -1.2493 -0.0002  0.5969
  105MOL   C15439882   4.734   7.424   1.636  0.8724  0.3208  0.0494
  105MOL   C15539883   4.669   7.367   1.510  0.7702  0.1119  0.4754
  105MOL   C15639884   4.549   7.289   1.557  0.6434 -0.6240 -0.2109
  105MOL   C15739885   4.533   7.314   1.713 -0.3039  0.2725 -0.3763
  105MOL   C15839886   4.384   7.330   1.746 -0.1351  0.9743 -0.0188
  105MOL   C15939887   4.366   7.312   1.895  0.2854  0.2931  1.2054
  105MOL   C16039888   4.627   7.433   1.742  0.4899 -0.0736  0.4241
  105MOL   H16139889   4.815   7.355   1.663  0.7411  0.0162 -0.3338
  105MOL   H16239890   4.644   7.449   1.443  0.2458 -1.6135 -1.5075
  105MOL   H16339891   4.740   7.311   1.449 -0.5103 -0.2755 -0.6689
  105MOL   H16439892   4.456   7.315   1.506  1.1626  0.3603 -0.6830
  105MOL   H16539893   4.570   7.183   1.546  3.2495 -0.0401 -1.0444
  105MOL   H16639894   4.561   7.217   1.756 -1.2636 -0.7569 -2.0156
  105MOL   H16739895   4.318   7.254   1.705  1.9473 -1.1061  0.3704
  105MOL   H16839896   4.354   7.430   1.713 -0.1899 -0.0003 -3.0433
  105MOL   H16939897   4.391   7.208   1.917  0.4270 -0.0608 -0.5609
  105MOL   H17039898   4.436   7.382   1.943  1.6471 -0.7454  0.7562
  105MOL   H17139899   4.672   7.428   1.841 -1.6926 -1.0908  1.4172
  105MOL   H17239900   4.574   7.526   1.721  1.5888  0.6098  0.6866
  105MOL   C17339901   4.220   7.343   1.942  0.0970  0.1780  0.1269
  105MOL   C17439902   4.119   7.234   1.890 -0.6024  0.0627  0.6089
  105MOL   C17539903   4.069   7.162   2.015  0.0057  0.2276 -1.4070
  105MOL   C17639904   4.076   7.275   2.126  0.5074  0.1654  0.4962
  105MOL   C17739905   4.052   7.233   2.271  0.1801  0.2688  0.1453
  105MOL   C17839906   4.063   7.347   2.367 -0.6809 -0.4798  0.2063
  105MOL   C17939907   4.210   7.343   2.097  0.2609 -0.5033  0.1843
  105MOL   H18039908   4.186   7.444   1.916 -0.7953 -0.4542 -1.1761
  105MOL   H18139909   4.163   7.165   1.817 -2.9932 -3.3478  2.2449
  105MOL   H18239910   4.035   7.280   1.838  0.6962  1.5292 -0.2304
  105MOL   H18339911   3.972   7.114   2.006 -0.8107  0.8949  2.7850
  105MOL   H18439912   4.144   7.087   2.039  1.0775  1.5725 -0.4079
  105MOL   H18539913   4.007   7.356   2.104  1.5336  0.7277 -0.7028
  105MOL   H18639914   4.122   7.151   2.290 -0.2477 -0.7613 -2.5543
  105MOL   H18739915   3.956   7.182   2.280 -1.2689  3.1120  1.5270
  105MOL   H18839916   4.005   7.428   2.322 -1.6600 -1.2398  0.0762
  105MOL   H18939917   4.167   7.379   2.374 -0.9484 -0.2807  4.3351
  105MOL   H19039918   4.286   7.291   2.154 -0.7200  0.2521  2.2333
  105MOL   H19139919   4.214   7.443   2.140  0.2221 -0.9967  1.3372
  105MOL   C19239920   4.017   7.326   2.513 -0.0887  0.8073 -0.0164
  105MOL   C19339921   3.998   7.453   2.601  0.6249 -0.6167  0.4914
  105MOL   C19439922   4.002   7.400   2.745  0.0447 -0.4544  0.4721
  105MOL   C19539923   4.110   7.293   2.744  0.1213 -0.2624 -0.5554
  105MOL   C19639924   4.079   7.184   2.841 -0.4698 -0.1387 -0.6477
  105MOL   C19739925   4.105   7.233   2.989  0.2646 -0.3933  0.1752
  105MOL   C19839926   4.106   7.233   2.601  0.1853 -0.2465  0.5383
  105MOL   H19939927   3.917   7.284   2.507  0.0201  0.5660 -0.1081
  105MOL   H20039928   4.088   7.511   2.577  0.5597 -0.9012 -0.4880
  105MOL   H20139929   3.912   7.515   2.576  0.9334  0.7623  2.7627
  105MOL   H20239930   3.909   7.353   2.773  0.8826 -0.7086  2.8998
  105MOL   H20339931   4.016   7.482   2.816  1.0985  0.6447 -0.9346
  105MOL   H20439932   4.208   7.339   2.755  0.1418 -0.5121  0.3838
  105MOL   H20539933   4.157   7.109   2.824  1.4064  1.6873 -0.2830
  105MOL   H20639934   3.979   7.148   2.818 -1.3756  0.4673  2.1822
  105MOL   H20739935   4.040   7.319   3.005 -0.2160 -0.4324 -1.4579
  105MOL   H20839936   4.205   7.275   3.003 -1.3073  3.4354  0.4350
  105MOL   H20939937   4.088   7.126   2.590 -1.8485  0.3707 -2.7021
  105MOL   H21039938   4.212   7.240   2.574  1.4366 -3.9679  3.8729
  105MOL   C21139939   4.084   7.126   3.097 -0.5958  0.5453 -0.4025
  105MOL   C21239940   3.940   7.106   3.124  0.0986 -0.6860  0.6532
  105MOL   C21339941   3.916   7.157   3.270 -0.2036 -0.1842  0.4173
  105MOL   C21439942   4.046   7.110   3.339 -0.4150 -0.0069  0.3201
  105MOL   C21539943   4.064   7.167   3.481 -0.8303 -0.1366 -0.3379
  105MOL   C21639944   4.183   7.116   3.559  0.0353 -0.4401  0.5212
  105MOL   C21739945   4.149   7.158   3.231 -0.4111  0.0941  0.1869
  105MOL   H21839946   4.118   7.033   3.053 -1.4756  0.1560 -0.2608
  105MOL   H21939947   3.884   7.177   3.063  0.0973 -1.1225  0.1471
  105MOL   H22039948   3.909   7.002   3.116  0.8715 -1.0622  2.2967
  105MOL   H22139949   3.917   7.266   3.273  0.2078 -0.1431 -0.7193
  105MOL   H22239950   3.836   7.113   3.329  0.9701 -1.8054  0.8283
  105MOL   H22339951   4.040   7.002   3.348 -1.5048 -0.1933 -2.1353
  105MOL   H22439952   3.969   7.155   3.535 -0.5280 -2.5969 -0.3167
  105MOL   H22539953   4.079   7.274   3.465 -0.5704  0.0675  1.1534
  105MOL   H22639954   4.268   7.139   3.495  0.0088  1.4745  1.1218
  105MOL   H22739955   4.208   7.190   3.635  0.0674  1.0216 -0.8862
  105MOL   H22839956   4.243   7.107   3.248 -1.1448 -2.0258 -1.8497
  105MOL   H22939957   4.160   7.266   3.234  0.2567  0.0339 -0.1204
  105MOL   C23039958   4.165   6.965   3.600 -0.4167 -0.4522 -0.0794
  105MOL   C23139959   4.244   6.919   3.720  0.4018  0.0040 -0.2575
  105MOL   C23239960   4.271   6.775   3.696 -0.2899  0.7844 -0.8909
  105MOL   C23339961   4.303   6.767   3.546  0.4204  0.0594 -0.0013
  105MOL   C23439962   4.303   6.621   3.497 -0.0757 -0.0907 -0.5117
  105MOL   C23539963   4.379   6.584   3.367 -0.1249 -0.2785  0.0829
  105MOL   C23639964   4.201   6.861   3.488  0.2826  0.0636 -0.0559
  105MOL   H23739965   4.065   6.943   3.637 -0.7535  0.4247 -0.4428
  105MOL   H23839966   4.345   6.961   3.714  0.6851 -0.7810 -1.1330
  105MOL   H23939967   4.196   6.957   3.810  0.9574  1.0787 -0.3959
  105MOL   H24039968   4.181   6.720   3.724  0.0536 -0.0322 -1.3798
  105MOL   H24139969   4.339   6.736   3.772 -1.8125 -3.3004 -1.4733
  105MOL   H24239970   4.404   6.806   3.533  0.2937  0.8330  1.2672
  105MOL   H24339971   4.203   6.579   3.494  0.0523 -0.5356  1.0963
  105MOL   H24439972   4.354   6.570   3.579 -0.5268 -2.9549 -1.9535
  105MOL   H24539973   4.486   6.601   3.376  0.4195 -1.9670 -2.6890
  105MOL   H24639974   4.363   6.477   3.357 -1.7095  0.1261 -2.1138
  105MOL   H24739975   4.115   6.806   3.450  0.3822 -0.9426  1.1565
  105MOL   H24839976   4.246   6.922   3.409 -0.8637  0.5910 -0.3163
  105MOL   C24939977   4.325   6.651   3.240 -0.3731  0.1452 -0.0167
  105MOL   C25039978   4.397   6.606   3.109  0.2601 -0.4559 -0.1798
  105MOL   C25139979   4.300   6.650   2.998 -0.0430  0.0864  0.6310
  105MOL   C25239980   4.151   6.623   3.063  0.1224  0.3870 -0.2126
  105MOL   C25339981   4.053   6.731   3.017 -0.6645  0.1240  0.6619
  105MOL   C25439982   4.032   6.717   2.863 -0.3655  0.1550  0.0078
  105MOL   C25539983   4.181   6.618   3.215  0.5945  0.6982 -0.3084
  105MOL   H25639984   4.329   6.760   3.246  0.7010  0.0984  0.0790
  105MOL   H25739985   4.496   6.652   3.106  0.6498 -1.2201  0.7183
  105MOL   H25839986   4.414   6.498   3.107  0.4946 -0.3976 -1.6020
  105MOL   H25939987   4.326   6.604   2.902  0.1713  2.5639 -0.5179
  105MOL   H26039988   4.322   6.756   2.997 -0.0217  0.1351  3.2723
  105MOL   H26139989   4.112   6.527   3.031 -0.8871 -0.0115  2.1353
  105MOL   H26239990   4.090   6.831   3.036 -0.4647 -0.2597  2.3533
  105MOL   H26339991   3.962   6.710   3.073 -0.1591  0.3180  1.5582
  105MOL   H26439992   4.015   6.618   2.822  1.6692 -0.6741  1.1081
  105MOL   H26539993   4.119   6.753   2.808 -0.5692  1.7384  0.6745
  105MOL   H26639994   4.152   6.520   3.252 -0.9928  0.2158 -2.7097
  105MOL   H26739995   4.116   6.683   3.275 -1.2936 -0.1005 -1.4237
  105MOL   C26839996   3.903   6.801   2.833  0.1042  0.5903  0.3569
  105MOL   C26939997   3.771   6.725   2.867  0.0821 -0.3095 -0.1022
  105MOL   C27039998   3.678   6.771   2.757 -0.7262  0.2932  0.4981
  105MOL   C27139999   3.735   6.876   2.671 -0.1406  0.8559 -0.0122
  105MOL   C27240000   3.680   6.872   2.531  0.0490  0.4322  0.2442
  105MOL   C27340001   3.716   6.991   2.446  0.2700 -0.0274  0.4616
  105MOL   C27440002   3.886   6.846   2.686  0.1694  0.3663 -0.0948
  105MOL   H27540003   3.915   6.892   2.891 -2.6980  1.2880 -0.0990
  105MOL   H27640004   3.778   6.617   2.866  1.0329 -0.2610  0.5621
  105MOL   H27740005   3.740   6.755   2.967 -0.9143 -0.9469 -0.2136
  105MOL   H27840006   3.656   6.688   2.690 -1.4288  0.3190  0.6879
  105MOL   H27940007   3.582   6.806   2.796 -0.6445 -0.4122  1.3240
  105MOL   H28040008   3.708   6.972   2.716  1.6230  1.3292  0.0637
  105MOL   H28140009   3.571   6.872   2.536 -0.0075  2.9481 -0.4258
  105MOL   H28240010   3.703   6.777   2.482  0.1654  2.3864 -3.6888
  105MOL   H28340011   3.696   7.072   2.516  0.0897  0.2495  0.0878
  105MOL   H28440012   3.820   7.008   2.420  0.4407 -0.3967  0.8909
  105MOL   H28540013   3.903   6.757   2.625 -0.4492  0.5947 -0.5991
  105MOL   H28640014   3.953   6.923   2.649 -0.4499  1.3552  0.7969
  105MOL   C28740015   3.620   7.000   2.322 -0.2341 -0.0849 -0.2527
  105MOL   C28840016   3.622   7.150   2.268  0.1582  0.3367 -0.3112
  105MOL   C28940017   3.608   7.143   2.114  0.3151 -0.3299 -0.3496
  105MOL   C29040018   3.622   6.997   2.083 -0.2932  0.4838  0.4167
  105MOL   C29140019   3.694   6.957   1.945 -0.3008  0.0874 -0.8432
  105MOL   C29240020   3.696   6.808   1.904 -0.0450  0.2799  0.0275
  105MOL   C29340021   3.689   6.933   2.203  0.6719  0.0920 -0.3388
  105MOL   H29440022   3.518   6.966   2.342 -0.0117 -1.3107 -1.1986
  105MOL   H29540023   3.547   7.208   2.322 -0.2175  0.6220 -1.1367
  105MOL   H29640024   3.719   7.191   2.296 -0.2293  0.3127  1.1448
  105MOL   H29740025   3.684   7.207   2.069  1.3048 -0.1426  1.5442
  105MOL   H29840026   3.515   7.186   2.079  0.7827  1.2448  0.3031
  105MOL   H29940027   3.519   6.969   2.062 -0.6766  0.5080  2.1650
  105MOL   H30040028   3.798   6.986   1.953  0.0532 -1.0432 -1.2983
  105MOL   H30140029   3.653   7.028   1.873  2.4976  0.5881 -1.9865
  105MOL   H30240030   3.743   6.755   1.987  2.6707 -1.5835 -2.5818
  105MOL   H30340031   3.771   6.779   1.831 -1.1742 -0.8702 -0.6980
  105MOL   H30440032   3.798   6.946   2.207  0.6400  0.0579  0.8342
  105MOL   H30540033   3.678   6.825   2.205  0.1276  0.1613  0.5199
  105MOL   C30640034   3.564   6.733   1.875  0.3888  0.1954 -0.2441
  105MOL   C30740035   3.501   6.769   1.732 -0.4721 -0.0884 -0.2936
  105MOL   C30840036   3.516   6.650   1.648  0.2254 -0.5533  0.0725
  105MOL   C30940037   3.497   6.538   1.755 -0.2592  0.4850 -0.0229
  105MOL   C31040038   3.523   6.402   1.693  0.9802 -0.0037  0.4062
  105MOL   C31140039   3.492   6.285   1.785  0.5248 -0.4000 -0.2759
  105MOL   C31240040   3.577   6.582   1.878  0.5715 -0.3802 -1.0947
  105MOL   H31340041   3.487   6.756   1.948 -2.0123 -0.9077 -2.3618
  105MOL   H31440042   3.394   6.786   1.737 -0.5347 -0.0858 -1.5476
  105MOL   H31540043   3.546   6.862   1.696  0.0138 -0.5456 -0.8847
  105MOL   H31640044   3.431   6.654   1.579  0.4781 -2.7409 -0.4265
  105MOL   H31740045   3.615   6.635   1.606 -0.1536 -0.9982 -0.6780
  105MOL   H31840046   3.393   6.540   1.787 -0.4906  0.6161 -0.7687
  105MOL   H31940047   3.464   6.385   1.603 -0.4943  0.6951  1.2262
  105MOL   H32040048   3.629   6.392   1.670  0.7723  0.6285 -0.8375
  105MOL   H32140049   3.391   6.317   1.812  1.3052  1.9989 -0.1044
  105MOL   H32240050   3.565   6.287   1.866 -1.0301  0.2069  1.1461
  105MOL   H32340051   3.680   6.555   1.852  2.2693  1.0921  3.4988
  105MOL   H32440052   3.560   6.539   1.977 -0.7109 -1.0036 -1.5770
  105MOL   C32540053   3.498   6.151   1.711  0.4863 -0.0348  0.1544
  105MOL   C32640054   3.643   6.109   1.661  0.1145  0.4315  0.1162
  105MOL   C32740055   3.631   5.965   1.613 -0.7277 -0.2995  0.6959
  105MOL   C32840056   3.529   5.903   1.718  0.0411 -0.2438 -0.3474
  105MOL   C32940057   3.430   5.807   1.648 -0.1794  0.0639 -0.6413
  105MOL   C33040058   3.483   5.665   1.611  1.2179  0.5381 -0.0487
  105MOL   C33140059   3.457   6.024   1.787  0.6971 -0.0410  0.3624
  105MOL   H33240060   3.443   6.164   1.618 -0.4893  0.3461  0.7845
  105MOL   H33340061   3.719   6.111   1.739  0.3786  1.3702 -0.1596
  105MOL   H33440062   3.696   6.164   1.584  0.6748  0.4767  0.5253
  105MOL   H33540063   3.591   5.969   1.511  0.2963  1.0319  0.3410
  105MOL   H33640064   3.726   5.911   1.615 -0.7466 -0.4208 -1.0670
  105MOL   H33740065   3.589   5.853   1.793 -0.2824  1.3302  0.9796
  105MOL   H33840066   3.344   5.784   1.711  0.3475 -2.2929 -0.7453
  105MOL   H33940067   3.381   5.856   1.563 -1.2496 -0.3305 -0.2626
  105MOL   H34040068   3.403   5.606   1.566  0.9687  0.0950  0.9582
  105MOL   H34140069   3.563   5.687   1.540  1.6182 -0.4547  0.0841
  105MOL   H34240070   3.490   6.018   1.890 -3.2797 -2.9686  1.5903
  105MOL   H34340071   3.349   6.017   1.779  0.5250  1.1532  1.5436
  105MOL   C34440072   3.538   5.580   1.732 -0.7462 -0.2987  0.1443
  105MOL   C34540073   3.579   5.438   1.683  0.6996 -0.1971 -0.0449
  105MOL   C34640074   3.525   5.335   1.783 -0.1503 -0.4673 -0.7398
  105MOL   C34740075   3.410   5.406   1.844  0.2814  0.1302  0.1029
  105MOL   C34840076   3.355   5.350   1.980 -0.0179 -0.3478  0.1492
  105MOL   C34940077   3.311   5.210   1.975  0.1629 -0.8229  0.6861
  105MOL   C35040078   3.438   5.565   1.844 -0.6650 -0.1159  0.3145
  105MOL   H35140079   3.630   5.625   1.768 -0.1234  0.4551 -2.2805
  105MOL   H35240080   3.688   5.442   1.672  0.5377 -0.2838 -1.7432
  105MOL   H35340081   3.531   5.418   1.587  1.7333 -0.0271 -0.6085
  105MOL   H35440082   3.503   5.246   1.724 -0.3682 -1.5253  0.9173
  105MOL   H35540083   3.600   5.306   1.857  0.6862 -0.4724 -1.5733
  105MOL   H35640084   3.333   5.386   1.769 -0.8334  0.1083  1.2350
  105MOL   H35740085   3.438   5.348   2.051 -1.5456 -1.6516  1.9576
  105MOL   H35840086   3.270   5.405   2.022 -0.3726  0.2019 -1.2575
  105MOL   H35940087   3.373   5.152   1.907 -0.8872 -0.3680 -0.6865
  105MOL   H36040088   3.209   5.220   1.936  0.3436  0.3761  0.4995
  105MOL   H36140089   3.341   5.613   1.830  0.3610  1.2311 -2.5883
  105MOL   H36240090   3.491   5.605   1.930  1.4388 -1.8270 -0.1473
  105MOL   C36340091   3.284   5.150   2.121  0.4619 -0.1432  0.2923
  105MOL   C36440092   3.407   5.140   2.210 -0.2656  0.0410 -0.4791
  105MOL   C36540093   3.390   5.015   2.297  0.0424 -0.2284 -0.0806
  105MOL   C36640094   3.252   4.964   2.262  0.8488 -0.0080  0.0089
  105MOL   C36740095   3.239   4.816   2.288 -0.5936  0.3980  0.0265
  105MOL   C36840096   3.234   4.787   2.436  0.2071 -0.3194 -0.0942
  105MOL   C36940097   3.225   5.017   2.123 -0.1265 -0.8023  0.2965
  105MOL   H37040098   3.224   5.221   2.179 -1.0969  0.2288 -1.7150
  105MOL   H37140099   3.493   5.141   2.143 -0.4095 -0.0205 -0.6626
  105MOL   H37240100   3.419   5.227   2.275 -2.6620  0.5429 -0.6644
  105MOL   H37340101   3.471   4.948   2.270 -0.4380 -0.1085 -1.8572
  105MOL   H37440102   3.400   5.030   2.405  0.6398  1.1396 -0.3194
  105MOL   H37540103   3.177   5.014   2.322 -0.0151  0.3755 -1.3708
  105MOL   H37640104   3.146   4.776   2.246 -0.5435 -1.8594  1.9642
  105MOL   H37740105   3.312   4.755   2.235 -1.1342 -2.5025  2.5097
  105MOL   H37840106   3.326   4.822   2.484 -0.5783  1.3560  0.2308
  105MOL   H37940107   3.225   4.679   2.444  0.6810 -0.4586 -1.2972
  105MOL   H38040108   3.283   4.949   2.061  3.4434  1.4056  1.0875
  105MOL   H38140109   3.119   5.007   2.100  0.4914 -0.8109 -2.7594
  105MOL   H38240110   3.155   4.843   2.485  1.0716 -0.0384  0.9997
  106MOL     C140111   3.473   5.203   5.234 -0.5078 -0.1866 -0.0216
  106MOL     C240112   3.329   5.159   5.208 -0.4061 -0.1508 -0.2693
  106MOL     C340113   3.302   5.053   5.320 -0.1906 -0.3247  0.2880
  106MOL     C440114   3.392   5.103   5.436  0.0852  0.1884  0.2275
  106MOL     C540115   3.439   4.993   5.525  0.9130  0.4428 -1.1492
  106MOL     C640116   3.484   5.027   5.671 -0.0425  0.1873 -0.5222
  106MOL     C740117   3.504   5.192   5.378 -0.0708 -0.0701  0.0281
  106MOL     H840118   3.538   5.129   5.187  0.3534  0.4974  0.0857
  106MOL     H940119   3.315   5.124   5.106  1.8554 -1.1440 -0.2629
  106MOL    H1040120   3.265   5.246   5.221  0.9603  0.8583 -0.2160
  106MOL    H1140121   3.196   5.061   5.342 -0.1312 -1.7850  1.1582
  106MOL    H1240122   3.332   4.956   5.280 -2.9398 -0.5048 -1.4864
  106MOL    H1340123   3.328   5.168   5.496 -1.1200  0.3913 -1.2484
  106MOL    H1440124   3.352   4.928   5.533 -0.6523  2.6146  0.0197
  106MOL    H1540125   3.519   4.942   5.471  1.3460 -0.0803 -0.0313
  106MOL    H1640126   3.562   5.102   5.666 -0.4211  0.4722 -2.7801
  106MOL    H1740127   3.399   5.074   5.722  0.2281 -0.1272  0.2298
  106MOL    H1840128   3.507   5.286   5.432  1.4296  1.1545 -2.1168
  106MOL    H1940129   3.604   5.148   5.385  0.6780  1.7572  1.0896
  106MOL    H2040130   3.491   5.301   5.192  2.1114 -0.7030 -0.1822
  106MOL    C2140131   3.518   4.905   5.755  0.2955 -0.5880  0.4209
  106MOL    C2240132   3.573   4.956   5.894  0.0488 -0.1559 -0.0242
  106MOL    C2340133   3.483   4.899   5.995 -0.3036 -0.2813  0.4246
  106MOL    C2440134   3.408   4.776   5.925  0.6737  0.3388  0.6974
  106MOL    C2540135   3.271   4.761   5.999 -0.2508  0.0763 -0.8513
  106MOL    C2640136   3.279   4.679   6.131 -0.6253  0.5395 -0.0833
  106MOL    C2740137   3.388   4.829   5.787 -0.2218 -0.1608  0.5609
  106MOL    H2840138   3.597   4.844   5.711  1.9174  0.2867  2.0341
  106MOL    H2940139   3.672   4.916   5.915  0.6547  1.3632  0.1059
  106MOL    H3040140   3.567   5.063   5.915 -1.4573 -0.1436 -0.4920
  106MOL    H3140141   3.529   4.868   6.089  1.8854  0.8918 -0.2229
  106MOL    H3240142   3.419   4.975   6.038 -1.2651 -0.9268  0.1553
  106MOL    H3340143   3.476   4.690   5.925  3.4950  2.5139  1.2622
  106MOL    H3440144   3.209   4.699   5.935 -0.4159 -0.6662  0.0239
  106MOL    H3540145   3.224   4.859   6.010 -0.9118 -0.4900  1.6316
  106MOL    H3640146   3.328   4.732   6.213  0.4111 -2.5828  1.3907
  106MOL    H3740147   3.332   4.586   6.112 -2.3568 -0.3725 -0.5462
  106MOL    H3840148   3.346   4.754   5.720  0.6655  0.6352 -0.8989
  106MOL    H3940149   3.300   4.894   5.794 -0.5293 -0.6647  1.4073
  106MOL    C4040150   3.139   4.644   6.182  0.1100 -0.0804  0.4210
  106MOL    C4140151   3.148   4.530   6.283  0.4169 -0.4296 -0.9796
  106MOL    C4240152   3.056   4.571   6.393 -0.4002 -0.2654 -0.1705
  106MOL    C4340153   3.049   4.724   6.396  0.4418  0.0789 -0.2368
  106MOL    C4440154   2.917   4.769   6.469 -0.2214  1.0957  0.3103
  106MOL    C4540155   2.896   4.702   6.605  0.3342 -0.1347 -0.3309
  106MOL    C4640156   3.066   4.758   6.253 -0.6773  0.0016  0.7928
  106MOL    H4740157   3.084   4.608   6.095  2.2785  1.2221 -1.5494
  106MOL    H4840158   3.251   4.520   6.316  0.2050 -0.2429 -0.2566
  106MOL    H4940159   3.116   4.434   6.242 -1.2940  1.3195 -3.9150
  106MOL    H5040160   2.958   4.539   6.359 -1.0467  1.9312 -0.4257
  106MOL    H5140161   3.078   4.519   6.487 -0.3503 -1.7937 -1.0005
  106MOL    H5240162   3.130   4.767   6.455  0.0145  1.5488 -0.7028
  106MOL    H5340163   2.917   4.877   6.481 -0.9039  1.3124 -1.4502
  106MOL    H5440164   2.829   4.750   6.408 -0.2746  0.3523  0.6111
  106MOL    H5540165   2.967   4.730   6.683  0.3624  0.8116 -0.6920
  106MOL    H5640166   2.926   4.597   6.605  1.7239  0.2143  2.3481
  106MOL    H5740167   2.970   4.781   6.207  0.9424  2.5240 -1.4416
  106MOL    H5840168   3.127   4.848   6.253  1.8136 -1.6054  2.9339
  106MOL    C5940169   2.753   4.721   6.679 -0.2022  0.2411 -0.4164
  106MOL    C6040170   2.638   4.648   6.612 -0.5373  0.0279  0.4152
  106MOL    C6140171   2.538   4.627   6.720  0.0237  0.4699 -0.6143
  106MOL    C6240172   2.619   4.586   6.839  0.4713  0.8064 -0.4619
  106MOL    C6340173   2.545   4.624   6.969 -0.1587 -0.3878  0.9777
  106MOL    C6440174   2.605   4.564   7.099  0.0793 -0.1782  0.1038
  106MOL    C6540175   2.753   4.659   6.818 -0.4124 -0.3097  0.4697
  106MOL    H6640176   2.747   4.829   6.687  0.5296  0.2394  0.3054
  106MOL    H6740177   2.590   4.697   6.527 -0.5692 -0.7387 -0.0226
  106MOL    H6840178   2.665   4.545   6.589  0.2553  0.7934 -2.2132
  106MOL    H6940179   2.485   4.718   6.746 -1.2854 -1.0184  2.1125
  106MOL    H7040180   2.454   4.559   6.701  0.4590 -0.1309 -0.4207
  106MOL    H7140181   2.629   4.478   6.844  1.7877  0.9253 -0.2542
  106MOL    H7240182   2.443   4.587   6.957 -0.0670 -0.0965 -0.7362
  106MOL    H7340183   2.542   4.731   6.985 -0.6405 -0.2542 -0.0089
  106MOL    H7440184   2.626   4.459   7.079  1.4655 -0.1138  1.1645
  106MOL    H7540185   2.704   4.608   7.112 -0.5115  2.4287 -3.3111
  106MOL    H7640186   2.754   4.728   6.903  0.7623  1.1047 -0.6662
  106MOL    H7740187   2.841   4.596   6.834  1.8815  2.1039 -2.0860
  106MOL    C7840188   2.510   4.568   7.218 -0.2823 -0.1861 -0.1912
  106MOL    C7940189   2.566   4.476   7.329  0.6316 -0.4382 -0.2008
  106MOL    C8040190   2.534   4.539   7.464  0.6032 -0.2714 -0.0350
  106MOL    C8140191   2.442   4.650   7.429 -0.1353 -0.6436  0.3782
  106MOL    C8240192   2.438   4.756   7.536 -0.4853  0.9566 -0.0103
  106MOL    C8340193   2.360   4.890   7.509 -0.1368 -0.0541  0.0866
  106MOL    C8440194   2.486   4.699   7.285 -0.6920 -0.0404  0.9958
  106MOL    H8540195   2.409   4.531   7.200  0.3712 -1.4711 -1.3719
  106MOL    H8640196   2.546   4.369   7.321  3.2386 -0.9374 -0.5876
  106MOL    H8740197   2.675   4.479   7.326  0.7331 -1.7059  1.5165
  106MOL    H8840198   2.478   4.465   7.522  1.8890 -1.5765 -0.3991
  106MOL    H8940199   2.615   4.568   7.531 -0.0847 -1.0636  1.1650
  106MOL    H9040200   2.343   4.606   7.436 -1.8915  3.1094  0.5698
  106MOL    H9140201   2.541   4.782   7.560  0.0730  1.5181 -2.8528
  106MOL    H9240202   2.400   4.690   7.614  0.6586 -0.0495 -0.2862
  106MOL    H9340203   2.404   4.931   7.419 -1.6737  2.2152  0.3275
  106MOL    H9440204   2.378   4.965   7.587  0.7131  0.0997 -0.2546
  106MOL    H9540205   2.577   4.758   7.272 -0.4836 -0.4283  0.6820
  106MOL    H9640206   2.400   4.760   7.260 -1.0713 -1.4057 -1.2358
  106MOL    C9740207   2.211   4.892   7.494 -0.2139  0.3914  0.1937
  106MOL    C9840208   2.144   5.020   7.443 -0.4632 -0.9249  0.1664
  106MOL    C9940209   1.999   5.024   7.494  0.3762 -0.3005 -0.7029
  106MOL   C10040210   1.988   4.908   7.586 -0.1281  0.0407  0.1442
  106MOL   C10140211   1.886   4.946   0.055 -1.2364  0.2278 -0.0511
  106MOL   C10240212   1.832   4.824   0.126  0.1827 -0.1612 -0.5091
  106MOL   C10340213   2.138   4.880   7.626 -0.3773 -0.0941 -0.1467
  106MOL   H10440214   2.188   4.808   7.429 -1.7892  0.4527  0.6632
  106MOL   H10540215   2.190   5.108   7.489 -2.2551 -0.3200  0.8383
  106MOL   H10640216   2.157   5.025   7.335  1.5497 -1.2562  0.3822
  106MOL   H10740217   1.984   5.117   7.549 -0.5573 -1.5792  1.2660
  106MOL   H10840218   1.912   5.022   7.428 -0.4217 -2.2820  0.3733
  106MOL   H10940219   1.956   4.820   7.529  1.7491  0.0527 -0.9396
  106MOL   H11040220   1.941   5.014   0.119  0.1824 -0.1147 -0.8682
  106MOL   H11140221   1.806   5.002   0.007  0.6607  0.1576 -3.4703
  106MOL   H11240222   1.898   4.738   0.142 -0.0464  0.0365  1.6380
  106MOL   H11340223   1.811   4.856   0.228  1.6200  0.5006 -0.4080
  106MOL   H11440224   2.191   4.946   0.047  1.6133  0.1290 -1.8548
  106MOL   H11540225   2.136   4.775   0.009  1.4333  0.1638  0.9333
  106MOL   C11640226   1.703   4.777   0.061 -0.2475  0.1423 -0.0280
  106MOL   C11740227   1.649   4.649   0.139 -0.5230  0.9141  0.0153
  106MOL   C11840228   1.508   4.633   0.104 -1.0617 -0.1168 -0.6230
  106MOL   C11940229   1.465   4.769   0.047 -0.0543 -1.1952  0.5324
  106MOL   C12040230   1.331   4.828   0.094 -0.5521 -0.2077 -0.8955
  106MOL   C12140231   1.213   4.731   0.069  0.1826  0.6711 -0.5062
  106MOL   C12240232   1.582   4.873   0.057  0.3930 -0.7595 -0.5998
  106MOL   H12340233   1.720   4.743   7.606  2.1503  3.4896 -0.8165
  106MOL   H12440234   1.650   4.682   0.243  0.4274  4.0520 -0.9375
  106MOL   H12540235   1.718   4.566   0.122 -0.4573  0.9959 -0.1194
  106MOL   H12640236   1.452   4.599   0.190 -3.2315  0.4962 -1.7598
  106MOL   H12740237   1.511   4.550   0.033 -1.3605  0.1806 -0.9891
  106MOL   H12840238   1.456   4.743   7.589 -0.1492  2.2088 -0.3749
  106MOL   H12940239   1.322   4.923   0.042  1.4999 -0.1349 -1.1473
  106MOL   H13040240   1.329   4.849   0.201 -1.0520 -1.5145 -0.6452
  106MOL   H13140241   1.231   4.659   0.149 -0.3225  0.3670 -0.6628
  106MOL   H13240242   1.222   4.677   7.622  0.1355  0.6064 -0.4732
  106MOL   H13340243   1.575   4.948   7.625  1.5438  1.1040  1.0305
  106MOL   H13440244   1.583   4.926   0.152  1.3981 -1.4178 -0.2410
  106MOL   C13540245   1.084   4.805   0.093  0.5518 -0.2094  0.5005
  106MOL   C13640246   0.953   4.740   0.032 -0.2469 -0.8603 -0.1813
  106MOL   C13740247   0.841   4.816   0.108  0.1900  0.0564 -0.3321
  106MOL   C13840248   0.887   4.828   0.249  0.5957 -0.2649 -0.9787
  106MOL   C13940249   0.818   4.944   0.330 -0.7682 -0.1166  0.2795
  106MOL   C14040250   0.851   4.934   0.478  0.6887  0.0235  0.0075
  106MOL   C14140251   1.044   4.839   0.236 -0.7177 -0.1993 -0.0750
  106MOL   H14240252   1.090   4.895   0.031 -3.1831 -0.4625 -0.3278
  106MOL   H14340253   0.933   4.756   7.573 -1.3029 -3.3999 -0.4180
  106MOL   H14440254   0.952   4.633   0.057  0.6714 -0.6497  0.7933
  106MOL   H14540255   0.831   4.914   0.060 -1.5805 -0.7020 -1.5269
  106MOL   H14640256   0.742   4.772   0.098  0.3336 -0.2716 -0.2928
  106MOL   H14740257   0.849   4.736   0.293 -2.8339  1.0293 -1.1208
  106MOL   H14840258   0.713   4.915   0.326 -1.0608  0.9051  0.2576
  106MOL   H14940259   0.835   5.046   0.295 -4.4246  0.7078  0.7017
  106MOL   H15040260   0.840   4.829   0.507 -1.4555  0.2000 -0.0735
  106MOL   H15140261   0.954   4.953   0.505  0.2593  1.9239  0.3872
  106MOL   H15240262   1.090   4.775   0.311 -0.6366 -1.8447 -1.4811
  106MOL   H15340263   1.065   4.939   0.273 -2.2090 -0.3447  1.2205
  106MOL   C15440264   0.777   5.026   0.571  0.3255 -0.0676 -0.3064
  106MOL   C15540265   0.831   5.169   0.571 -0.9192  0.0276 -0.2953
  106MOL   C15640266   0.831   5.215   0.726 -0.1755 -0.5944  0.7133
  106MOL   C15740267   0.764   5.107   0.807  0.7147  0.0937 -0.4416
  106MOL   C15840268   0.822   5.092   0.950  0.0821 -0.0285 -0.5050
  106MOL   C15940269   0.768   4.980   1.037  0.0058  0.2934  0.1670
  106MOL   C16040270   0.780   4.978   0.716  0.2218 -0.1453 -0.3250
  106MOL   H16140271   0.670   5.025   0.550 -0.0197 -2.0587  1.4190
  106MOL   H16240272   0.927   5.172   0.519 -0.0600 -1.7114  1.1569
  106MOL   H16340273   0.762   5.228   0.510  1.2294 -0.3999 -3.2577
  106MOL   H16440274   0.937   5.228   0.751  0.1170  1.3370 -1.3794
  106MOL   H16540275   0.776   5.309   0.726 -2.9236 -2.0072 -4.0475
  106MOL   H16640276   0.656   5.124   0.808  0.7674  0.4566 -0.6751
  106MOL   H16740277   0.829   5.189   1.000  0.7991 -0.8570  1.0325
  106MOL   H16840278   0.928   5.067   0.941  0.5587  2.0695 -1.0073
  106MOL   H16940279   0.673   5.021   1.073  2.0671  4.1708  1.4310
  106MOL   H17040280   0.758   4.885   0.984  1.9333  0.0282  0.2448
  106MOL   H17140281   0.705   4.900   0.727 -0.2941  0.1010 -1.9441
  106MOL   H17240282   0.878   4.939   0.745 -0.1396  0.8683  2.3822
  106MOL   C17340283   0.846   4.971   1.166  0.0644  0.3908  0.1604
  106MOL   C17440284   0.784   4.880   1.268  0.4854 -0.5490  0.0258
  106MOL   C17540285   0.887   4.802   1.354 -0.0410 -0.0954  0.8946
  106MOL   C17640286   1.019   4.862   1.302  1.0305  0.4919 -0.8131
  106MOL   C17740287   1.133   4.768   1.320  0.2335 -0.2055  1.0938
  106MOL   C17840288   1.269   4.820   1.263  0.2374  0.0755 -0.1865
  106MOL   C17940289   0.985   4.904   1.156  0.8532  0.1720 -0.1981
  106MOL   H18040290   0.854   5.064   1.221 -0.3934 -0.1273  1.1246
  106MOL   H18140291   0.725   4.798   1.227  1.6465 -0.3469 -2.0654
  106MOL   H18240292   0.711   4.941   1.322  0.0983  0.3131 -1.4422
  106MOL   H18340293   0.870   4.815   1.461 -1.5509 -3.0722  1.0892
  106MOL   H18440294   0.876   4.694   1.348 -0.0909 -0.0822  0.7777
  106MOL   H18540295   1.037   4.954   1.357  0.3479  1.3168 -1.9729
  106MOL   H18640296   1.093   4.682   1.266 -1.9280  0.6516  1.2470
  106MOL   H18740297   1.150   4.757   1.427  2.1977 -1.5928  0.6584
  106MOL   H18840298   1.284   4.911   1.320 -1.9123 -0.3512  1.1317
  106MOL   H18940299   1.243   4.842   1.159 -0.7847 -3.1642 -0.7012
  106MOL   H19040300   0.998   4.815   1.095 -1.0412 -0.3690  0.1584
  106MOL   H19140301   1.058   4.972   1.112 -0.3634  0.3812 -1.9678
  106MOL   C19240302   1.379   4.721   1.285 -0.1477 -0.6138 -0.0740
  106MOL   C19340303   1.400   4.682   1.434  0.6909  0.0319  0.9207
  106MOL   C19440304   1.545   4.615   1.424 -0.5045  0.1024 -0.0120
  106MOL   C19540305   1.621   4.710   1.331  0.1446 -0.1673  0.6656
  106MOL   C19640306   1.734   4.630   1.249  0.0130 -0.1540 -0.1430
  106MOL   C19740307   1.845   4.718   1.192  0.0562 -0.4796  0.2641
  106MOL   C19840308   1.522   4.768   1.233 -0.3809  0.0180  0.1325
  106MOL   H19940309   1.342   4.633   1.233  0.1519 -1.0727  0.4896
  106MOL   H20040310   1.408   4.776   1.488 -0.1230 -0.7857  2.5100
  106MOL   H20140311   1.323   4.616   1.476 -1.3511  2.1997  0.6712
  106MOL   H20240312   1.528   4.516   1.382  1.8124 -0.8123  1.1747
  106MOL   H20340313   1.590   4.609   1.522  0.2346  0.6550 -0.3104
  106MOL   H20440314   1.656   4.797   1.386 -0.9755  0.1613  0.8643
  106MOL   H20540315   1.701   4.556   1.176  0.6304  1.5021 -2.1540
  106MOL   H20640316   1.781   4.569   1.326 -0.0961 -0.4024 -0.2769
  106MOL   H20740317   1.942   4.669   1.195  0.5100  0.4993  2.3717
  106MOL   H20840318   1.863   4.807   1.253 -1.4104  1.4995 -2.0690
  106MOL   H20940319   1.546   4.723   1.137 -1.3784  0.1678 -0.1828
  106MOL   H21040320   1.524   4.877   1.227 -1.0613 -0.0228 -0.9422
  106MOL   C21140321   1.820   4.777   1.052  0.2017  0.0125 -0.2201
  106MOL   C21240322   1.810   4.690   0.928  0.0901 -0.4019 -0.3237
  106MOL   C21340323   1.841   4.791   0.808 -0.6493  0.2810  0.4474
  106MOL   C21440324   1.910   4.919   0.871  0.0474 -0.5434  0.0654
  106MOL   C21540325   2.041   4.961   0.794  0.1025 -0.5140 -0.3715
  106MOL   C21640326   2.134   5.071   0.858  0.0121  0.1059 -0.1133
  106MOL   C21740327   1.937   4.875   1.008 -0.1806  1.0926  0.2245
  106MOL   H21840328   1.727   4.835   1.054  0.7169  0.8040  1.1942
  106MOL   H21940329   1.896   4.624   0.939 -0.0149 -0.4339  0.3130
  106MOL   H22040330   1.718   4.633   0.914 -0.7213  0.7009  0.4308
  106MOL   H22140331   1.911   4.731   0.749 -2.0355 -0.4662 -0.4511
  106MOL   H22240332   1.757   4.809   0.742  0.5106 -0.4630 -1.2762
  106MOL   H22340333   1.832   4.994   0.869 -0.7314 -1.2734  1.9728
  106MOL   H22440334   2.003   4.989   0.696 -0.0196 -0.5650 -0.3396
  106MOL   H22540335   2.105   4.873   0.783  0.0724 -0.4105 -1.3861
  106MOL   H22640336   2.067   5.155   0.879 -0.0609 -0.9651  4.4178
  106MOL   H22740337   2.174   5.044   0.956  1.4405 -0.5655 -0.8654
  106MOL   H22840338   1.925   4.960   1.076  0.5054  1.7232 -0.4386
  106MOL   H22940339   2.032   4.822   1.012 -0.2323  0.9837  0.0034
  106MOL   C23040340   2.241   5.132   0.759  0.4606  0.1644 -0.5769
  106MOL   C23140341   2.354   5.037   0.723  0.5026  0.0695  0.2572
  106MOL   C23240342   2.476   5.126   0.677  0.4757 -0.4191  0.0962
  106MOL   C23340343   2.458   5.248   0.770  0.2319  0.1358  0.7459
  106MOL   C23440344   2.530   5.374   0.729 -0.0018 -0.0561  0.3332
  106MOL   C23540345   2.678   5.339   0.705 -1.0423  0.0258 -0.1049
  106MOL   C23640346   2.308   5.264   0.797  0.5355  0.3919  0.3808
  106MOL   H23740347   2.193   5.135   0.662  0.4694 -0.1613 -0.5909
  106MOL   H23840348   2.369   4.972   0.808 -0.2098  1.0064  1.1232
  106MOL   H23940349   2.321   4.962   0.651  0.0815 -0.2317  0.7569
  106MOL   H24040350   2.457   5.153   0.573  0.6048 -0.8126 -0.0320
  106MOL   H24140351   2.566   5.063   0.678 -0.3724 -1.6573 -0.2263
  106MOL   H24240352   2.496   5.209   0.865 -0.4717 -1.1111  0.5291
  106MOL   H24340353   2.526   5.450   0.807 -0.3990  2.6487 -2.2037
  106MOL   H24440354   2.483   5.416   0.640  0.5553  0.2295  0.1654
  106MOL   H24540355   2.711   5.278   0.790 -3.2867  0.2187  0.9532
  106MOL   H24640356   2.689   5.287   0.610 -0.5892 -0.9039  0.4380
  106MOL   H24740357   2.266   5.349   0.743  2.6514 -0.0823 -2.1053
  106MOL   H24840358   2.281   5.288   0.900 -3.2217  0.9592 -0.6523
  106MOL   C24940359   2.762   5.466   0.670  0.2876  0.2098 -0.1458
  106MOL   C25040360   2.785   5.546   0.801  0.3563 -0.5760 -0.2153
  106MOL   C25140361   2.922   5.615   0.791 -0.4806 -0.6489 -0.1720
  106MOL   C25240362   3.004   5.533   0.690  0.0537 -0.0719  0.0386
  106MOL   C25340363   3.109   5.607   0.604 -0.2912  0.0863 -0.5224
  106MOL   C25440364   3.212   5.691   0.683  0.2748 -0.3038  0.2833
  106MOL   C25540365   2.909   5.436   0.626 -0.1103  0.2141 -0.0561
  106MOL   H25640366   2.709   5.526   0.596 -0.0454  0.8780  0.6169
  106MOL   H25740367   2.702   5.614   0.819 -0.0915 -0.7304 -1.6541
  106MOL   H25840368   2.794   5.478   0.886  0.5743 -0.9385 -0.5272
  106MOL   H25940369   2.981   5.610   0.883 -2.2846 -1.0590  0.9857
  106MOL   H26040370   2.918   5.720   0.764 -0.0480 -1.0743 -1.9833
  106MOL   H26140371   3.062   5.470   0.757 -1.0844 -0.4166  0.7055
  106MOL   H26240372   3.049   5.683   0.555 -2.0669  0.9513  2.8630
  106MOL   H26340373   3.154   5.545   0.526 -0.1737 -0.0619 -0.3360
  106MOL   H26440374   3.274   5.637   0.754  2.3749 -0.9933 -1.9871
  106MOL   H26540375   3.161   5.760   0.750  1.9252 -0.0108  1.2506
  106MOL   H26640376   2.938   5.340   0.669  1.7449  0.1025 -1.5209
  106MOL   H26740377   2.923   5.421   0.519 -0.9567 -0.9189 -0.0220
  106MOL   C26840378   3.315   5.773   0.588  1.0580  0.0296  0.1495
  106MOL   C26940379   3.250   5.861   0.483 -0.1943  0.6722 -0.3555
  106MOL   C27040380   3.305   5.815   0.353 -0.1570 -0.1191  0.7168
  106MOL   C27140381   3.442   5.760   0.389  0.4508 -0.3929  0.2013
  106MOL   C27240382   3.506   5.658   0.288 -0.0716  0.2035  0.0067
  106MOL   C27340383   3.509   5.711   0.144  0.2127 -0.1913 -0.2967
  106MOL   C27440384   3.424   5.695   0.524 -0.4887  0.7930 -0.3973
  106MOL   H27540385   3.365   5.845   0.653 -0.1074  1.2709 -0.3016
  106MOL   H27640386   3.142   5.871   0.485 -0.0590  2.2166 -0.3507
  106MOL   H27740387   3.283   5.963   0.498  1.1598  0.3434 -0.9177
  106MOL   H27840388   3.249   5.734   0.307  1.9528 -1.5379  0.5328
  106MOL   H27940389   3.309   5.899   0.284  1.8510 -0.4541  0.3848
  106MOL   H28040390   3.497   5.852   0.411  1.9664 -1.5043  1.1651
  106MOL   H28140391   3.453   5.563   0.285  0.5622 -0.1764  0.6914
  106MOL   H28240392   3.604   5.629   0.326 -0.2985 -1.2953 -0.5301
  106MOL   H28340393   3.424   5.665   0.095  0.3407  0.4082 -1.0938
  106MOL   H28440394   3.505   5.820   0.136  0.5340 -0.3088 -2.3682
  106MOL   H28540395   3.393   5.591   0.510  0.8737  0.4647 -1.0787
  106MOL   H28640396   3.520   5.691   0.575 -1.0225  0.1156  0.5819
  106MOL   C28740397   3.632   5.649   0.073  0.2047  0.3749  0.0056
  106MOL   C28840398   3.641   5.655   7.566  0.2632 -0.4456 -0.2598
  106MOL   C28940399   3.782   5.691   7.526 -0.5772  0.0848 -0.0695
  106MOL   C29040400   3.866   5.662   7.647 -0.1114  0.0450 -0.0007
  106MOL   C29140401   4.012   5.715   0.002  0.4192 -0.3432 -0.4090
  106MOL   C29240402   4.086   5.655   0.123  0.4288 -0.2505 -0.7738
  106MOL   C29340403   3.766   5.704   0.117 -0.3618  0.5237 -0.6246
  106MOL   H29440404   3.617   5.544   0.097  0.6430  0.6000  1.2772
  106MOL   H29540405   3.609   5.559   7.525  1.7145 -0.6559 -0.9395
  106MOL   H29640406   3.578   5.730   7.519 -1.3003 -0.6475  1.4762
  106MOL   H29740407   3.796   5.794   7.491  1.5128 -1.1789 -3.2116
  106MOL   H29840408   3.822   5.635   7.441 -0.5205 -0.7533  0.5065
  106MOL   H29940409   3.877   5.554   0.012  1.4527  0.3816  1.8095
  106MOL   H30040410   4.012   5.824   0.011 -0.3106 -0.3118 -0.6969
  106MOL   H30140411   4.067   5.691   7.559  1.2937 -1.8695  0.5205
  106MOL   H30240412   4.089   5.547   0.111  1.5684 -0.5275  1.7182
  106MOL   H30340413   4.027   5.665   0.215 -0.8419  1.6333 -1.7548
  106MOL   H30440414   3.745   5.809   0.137  0.8304  0.2371  2.3515
  106MOL   H30540415   3.797   5.659   0.211  1.4657  0.9895 -0.9836
  106MOL   C30640416   4.226   5.703   0.152  0.3688 -0.4077 -0.1657
  106MOL   C30740417   4.219   5.823   0.253 -0.3261  0.6803  0.2139
  106MOL   C30840418   4.364   5.830   0.313  0.1436  0.7122 -0.5364
  106MOL   C30940419   4.433   5.694   0.275 -0.6399  0.6984  0.1710
  106MOL   C31040420   4.506   5.621   0.386  0.3159 -0.5779  0.0243
  106MOL   C31140421   4.580   5.492   0.329  0.5117  0.9812 -1.1340
  106MOL   C31240422   4.320   5.606   0.220 -0.4501 -0.4060  0.6954
  106MOL   H31340423   4.283   5.726   0.062  0.3000  0.3581 -0.0244
  106MOL   H31440424   4.198   5.918   0.204  0.7354  1.6095  1.5495
  106MOL   H31540425   4.156   5.791   0.336  2.3651 -0.7016  1.7609
  106MOL   H31640426   4.409   5.918   0.267 -1.1190  2.2040  0.9949
  106MOL   H31740427   4.365   5.838   0.422 -3.3284 -0.4740 -0.3660
  106MOL   H31840428   4.503   5.730   0.199 -0.1713  3.0418  1.6306
  106MOL   H31940429   4.577   5.691   0.430 -1.2577  1.0450  0.0253
  106MOL   H32040430   4.434   5.583   0.459 -0.5949  3.1442  1.1768
  106MOL   H32140431   4.653   5.517   0.253  0.7207 -1.6520 -1.8347
  106MOL   H32240432   4.509   5.422   0.286 -0.1599  0.1687  1.2304
  106MOL   H32340433   4.268   5.552   0.299 -1.7591  1.3613  1.0965
  106MOL   H32440434   4.348   5.523   0.156  0.1524 -0.1734  0.6534
  106MOL   C32540435   4.651   5.420   0.453 -0.2480  0.1389 -0.1540
  106MOL   C32640436   4.552   5.316   0.518 -0.1021 -0.4820  1.2744
  106MOL   C32740437   4.643   5.231   0.596  0.1316  0.0441 -0.3619
  106MOL   C32840438   4.766   5.221   0.497  0.5143  0.1037 -0.6351
  106MOL   C32940439   4.904   5.185   0.562  0.7195  0.3469  0.3264
  106MOL   C33040440   5.020   5.176   0.476  0.2688 -0.5181  0.4955
  106MOL   C33140441   4.773   5.348   0.416 -0.3594 -0.3133 -0.3793
  106MOL   H33240442   4.670   5.496   0.529 -1.3507  0.6728 -0.3908
  106MOL   H33340443   4.504   5.252   0.444 -2.4682 -2.2185  4.1906
  106MOL   H33440444   4.479   5.366   0.580  1.2973  1.8605  1.0814
  106MOL   H33540445   4.663   5.265   0.697 -1.2499 -1.7004  0.5237
  106MOL   H33640446   4.603   5.130   0.602 -0.6087  0.3570 -0.0357
  106MOL   H33740447   4.748   5.130   0.440  3.3859 -0.9442  0.0768
  106MOL   H33840448   4.921   5.260   0.639  0.7791 -1.7659  2.4347
  106MOL   H33940449   4.901   5.097   0.626 -1.9762 -1.8985 -2.7324
  106MOL   H34040450   5.051   5.074   0.456 -1.3272 -0.9934  0.3911
  106MOL   H34140451   5.008   5.224   0.379 -1.0733  2.0039  1.8430
  106MOL   H34240452   4.785   5.327   0.310  2.6990 -2.0562  0.2525
  106MOL   H34340453   4.852   5.420   0.442 -1.9536  0.7970  1.6029
  106MOL   C34440454   5.140   5.250   0.542  0.2184 -0.1284 -0.4078
  106MOL   C34540455   5.271   5.234   0.466  0.1328  0.5923  0.2075
  106MOL   C34640456   5.379   5.261   0.561 -0.4960 -0.7380  0.5433
  106MOL   C34740457   5.328   5.195   0.691 -0.2633  0.4528  0.2946
  106MOL   C34840458   5.379   5.261   0.819 -0.7712  0.1712 -0.6639
  106MOL   C34940459   5.540   5.272   0.837 -0.5605  0.7337  0.5297
  106MOL   C35040460   5.176   5.213   0.690  0.3822 -0.2544 -0.0872
  106MOL   H35140461   5.117   5.356   0.537  4.9382  1.1083  0.8901
  106MOL   H35240462   5.279   5.304   0.383  0.4113 -0.1492 -0.3907
  106MOL   H35340463   5.289   5.132   0.433  1.4149  0.3922  1.4915
  106MOL   H35440464   5.470   5.208   0.531 -0.4509 -0.1022 -0.4724
  106MOL   H35540465   5.412   5.364   0.570 -1.0387 -0.3045 -1.9574
  106MOL   H35640466   5.349   5.088   0.689  1.9474  0.8481  0.8133
  106MOL   H35740467   5.344   5.364   0.827  0.3866  0.4236  1.3574
  106MOL   H35840468   5.338   5.218   0.910  1.6598  0.1635  0.4801
  106MOL   H35940469   5.574   5.336   0.756  1.8265 -2.4787 -1.1229
  106MOL   H36040470   5.581   5.172   0.827  0.9644  1.3524  0.3589
  106MOL   H36140471   5.140   5.115   0.721  1.0929 -0.2961  0.6143
  106MOL   H36240472   5.131   5.272   0.769 -0.0007  0.9740 -1.2043
  106MOL   C36340473   5.588   5.335   0.977  0.4569 -0.1671 -1.0112
  106MOL   C36440474   5.738   5.362   0.992 -0.3529 -0.2035 -0.1705
  106MOL   C36540475   5.775   5.301   1.127  0.4712  0.0992  1.1501
  106MOL   C36640476   5.644   5.295   1.214 -0.4115 -0.3997  0.0291
  106MOL   C36740477   5.643   5.189   1.321 -0.8722  0.0160 -0.6740
  106MOL   C36840478   5.765   5.207   1.416 -0.4141 -0.2152 -0.2460
  106MOL   C36940479   5.543   5.261   1.104  0.4545  0.4150  0.3256
  106MOL   H37040480   5.552   5.438   0.980  0.9401 -0.0363  4.6256
  106MOL   H37140481   5.796   5.293   0.931  2.9487  0.8571  1.6574
  106MOL   H37240482   5.782   5.459   0.968 -0.8179  0.1821  0.5075
  106MOL   H37340483   5.829   5.207   1.123  0.5517  0.2079 -1.5455
  106MOL   H37440484   5.834   5.380   1.174 -0.6183  0.6662  1.5828
  106MOL   H37540485   5.637   5.388   1.271  0.2616 -0.3342  0.0160
  106MOL   H37640486   5.557   5.204   1.386  0.6681  0.1545  1.3746
  106MOL   H37740487   5.642   5.085   1.288 -1.9483 -0.3492  0.4655
  106MOL   H37840488   5.776   5.314   1.436 -1.5125  0.1738 -1.5647
  106MOL   H37940489   5.852   5.178   1.357  0.0996 -1.7423  1.2483
  106MOL   H38040490   5.557   5.156   1.079 -2.4277 -0.0170  0.3789
  106MOL   H38140491   5.439   5.275   1.130  0.1294 -1.1685 -0.0832
  106MOL   H38240492   5.773   5.156   1.512 -0.9887  3.7655  2.0275
  107MOL     C140493   5.571   7.028   2.635  0.2822 -0.5346  0.3609
  107MOL     C240494   5.472   6.998   2.522  0.1482 -0.3278 -0.2400
  107MOL     C340495   5.445   6.847   2.525  0.7393 -0.8922  0.3420
  107MOL     C440496   5.488   6.801   2.664  0.3068 -0.3618  0.0196
  107MOL     C540497   5.523   6.650   2.675 -0.5192 -0.4940 -0.3822
  107MOL     C640498   5.664   6.606   2.629 -0.5508  0.4381 -0.3380
  107MOL     C740499   5.596   6.899   2.710 -0.3615 -0.0164 -0.1881
  107MOL     H840500   5.664   7.076   2.603  0.5834 -0.5922  1.1521
  107MOL     H940501   5.522   7.033   2.432 -0.1749  0.7890  0.0034
  107MOL    H1040502   5.379   7.055   2.521  0.6775  0.5281 -0.4255
  107MOL    H1140503   5.339   6.830   2.508  0.6016  2.2333 -2.4820
  107MOL    H1240504   5.505   6.807   2.443  1.0605  0.3594 -0.0579
  107MOL    H1340505   5.399   6.812   2.726  0.3917  0.3898  0.0108
  107MOL    H1440506   5.512   6.618   2.779 -0.6901  0.9046  0.0446
  107MOL    H1540507   5.446   6.594   2.622  0.4128 -1.3184 -0.8733
  107MOL    H1640508   5.699   6.675   2.553  1.0197 -1.9387 -1.8248
  107MOL    H1740509   5.741   6.619   2.705  0.5693  3.5945 -1.9425
  107MOL    H1840510   5.579   6.918   2.816  1.4515 -1.7010  0.4425
  107MOL    H1940511   5.694   6.852   2.698 -0.5746  0.1694 -3.1682
  107MOL    H2040512   5.524   7.099   2.702 -0.6779 -0.5797 -0.2525
  107MOL    C2140513   5.683   6.455   2.590  0.1227 -0.5578 -0.1619
  107MOL    C2240514   5.829   6.423   2.549  0.1732 -0.3771 -0.1583
  107MOL    C2340515   5.848   6.281   2.590 -0.2109  0.1302 -0.1058
  107MOL    C2440516   5.768   6.260   2.716  0.3670  0.1421 -0.1053
  107MOL    C2540517   5.855   6.314   2.831  0.6843  0.3258 -0.6536
  107MOL    C2640518   5.936   6.198   2.890 -0.1353  0.1862  0.2313
  107MOL    C2740519   5.644   6.348   2.692  0.4891  0.2605  0.3173
  107MOL    H2840520   5.624   6.434   2.501 -0.6081 -0.2372  0.2499
  107MOL    H2940521   5.832   6.423   2.440  1.6392 -1.0689 -0.1245
  107MOL    H3040522   5.903   6.489   2.594 -0.1812 -0.2423  0.2289
  107MOL    H3140523   5.814   6.220   2.506  2.0313  0.0723 -1.0211
  107MOL    H3240524   5.954   6.261   2.608 -0.2429  0.7440  0.8159
  107MOL    H3340525   5.733   6.157   2.724 -2.7019  1.1556  0.3019
  107MOL    H3440526   5.791   6.344   2.914  0.3129  1.2381 -1.2636
  107MOL    H3540527   5.921   6.396   2.803 -1.7014  2.0311 -1.4662
  107MOL    H3640528   5.979   6.119   2.827 -0.2481  0.8785 -0.7350
  107MOL    H3740529   5.863   6.137   2.942 -1.6337  1.0877 -0.7450
  107MOL    H3840530   5.562   6.285   2.659  0.1196  0.7836  0.2300
  107MOL    H3940531   5.614   6.379   2.792  1.0602  0.3945  0.4529
  107MOL    C4040532   6.052   6.247   2.979 -0.1816 -0.0237 -0.1051
  107MOL    C4140533   6.124   6.145   3.083 -0.2548 -0.4258  0.5178
  107MOL    C4240534   6.257   6.227   3.114 -0.0720  0.3921 -0.6206
  107MOL    C4340535   6.300   6.267   2.971  0.1192 -0.2981  0.1876
  107MOL    C4440536   6.405   6.375   2.974 -0.7338 -0.2059 -0.2144
  107MOL    C4540537   6.457   6.399   2.830 -0.1197 -0.6569 -0.3107
  107MOL    C4640538   6.170   6.306   2.899  0.0349 -0.3961  0.7595
  107MOL    H4740539   6.018   6.335   3.032 -0.0156 -0.4941  0.7938
  107MOL    H4840540   6.141   6.054   3.025 -0.7880 -1.2397  1.6146
  107MOL    H4940541   6.069   6.122   3.174 -0.9410 -1.1535 -0.0763
  107MOL    H5040542   6.222   6.315   3.168  0.8606  1.4896 -1.7713
  107MOL    H5140543   6.331   6.167   3.167 -0.4126  1.9924  1.6994
  107MOL    H5240544   6.341   6.179   2.920  1.6642  0.5903 -0.1331
  107MOL    H5340545   6.371   6.465   3.024  0.2550 -0.1618  0.4000
  107MOL    H5440546   6.483   6.337   3.040 -0.0674 -0.5067 -1.1589
  107MOL    H5540547   6.381   6.449   2.770  1.7864  2.5997 -0.1244
  107MOL    H5640548   6.481   6.305   2.781  1.2335  0.0586 -1.0630
  107MOL    H5740549   6.171   6.415   2.891 -0.8295 -0.3303  1.4728
  107MOL    H5840550   6.175   6.275   2.794 -0.0926  4.6637 -0.9054
  107MOL    C5940551   6.573   6.503   2.824  0.3204  0.3752 -0.2821
  107MOL    C6040552   6.673   6.473   2.707 -0.6073  0.4387 -0.0681
  107MOL    C6140553   6.746   6.600   2.678 -0.1646 -0.6239  0.3593
  107MOL    C6240554   6.657   6.714   2.736 -0.2222  0.1465  0.1536
  107MOL    C6340555   6.731   6.803   2.840  0.2639 -0.1470 -0.6470
  107MOL    C6440556   6.823   6.899   2.764  0.1980  0.6463 -0.1721
  107MOL    C6540557   6.536   6.651   2.802 -0.0769  0.2522 -0.0133
  107MOL    H6640558   6.633   6.499   2.914  0.4184  0.6456 -0.3354
  107MOL    H6740559   6.742   6.399   2.747 -2.5018 -0.4238  1.7320
  107MOL    H6840560   6.623   6.441   2.615  2.2943  1.6527 -2.1370
  107MOL    H6940561   6.848   6.603   2.718  0.2148  1.7020 -0.7671
  107MOL    H7040562   6.777   6.608   2.574  0.9862  2.1466  0.8632
  107MOL    H7140563   6.625   6.779   2.655  0.1994 -0.5610 -0.5879
  107MOL    H7240564   6.777   6.731   2.908 -1.2725 -1.0481 -0.5262
  107MOL    H7340565   6.664   6.856   2.907  0.0378 -0.9445 -0.2356
  107MOL    H7440566   6.889   6.852   2.691 -1.3518  1.4510 -2.1533
  107MOL    H7540567   6.763   6.958   2.695  1.0955  1.5740 -0.1702
  107MOL    H7640568   6.514   6.700   2.897 -0.7607  0.5250 -0.3075
  107MOL    H7740569   6.448   6.666   2.738 -0.0727  0.0266 -0.0705
  107MOL    C7840570   6.911   6.990   2.846  0.4617 -0.6576 -0.0965
  107MOL    C7940571   7.016   6.937   2.939 -0.1242 -0.5049  0.0765
  107MOL    C8040572   7.141   7.020   2.915 -0.5760  0.1409 -0.0322
  107MOL    C8140573   7.101   7.146   2.838  0.2537 -0.5625 -0.8444
  107MOL    C8240574   7.202   7.223   2.749 -0.3854 -0.1059 -0.3813
  107MOL    C8340575   7.133   7.343   2.686  0.3267 -0.4322  0.4139
  107MOL    C8440576   6.984   7.089   2.754 -0.0589 -0.7069  0.1163
  107MOL    H8540577   6.845   7.052   2.906 -0.7027 -1.1314 -0.8729
  107MOL    H8640578   6.990   6.918   3.043  2.4726 -1.8389  0.5190
  107MOL    H8740579   7.035   6.841   2.892  3.6775  0.6607 -0.8953
  107MOL    H8840580   7.181   7.049   3.012  0.2648  0.1695 -0.3871
  107MOL    H8940581   7.222   6.970   2.863 -0.9268 -1.6986  1.1493
  107MOL    H9040582   7.068   7.224   2.908  2.2493  0.5942 -1.1529
  107MOL    H9140583   7.261   7.169   2.675 -0.2669 -0.4848 -0.0100
  107MOL    H9240584   7.279   7.272   2.808 -1.5799  0.4415  0.7645
  107MOL    H9340585   7.102   7.411   2.766  0.5965  1.1591 -0.7957
  107MOL    H9440586   7.047   7.317   2.624 -0.3281  1.2693  0.5663
  107MOL    H9540587   7.031   7.055   2.662 -0.0000 -3.5134  1.1413
  107MOL    H9640588   6.912   7.163   2.719  1.2009 -0.6031 -2.3877
  107MOL    C9740589   7.222   7.417   2.587  0.1624  0.1625  0.0235
  107MOL    C9840590   7.165   7.553   2.544  0.1557  0.6925  0.0203
  107MOL    C9940591   7.117   7.546   2.400  0.1158 -0.1665  0.3183
  107MOL   C10040592   7.210   7.442   2.336  0.0448 -0.4544  0.4913
  107MOL   C10140593   7.153   7.380   2.208  0.4631  0.0895  0.2754
  107MOL   C10240594   7.146   7.462   2.077  0.6029  0.4883  0.1966
  107MOL   C10340595   7.234   7.340   2.453 -0.1249 -0.3831 -0.1620
  107MOL   H10440596   7.320   7.448   2.625  0.4518 -1.9268  1.0384
  107MOL   H10540597   7.077   7.570   2.607  0.4723  0.7319  0.4582
  107MOL   H10640598   7.243   7.626   2.568  1.1267 -0.4520  0.4081
  107MOL   H10740599   7.016   7.505   2.398 -0.2008  0.6053  0.2974
  107MOL   H10840600   7.108   7.638   2.343 -0.8492  1.2327  2.6668
  107MOL   H10940601   7.306   7.485   2.307  0.6588 -3.1825 -1.7108
  107MOL   H11040602   7.205   7.286   2.190  0.7083  0.5212 -1.3618
  107MOL   H11140603   7.049   7.354   2.230  0.0567  0.0398 -1.6128
  107MOL   H11240604   7.089   7.554   2.088  0.1286  0.4073 -1.5404
  107MOL   H11340605   7.249   7.493   2.066  0.9988 -0.1944  1.7819
  107MOL   H11440606   7.152   7.269   2.448 -0.1803 -0.2489 -1.2688
  107MOL   H11540607   7.327   7.284   2.454  0.5871  0.7862  0.6541
  107MOL   C11640608   7.090   7.376   1.965  0.0075 -0.3299 -0.7886
  107MOL   C11740609   6.937   7.379   1.956  0.3542 -0.2097 -0.6631
  107MOL   C11840610   6.906   7.320   1.817 -0.2814  0.1305  0.8458
  107MOL   C11940611   7.010   7.399   1.730 -0.2758 -0.4206 -0.6602
  107MOL   C12040612   6.952   7.527   1.670 -0.1375 -0.3749 -0.1200
  107MOL   C12140613   7.043   7.590   1.561  0.5719  0.5454 -0.0161
  107MOL   C12240614   7.131   7.427   1.826  0.0451 -0.6130  0.0053
  107MOL   H12340615   7.139   7.279   1.971  1.8787  0.5877 -0.9886
  107MOL   H12440616   6.900   7.481   1.965  2.7177  0.6581 -0.3024
  107MOL   H12540617   6.891   7.320   2.035  1.0054  1.0511  0.6777
  107MOL   H12640618   6.802   7.339   1.792 -0.3683 -0.6841  0.5779
  107MOL   H12740619   6.932   7.214   1.812 -1.0876  0.0057 -2.2913
  107MOL   H12840620   7.031   7.338   1.642 -2.5030 -0.4384 -1.2076
  107MOL   H12940621   6.930   7.597   1.750  2.4627  0.2085  0.1201
  107MOL   H13040622   6.854   7.509   1.624 -0.3555 -0.8459  0.5167
  107MOL   H13140623   7.045   7.521   1.477  0.2395  1.2563 -0.6188
  107MOL   H13240624   7.143   7.608   1.599  1.4310 -0.3666 -1.8364
  107MOL   H13340625   7.226   7.385   1.794  0.2887  0.5950 -0.9280
  107MOL   H13440626   7.156   7.533   1.832  1.8605 -1.0941  1.3266
  107MOL   C13540627   6.998   0.087   1.519  0.4274  0.5611  0.0639
  107MOL   C13640628   7.020   0.193   1.625 -0.3058 -0.5138  0.0746
  107MOL   C13740629   7.016   0.319   1.535 -0.3337  1.2779 -0.9020
  107MOL   C13840630   7.099   0.289   1.407  0.0300  0.3103  0.4119
  107MOL   C13940631   7.055   0.365   1.280  0.6341 -0.2560 -0.7405
  107MOL   C14040632   7.117   0.508   1.279 -0.2612 -0.0519 -0.1723
  107MOL   C14140633   7.083   0.133   1.396  0.3938  0.0497 -0.0039
  107MOL   H14240634   6.892   0.081   1.495  0.7372 -0.5200 -1.0531
  107MOL   H14340635   6.943   0.204   1.700  0.1446  2.4132  0.1677
  107MOL   H14440636   7.115   0.191   1.678 -1.9839  0.9560  3.2553
  107MOL   H14540637   6.912   0.336   1.507 -0.4116 -0.1318 -1.5466
  107MOL   H14640638   7.041   0.411   1.588  0.1885 -0.5746  2.1887
  107MOL   H14740639   7.203   0.312   1.430  0.0601  2.5712 -1.8446
  107MOL   H14840640   6.947   0.356   1.271  0.7766 -1.2594 -1.5921
  107MOL   H14940641   7.104   0.319   1.194 -0.6665  0.4528 -1.8749
  107MOL   H15040642   7.064   0.577   1.345  0.1220  0.8796 -0.8352
  107MOL   H15140643   7.218   0.521   1.317 -0.1200  1.2289 -0.9769
  107MOL   H15240644   7.173   0.074   1.382 -0.8184 -1.3151 -2.2702
  107MOL   H15340645   7.022   0.086   1.319  1.9365  0.1199 -1.3144
  107MOL   C15440646   7.130   0.580   1.145  0.6361 -0.4155 -0.5086
  107MOL   C15540647   7.166   0.721   1.154 -0.3375  0.4308 -0.5557
  107MOL   C15640648   7.041   0.795   1.162  1.4004  0.0263 -0.4174
  107MOL   C15740649   6.931   0.721   1.077 -0.3435  0.1361  0.1172
  107MOL   C15840650   6.789   0.714   1.140 -0.3175  1.0941  0.3691
  107MOL   C15940651   6.688   0.643   1.038 -0.0797  0.2253  0.0530
  107MOL   C16040652   6.998   0.583   1.065  0.3443 -0.0408  0.0323
  107MOL   H16140653   7.205   0.531   1.082 -1.1263 -1.1746 -2.0623
  107MOL   H16240654   7.229   0.742   1.241 -1.2741  0.5544  0.1064
  107MOL   H16340655   7.217   0.749   1.062  1.9693 -0.2033  0.4931
  107MOL   H16440656   7.017   0.797   1.269  0.2040  1.6505 -0.6921
  107MOL   H16540657   7.055   0.898   1.131 -0.5877 -0.1515 -1.9848
  107MOL   H16640658   6.924   0.777   0.984  1.0751 -3.6554 -2.3583
  107MOL   H16740659   6.748   0.809   1.174  0.7331  1.4503  0.6569
  107MOL   H16840660   6.799   0.650   1.228  1.3396  1.1378  0.2291
  107MOL   H16940661   6.680   0.707   0.950 -0.8744 -1.1757 -0.9279
  107MOL   H17040662   6.730   0.551   0.997 -0.8890  0.0786 -0.4558
  107MOL   H17140663   7.019   0.565   0.959  0.7280 -1.6578  0.3595
  107MOL   H17240664   6.919   0.509   1.080  0.5006  0.0495  1.3607
  107MOL   C17340665   6.557   0.611   1.103 -0.5205  0.1367 -0.5659
  107MOL   C17440666   6.460   0.736   1.100 -0.0970 -0.2846 -0.0395
  107MOL   C17540667   6.330   0.688   1.033  0.5813 -0.3481  0.2407
  107MOL   C17640668   6.332   0.532   1.046 -0.7882 -0.3155 -0.4432
  107MOL   C17740669   6.243   0.470   0.935  0.2034 -0.2796  0.2344
  107MOL   C17840670   6.219   0.321   0.964  0.0961 -0.3266 -0.6025
  107MOL   C17940671   6.478   0.505   1.028 -0.2120  0.6899 -0.1641
  107MOL   H18040672   6.558   0.571   1.204 -2.2223 -0.3073 -0.6938
  107MOL   H18140673   6.507   0.815   1.042  0.9394 -0.2953  0.7457
  107MOL   H18240674   6.434   0.769   1.201 -3.3529 -0.1984 -0.8616
  107MOL   H18340675   6.239   0.723   1.083 -1.1584 -3.6558 -0.4692
  107MOL   H18440676   6.326   0.717   0.928 -1.5780  2.3023  0.9736
  107MOL   H18540677   6.304   0.501   1.146  0.4953 -0.3192 -0.0801
  107MOL   H18640678   6.273   0.497   0.833 -0.1927 -0.7658 -0.0135
  107MOL   H18740679   6.142   0.511   0.942  0.0196 -1.0648  2.2480
  107MOL   H18840680   6.125   0.282   0.925 -0.7342  0.6955  0.3599
  107MOL   H18940681   6.209   0.307   1.071 -0.3658 -0.1317 -0.6183
  107MOL   H19040682   6.507   0.499   0.923  0.3950 -1.2472  0.0919
  107MOL   H19140683   6.499   0.406   1.069  1.7256  0.1290 -2.4512
  107MOL   C19240684   6.327   0.224   0.905 -0.4140 -0.3000 -0.8000
  107MOL   C19340685   6.310   0.201   0.756  0.1645  0.0355 -0.3384
  107MOL   C19440686   6.321   0.054   0.739  0.9018  0.2444  0.5018
  107MOL   C19540687   6.262   7.638   0.866 -0.0188  0.7965  0.0532
  107MOL   C19640688   6.304   7.492   0.893 -0.2305  0.7344 -0.3600
  107MOL   C19740689   6.220   7.396   0.818 -0.3537 -0.6211 -0.3596
  107MOL   C19840690   6.303   0.085   0.970 -0.4249 -0.7203  0.2144
  107MOL   H19940691   6.424   0.271   0.923 -1.0255  1.0062 -0.7875
  107MOL   H20040692   6.213   0.238   0.725 -1.0624 -0.3719  2.8147
  107MOL   H20140693   6.376   0.257   0.690 -2.4462  0.9474 -2.2581
  107MOL   H20240694   6.427   0.031   0.729  0.4616 -1.0637 -1.3617
  107MOL   H20340695   6.275   0.018   0.647 -0.6568 -0.7609  1.6581
  107MOL   H20440696   6.157   0.004   0.838 -0.1616 -0.1874  0.1198
  107MOL   H20540697   6.276   7.473   0.997  0.0179 -1.1129 -0.6100
  107MOL   H20640698   6.409   7.476   0.871 -0.5643  0.4730 -1.8212
  107MOL   H20740699   6.223   7.410   0.710  0.1795 -0.3903 -0.3167
  107MOL   H20840700   6.121   7.414   0.860  1.1252 -0.5908  3.2512
  107MOL   H20940701   6.395   0.061   1.024  0.3401 -1.0322 -1.1983
  107MOL   H21040702   6.226   0.095   1.045 -0.7748 -0.5693 -0.1628
  107MOL   C21140703   6.249   7.253   0.848  0.7462  0.0935 -0.1815
  107MOL   C21240704   6.362   7.186   0.783 -0.0868 -0.0698 -0.2293
  107MOL   C21340705   6.333   7.030   0.772 -0.0341 -0.5554 -0.3145
  107MOL   C21440706   6.184   7.019   0.795  0.2570 -0.4819  0.4568
  107MOL   C21540707   6.107   6.928   0.695 -0.3641  0.1507  0.7156
  107MOL   C21640708   6.138   6.772   0.718 -0.7889 -0.1348  0.1626
  107MOL   C21740709   6.135   7.165   0.792 -0.1346  0.2267  0.6030
  107MOL   H21840710   6.249   7.258   0.957  0.0685  2.0453 -0.2534
  107MOL   H21940711   6.388   7.235   0.689  2.6707  1.1054  1.0498
  107MOL   H22040712   6.452   7.202   0.844 -0.7970  2.1504  0.2767
  107MOL   H22140713   6.359   6.985   0.676  0.4585 -4.9037  1.7199
  107MOL   H22240714   6.397   6.963   0.830  2.0102  1.0730 -0.6215
  107MOL   H22340715   6.163   6.983   0.896  0.2163 -0.6007  0.4057
  107MOL   H22440716   6.132   6.959   0.593 -1.7120 -2.3593 -0.4255
  107MOL   H22540717   5.999   6.943   0.704 -0.1114  2.5258  0.0668
  107MOL   H22640718   6.245   6.756   0.732 -0.9289 -1.5795 -0.2673
  107MOL   H22740719   6.097   6.738   0.813 -0.1872 -2.4836 -0.3851
  107MOL   H22840720   6.040   7.169   0.846  1.4349  2.1949  3.3610
  107MOL   H22940721   6.121   7.196   0.688 -0.5276 -0.6220  0.3971
  107MOL   C23040722   6.078   6.687   0.600 -0.3529 -0.3837  0.1998
  107MOL   C23140723   6.078   6.537   0.627 -0.4663  0.4937  0.1299
  107MOL   C23240724   6.129   6.476   0.500 -0.2893  0.0759 -0.6309
  107MOL   C23340725   6.208   6.586   0.421 -0.3316 -0.1462  0.1878
  107MOL   C23440726   6.230   6.560   0.278 -0.1985  1.3640 -0.0634
  107MOL   C23540727   6.322   6.438   0.257 -0.1660 -0.3890  0.7278
  107MOL   C23640728   6.140   6.717   0.462 -0.3827  0.0675  0.2628
  107MOL   H23740729   5.973   6.713   0.591 -0.8335 -2.2134  0.3438
  107MOL   H23840730   6.152   6.504   0.701  0.9467  2.6975 -0.2653
  107MOL   H23940731   5.978   6.506   0.658 -1.3009  1.2526 -1.7806
  107MOL   H24040732   6.042   6.451   0.440 -1.0745 -0.4464  0.7049
  107MOL   H24140733   6.181   6.388   0.538 -1.5458 -0.3003  0.2478
  107MOL   H24240734   6.308   6.588   0.464 -1.1829  0.7100  2.2165
  107MOL   H24340735   6.275   6.648   0.230  1.3003 -0.0047 -1.2549
  107MOL   H24440736   6.130   6.543   0.238  0.1109  0.0819 -0.3141
  107MOL   H24540737   6.401   6.437   0.332  1.1262  1.2682 -0.5723
  107MOL   H24640738   6.256   6.351   0.255 -1.0021  0.2596 -0.8873
  107MOL   H24740739   6.074   6.757   0.386 -0.7244 -0.0063  0.5198
  107MOL   H24840740   6.212   6.799   0.460 -0.2498  0.0364  2.2226
  107MOL   C24940741   6.383   6.433   0.114 -0.1779  0.1929  0.2712
  107MOL   C25040742   6.498   6.527   0.111  0.2295 -0.6701 -0.2274
  107MOL   C25140743   6.589   6.477   7.645 -0.5625 -1.3440  0.1397
  107MOL   C25240744   6.586   6.323   7.644  0.2868 -0.4484 -0.0827
  107MOL   C25340745   6.573   6.260   7.505 -0.1827 -0.0673  0.4667
  107MOL   C25440746   6.708   6.249   7.423  0.1001  0.2711  0.4840
  107MOL   C25540747   6.455   6.297   0.076  0.1162  0.1247 -0.6778
  107MOL   H25640748   6.306   6.456   0.040 -0.6617  1.6717  1.2190
  107MOL   H25740749   6.480   6.631   0.085 -1.2395 -0.7894  0.2337
  107MOL   H25840750   6.553   6.520   0.204  1.5521  0.4978 -0.9044
  107MOL   H25940751   6.691   6.510   0.015 -0.1206 -2.5977 -0.0764
  107MOL   H26040752   6.558   6.523   7.551  1.4761 -1.9725 -0.8680
  107MOL   H26140753   6.660   6.265   0.052  0.1263 -1.2245 -0.6817
  107MOL   H26240754   6.510   6.326   7.447  1.3920  1.0032 -0.0351
  107MOL   H26340755   6.527   6.161   7.510 -0.6719 -0.0028 -2.1041
  107MOL   H26440756   6.781   6.197   7.485  2.2029  1.8574 -0.5781
  107MOL   H26540757   6.745   6.351   7.413 -0.0344  0.6413  3.2659
  107MOL   H26640758   6.493   6.252   0.168 -3.2247 -0.6515  0.4060
  107MOL   H26740759   6.386   6.224   0.033  2.6923 -2.0069 -1.3323
  107MOL   C26840760   6.699   6.169   7.286  0.0061  0.0731  0.1936
  107MOL   C26940761   6.831   6.167   7.206  0.3252 -0.3331 -0.7970
  107MOL   C27040762   6.773   6.118   7.072  0.0111  0.5937 -0.3893
  107MOL   C27140763   6.627   6.177   7.053  0.3454  0.0889 -0.4766
  107MOL   C27240764   6.625   6.275   6.940  0.0643  0.1357  0.3806
  107MOL   C27340765   6.484   6.332   6.906  0.5207 -0.1064 -0.2341
  107MOL   C27440766   6.597   6.232   7.197 -0.6267 -1.1071 -0.8271
  107MOL   H27540767   6.678   6.065   7.313  0.0373  0.0032 -0.0547
  107MOL   H27640768   6.874   6.267   7.212  3.0840 -1.4975 -0.3444
  107MOL   H27740769   6.900   6.101   7.259  0.7128  1.9797  1.6843
  107MOL   H27840770   6.844   6.142   6.992 -0.0644 -1.3720 -1.0736
  107MOL   H27940771   6.762   6.010   7.076 -1.8973  0.8027  0.7544
  107MOL   H28040772   6.560   6.093   7.036  0.2811 -0.0962  0.6586
  107MOL   H28140773   6.660   6.223   6.852 -1.2350 -0.3024  0.1114
  107MOL   H28240774   6.703   6.344   6.972 -0.2411  0.7027 -0.0807
  107MOL   H28340775   6.429   6.339   7.000  0.8764 -0.9753  0.0449
  107MOL   H28440776   6.481   6.429   6.857  0.4321  0.2442  0.4635
  107MOL   H28540777   6.610   6.340   7.208  1.5874 -1.3709 -0.7452
  107MOL   H28640778   6.494   6.213   7.228 -1.0177  3.4648  1.0364
  107MOL   C28740779   6.413   6.237   6.807  0.9628 -0.0307  0.4281
  107MOL   C28840780   6.268   6.268   6.789  0.2587  0.2007 -0.0159
  107MOL   C28940781   6.232   6.197   6.655  0.3443 -0.5571 -0.5329
  107MOL   C29040782   6.359   6.217   6.568  0.5339 -0.5371 -0.8312
  107MOL   C29140783   6.348   6.342   6.471  0.1322 -0.3051  0.4483
  107MOL   C29240784   6.256   6.304   6.350 -0.1006  0.2330  0.7442
  107MOL   C29340785   6.473   6.249   6.665 -0.2664 -0.7902  0.4859
  107MOL   H29440786   6.416   6.130   6.829 -1.1089 -0.2880 -0.4562
  107MOL   H29540787   6.207   6.246   6.877 -1.7358 -1.9776 -1.8459
  107MOL   H29640788   6.251   6.375   6.775 -1.0067 -0.0215 -0.2621
  107MOL   H29740789   6.140   6.233   6.611  0.7306  0.6758 -0.3667
  107MOL   H29840790   6.218   6.091   6.673  2.4749 -0.7938 -0.1371
  107MOL   H29940791   6.375   6.129   6.507  0.5240 -0.4031 -1.0273
  107MOL   H30040792   6.447   6.383   6.454  0.5524 -1.5706 -0.2824
  107MOL   H30140793   6.293   6.417   6.527 -0.2314 -0.5571  0.4326
  107MOL   H30240794   6.182   6.231   6.384  2.6723 -2.7416  0.6253
  107MOL   H30340795   6.313   6.255   6.271 -0.2278 -1.4497  1.6626
  107MOL   H30440796   6.505   6.351   6.643 -0.2363 -1.0635 -0.7496
  107MOL   H30540797   6.556   6.179   6.653  0.7192  0.2989  0.7864
  107MOL   C30640798   6.175   6.429   6.288 -0.1382  0.5315 -0.6890
  107MOL   C30740799   6.253   6.543   6.221 -0.4825 -0.4840  0.1713
  107MOL   C30840800   6.153   6.614   6.130 -0.3104 -0.3590  0.4641
  107MOL   C30940801   6.046   6.509   6.103 -0.2501 -0.3318 -0.0973
  107MOL   C31040802   6.024   6.482   5.953 -0.7250 -0.2117  0.0829
  107MOL   C31140803   5.984   6.595   5.863  0.0539  0.0075 -0.0678
  107MOL   C31240804   6.083   6.378   6.182  0.1948 -0.4826 -0.6307
  107MOL   H31340805   6.112   6.473   6.365  1.8193 -0.5724  1.6169
  107MOL   H31440806   6.308   6.608   6.288 -2.4325  0.8120  0.5580
  107MOL   H31540807   6.329   6.513   6.149  1.2928  0.7282  1.5000
  107MOL   H31640808   6.108   6.706   6.169  0.3976  0.8026 -1.3750
  107MOL   H31740809   6.203   6.639   6.037  0.7557 -0.5299  0.9768
  107MOL   H31840810   5.958   6.552   6.151  1.0161  1.4729  0.6731
  107MOL   H31940811   6.116   6.447   5.906  0.2862  1.3768  0.8593
  107MOL   H32040812   5.942   6.410   5.962  0.6398 -1.7810  0.4201
  107MOL   H32140813   6.061   6.672   5.861  1.7209 -1.5608  1.2426
  107MOL   H32240814   5.900   6.640   5.916  2.0673  0.2377  3.0652
  107MOL   H32340815   6.138   6.322   6.107 -0.2383  0.0850 -1.3834
  107MOL   H32440816   5.990   6.326   6.205  1.9169 -3.4403 -0.0695
  107MOL   C32540817   5.945   6.554   5.724 -0.8937  0.1141  0.2982
  107MOL   C32640818   5.884   6.655   5.623 -0.7464 -0.8358  0.5763
  107MOL   C32740819   5.958   6.637   5.493  0.8662  0.2138  0.0172
  107MOL   C32840820   6.040   6.508   5.506  0.1911 -0.0264 -0.2684
  107MOL   C32940821   5.968   6.393   5.444 -0.3994 -0.8475 -0.0206
  107MOL   C33040822   6.055   6.274   5.395 -0.0569 -0.2788 -0.3496
  107MOL   C33140823   6.066   6.500   5.653  1.0712 -0.5328  0.2968
  107MOL   H33240824   5.871   6.475   5.728 -1.9123  0.7132 -4.0658
  107MOL   H33340825   5.906   6.753   5.667 -1.3293  1.1742 -3.3571
  107MOL   H33440826   5.776   6.649   5.613 -0.5405 -3.4547 -0.2808
  107MOL   H33540827   5.901   6.650   5.402 -0.4286 -1.4630  0.5714
  107MOL   H33640828   6.032   6.716   5.476 -1.3725  1.8146 -2.6560
  107MOL   H33740829   6.130   6.526   5.447  0.8160  0.3266  0.7760
  107MOL   H33840830   5.902   6.351   5.520  1.2018 -1.0587  1.2702
  107MOL   H33940831   5.905   6.420   5.359  1.8107  1.9031 -0.8274
  107MOL   H34040832   6.142   6.302   5.335 -1.8197  0.6220 -2.5522
  107MOL   H34140833   6.094   6.220   5.482  1.8857  2.3883  0.5206
  107MOL   H34240834   6.155   6.556   5.684 -1.3070  1.9328  3.0686
  107MOL   H34340835   6.087   6.396   5.680  0.0240 -0.5730  0.9795
  107MOL   C34440836   5.976   6.170   5.306 -0.1183  0.8315 -0.7211
  107MOL   C34540837   6.060   6.044   5.294  0.2115  0.5940 -0.3399
  107MOL   C34640838   6.069   6.005   5.146  0.7482  0.1731 -0.1458
  107MOL   C34740839   6.036   6.139   5.077  0.1633 -0.6936 -0.1842
  107MOL   C34840840   5.998   6.118   4.933  0.4721 -1.5353  0.4702
  107MOL   C34940841   6.113   6.103   4.834  0.2606 -0.4554  0.2100
  107MOL   C35040842   5.932   6.211   5.165  0.5786  0.4984 -0.9696
  107MOL   H35140843   5.889   6.143   5.366  1.1868  0.5209  1.0805
  107MOL   H35240844   6.021   5.955   5.344  0.1569  0.9033  0.1710
  107MOL   H35340845   6.153   6.063   5.348  0.0206 -1.1010  0.6306
  107MOL   H35440846   6.164   5.955   5.132  1.1821  1.0511 -0.3744
  107MOL   H35540847   5.994   5.928   5.127 -0.6919  1.8824 -1.5742
  107MOL   H35640848   6.124   6.202   5.090 -2.4450  3.5517 -2.0616
  107MOL   H35740849   5.925   6.037   4.930  1.1759 -2.2071  1.1695
  107MOL   H35840850   5.943   6.204   4.894  0.6714 -0.8187  1.7320
  107MOL   H35940851   6.187   6.184   4.833 -0.5151  0.2523 -0.5811
  107MOL   H36040852   6.068   6.119   4.736 -1.0458  0.5998  0.9701
  107MOL   H36140853   5.934   6.320   5.159 -1.0050  0.6696  1.2362
  107MOL   H36240854   5.831   6.178   5.143  0.5075 -0.5374  0.8416
  107MOL   C36340855   6.181   5.968   4.838  0.1045 -0.5821  0.9443
  107MOL   C36440856   6.291   5.955   4.731  0.6847  0.8749  0.0269
  107MOL   C36540857   6.263   5.827   4.659 -0.4406  0.3739  0.2233
  107MOL   C36640858   6.166   5.744   4.758 -0.2262  0.0254 -0.7262
  107MOL   C36740859   6.081   5.635   4.686  0.4774 -0.2918  0.2650
  107MOL   C36840860   6.010   5.544   4.786 -0.0631 -0.0630 -0.0514
  107MOL   C36940861   6.086   5.859   4.821 -0.3196  0.8544 -0.5868
  107MOL   H37040862   6.231   5.946   4.933 -1.0460 -0.0233  1.6829
  107MOL   H37140863   6.294   6.043   4.666 -0.3233  0.8060 -0.1153
  107MOL   H37240864   6.388   5.947   4.780  1.3601 -2.8144 -1.7371
  107MOL   H37340865   6.225   5.846   4.558  1.8070  1.1379 -0.5242
  107MOL   H37440866   6.359   5.778   4.645 -0.9309 -0.2540 -1.0338
  107MOL   H37540867   6.234   5.694   4.827  0.6741  1.5546 -0.4807
  107MOL   H37640868   6.001   5.679   4.625  0.6718  0.7157  0.7209
  107MOL   H37740869   6.153   5.583   4.622  0.2927  0.6019 -0.6980
  107MOL   H37840870   5.919   5.586   4.829  0.1404  0.5095 -0.1766
  107MOL   H37940871   6.061   5.506   4.875  0.5162 -0.7058 -0.6509
  107MOL   H38040872   6.006   5.870   4.749 -1.7738 -0.6612  0.7532
  107MOL   H38140873   6.036   5.820   4.910  2.4392 -0.6047  0.4054
  107MOL   H38240874   5.973   5.458   4.730  0.3095 -0.5600  0.4555
  108MOL     C140875   2.770   1.394   0.774  0.5093 -0.9059  0.1111
  108MOL     C240876   2.623   1.406   0.841  0.2148 -0.5426 -0.1784
  108MOL     C340877   2.527   1.344   0.741  0.0250 -0.6957  0.7973
  108MOL     C440878   2.606   1.223   0.684 -0.1448  0.3210  0.1965
  108MOL     C540879   2.556   1.161   0.555 -0.2848  0.3535  0.5055
  108MOL     C640880   2.404   1.125   0.565 -0.1966  0.4846 -0.4423
  108MOL     C740881   2.749   1.283   0.666  0.0783  0.5371 -0.3948
  108MOL     H840882   2.792   1.490   0.728 -1.3845 -0.9415 -0.9190
  108MOL     H940883   2.605   1.503   0.888  0.9108  0.4338 -1.8709
  108MOL    H1040884   2.618   1.345   0.931 -1.2282 -0.8500 -0.4568
  108MOL    H1140885   2.432   1.316   0.785 -1.7684  2.1330 -1.1111
  108MOL    H1240886   2.511   1.415   0.660  0.0498 -2.6666 -0.9857
  108MOL    H1340887   2.603   1.147   0.762 -1.1339  0.2842  0.1252
  108MOL    H1440888   2.549   1.242   0.482 -0.3830 -0.0312  0.0902
  108MOL    H1540889   2.617   1.079   0.519 -0.8747  0.4080 -0.6237
  108MOL    H1640890   2.390   1.075   0.661  0.2662  1.9493  0.4002
  108MOL    H1740891   2.336   1.210   0.563 -0.4115  0.3719  1.3118
  108MOL    H1840892   2.820   1.200   0.672 -1.3572 -0.5689  2.5591
  108MOL    H1940893   2.766   1.334   0.571  0.2896  2.3311  0.5881
  108MOL    H2040894   2.845   1.366   0.849  0.2916 -0.1843  0.6045
  108MOL    C2140895   2.354   1.024   0.459 -0.3265  0.0346  0.1116
  108MOL    C2240896   2.196   0.980   0.457  0.1235  0.0618  0.1435
  108MOL    C2340897   2.158   0.995   0.303  0.2152 -0.2618 -0.1899
  108MOL    C2440898   2.290   1.001   0.226 -0.1899  0.0439  0.3162
  108MOL    C2540899   2.281   1.042   0.082  0.2290 -0.1165  0.0539
  108MOL    C2640900   2.407   1.049   0.002 -0.3334  0.2847  0.1813
  108MOL    C2740901   2.384   1.084   0.318  0.4988 -0.8273 -0.1538
  108MOL    H2840902   2.417   0.936   0.466 -0.1733  0.2768  2.4639
  108MOL    H2940903   2.180   0.874   0.476 -1.5342  0.1738 -0.5502
  108MOL    H3040904   2.128   1.039   0.518  2.1640  2.2201  0.4264
  108MOL    H3140905   2.100   0.909   0.270 -1.6551  0.0606  2.1213
  108MOL    H3240906   2.094   1.082   0.296 -0.6385 -0.6211  2.5621
  108MOL    H3340907   2.329   0.900   0.216  0.3963  0.0888  1.9202
  108MOL    H3440908   2.230   1.138   0.075  0.3962 -0.0620 -0.4390
  108MOL    H3540909   2.213   0.974   0.030  2.0423 -0.8371 -1.4065
  108MOL    H3640910   2.465   0.958   7.634  0.8805  1.1216 -0.3124
  108MOL    H3740911   2.472   1.110   0.064  2.2864 -0.8431 -1.3696
  108MOL    H3840912   2.491   1.075   0.300  0.8820  0.9334  1.0977
  108MOL    H3940913   2.368   1.191   0.309  0.7614 -0.5455  2.2918
  108MOL    C4040914   2.390   1.109   7.507  0.3442  0.2186  0.2772
  108MOL    C4140915   2.518   1.138   7.432 -0.5369 -0.8163  0.2635
  108MOL    C4240916   2.474   1.159   7.291 -0.3927  0.0206  0.5137
  108MOL    C4340917   2.366   1.055   7.268  0.3804  0.1871 -0.7250
  108MOL    C4440918   2.259   1.092   7.163  0.1624  0.0411  0.4402
  108MOL    C4540919   2.154   0.981   7.155  0.0232  0.5070  0.6330
  108MOL    C4640920   2.312   1.027   7.407 -0.2688  0.0045 -0.4048
  108MOL    H4740921   2.341   1.206   7.520 -2.2145 -0.7868 -1.4110
  108MOL    H4840922   2.576   1.047   7.447  1.3450  0.5361  1.5579
  108MOL    H4940923   2.578   1.221   7.472 -2.6436  1.5117 -1.2899
  108MOL    H5040924   2.437   1.261   7.276 -0.2644  0.0522  0.4051
  108MOL    H5140925   2.557   1.149   7.221  0.5725  1.9533  1.3513
  108MOL    H5240926   2.411   0.959   7.244 -1.8125 -0.7919 -1.0521
  108MOL    H5340927   2.222   1.188   7.200  1.5278  0.5757  0.4309
  108MOL    H5440928   2.306   1.104   7.065 -1.2989  1.6389 -0.0938
  108MOL    H5540929   2.124   0.942   7.252  0.6390 -1.5212  0.0391
  108MOL    H5640930   2.199   0.898   7.101 -0.9398  0.5012 -0.1839
  108MOL    H5740931   2.210   1.063   7.420 -0.2707  0.6541 -2.1193
  108MOL    H5840932   2.324   0.920   7.428  1.2973  0.4358  0.9077
  108MOL    C5940933   2.028   1.018   7.065  0.0209  0.5254 -0.4697
  108MOL    C6040934   1.907   0.926   7.094 -0.4874  0.4375 -0.1776
  108MOL    C6140935   1.776   1.002   7.087  0.0328 -0.0819 -1.0307
  108MOL    C6240936   1.817   1.143   7.055 -0.4684 -1.1139  0.1767
  108MOL    C6340937   1.784   1.193   6.913 -0.1790 -0.0988 -0.0392
  108MOL    C6440938   1.641   1.249   6.893  0.7757 -0.9284  0.0176
  108MOL    C6540939   1.960   1.152   7.094  0.2261 -0.4451 -0.5495
  108MOL    H6640940   2.043   1.009   6.957  1.0741  2.0225 -0.4692
  108MOL    H6740941   1.894   0.844   7.023 -1.3388 -1.3666  2.0208
  108MOL    H6840942   1.914   0.885   7.194  2.3084  0.8279 -0.1771
  108MOL    H6940943   1.707   0.963   7.013 -0.4873 -0.2646 -0.4507
  108MOL    H7040944   1.726   0.999   7.183 -1.4656  0.4799 -1.7765
  108MOL    H7140945   1.748   1.198   7.120 -1.6044  0.7428 -2.4914
  108MOL    H7240946   1.790   1.105   6.849 -0.1542 -1.0280  1.2012
  108MOL    H7340947   1.860   1.261   6.874 -0.5485 -0.6644 -1.7611
  108MOL    H7440948   1.580   1.159   6.906  2.9399 -2.4797 -0.3621
  108MOL    H7540949   1.609   1.319   6.970  0.7904  0.9970 -1.6703
  108MOL    H7640950   2.017   1.235   7.053 -0.8046  0.0911 -0.9107
  108MOL    H7740951   1.964   1.173   7.201  1.0657 -0.5886 -0.5502
  108MOL    C7840952   1.616   1.307   6.753 -0.0313  0.4544 -0.6042
  108MOL    C7940953   1.477   1.372   6.739  0.3754 -0.3909  0.2249
  108MOL    C8040954   1.495   1.498   6.667 -0.3203 -0.1852 -0.0168
  108MOL    C8140955   1.638   1.495   6.606  0.3451 -0.1908 -0.9717
  108MOL    C8240956   1.699   1.631   6.576 -0.6833 -0.7551 -0.1156
  108MOL    C8340957   1.619   1.716   6.482 -0.1106  0.3886 -0.1802
  108MOL    C8440958   1.717   1.417   6.711  0.4469  0.1610  0.1383
  108MOL    H8540959   1.628   1.231   6.676 -0.5147  1.3110 -1.5301
  108MOL    H8640960   1.394   1.316   6.697  1.6798 -0.8539 -1.8117
  108MOL    H8740961   1.435   1.399   6.836  0.0553 -0.3449  0.0742
  108MOL    H8840962   1.423   1.510   6.586  0.3707 -0.4514 -0.6824
  108MOL    H8940963   1.486   1.581   6.738 -1.1086 -0.5465  0.3062
  108MOL    H9040964   1.632   1.434   6.517  0.3753 -1.9702  0.2228
  108MOL    H9140965   1.803   1.622   6.544 -0.0854  2.9586  0.4492
  108MOL    H9240966   1.694   1.683   6.672  0.8885  1.0335 -0.9699
  108MOL    H9340967   1.511   1.716   6.501  0.1754 -0.2535  1.4673
  108MOL    H9440968   1.637   1.678   6.381  0.8538  1.1390 -0.2991
  108MOL    H9540969   1.742   1.475   6.799 -0.0131 -0.7506  0.8857
  108MOL    H9640970   1.811   1.378   6.673  0.0905 -0.3273 -0.2615
  108MOL    C9740971   1.653   1.871   6.476 -0.2290  0.1786  0.4672
  108MOL    C9840972   1.660   1.951   6.606 -0.2018 -0.2734 -0.7887
  108MOL    C9940973   1.608   2.084   6.571  0.1022 -0.0626  0.3591
  108MOL   C10040974   1.583   2.086   6.420  0.0665 -0.4018 -0.3342
  108MOL   C10140975   1.467   2.177   6.373  0.4748 -0.1206  0.1111
  108MOL   C10240976   1.477   2.326   6.396  0.2171  0.3925  0.1904
  108MOL   C10340977   1.559   1.943   6.385  0.3681 -0.2937  0.8497
  108MOL   H10440978   1.753   1.876   6.431 -0.9952 -0.5861 -1.3566
  108MOL   H10540979   1.603   1.898   6.683 -0.4042 -0.3889 -1.0173
  108MOL   H10640980   1.757   1.957   6.655 -1.5238  0.8873  1.8020
  108MOL   H10740981   1.515   2.104   6.625 -0.5410  0.2061 -0.8198
  108MOL   H10840982   1.672   2.166   6.602  3.4043 -2.2939 -0.3666
  108MOL   H10940983   1.669   2.122   6.362  0.5301 -0.0818  0.5351
  108MOL   H11040984   1.458   2.141   6.270  1.0692  0.3030 -0.0932
  108MOL   H11140985   1.377   2.143   6.423  2.1446 -2.1929  1.8021
  108MOL   H11240986   1.526   2.348   6.491  2.5774  2.0407 -1.3620
  108MOL   H11340987   1.535   2.369   6.315 -2.5913  0.9695 -1.5844
  108MOL   H11440988   1.453   1.926   6.404 -0.1985  2.6367  0.5345
  108MOL   H11540989   1.583   1.923   6.281 -1.2256  1.1916  0.1615
  108MOL   C11640990   1.338   2.394   6.398 -0.3930 -0.3214  0.2215
  108MOL   C11740991   1.252   2.356   6.517  0.5034  0.6696  0.5903
  108MOL   C11840992   1.175   2.475   6.564 -0.1568  0.9776 -0.3358
  108MOL   C11940993   1.207   2.578   6.464  0.1096 -0.4623 -0.4378
  108MOL   C12040994   1.200   2.717   6.520  0.0505  0.0373 -0.2126
  108MOL   C12140995   1.057   2.776   6.515 -0.9037  0.1988  0.0994
  108MOL   C12240996   1.345   2.543   6.421 -0.1786  0.0501  0.2180
  108MOL   H12340997   1.274   2.374   6.313  0.5803  1.2922 -0.9125
  108MOL   H12440998   1.319   2.321   6.596 -3.1688 -1.7649  2.7325
  108MOL   H12540999   1.191   2.270   6.488  1.6607  0.4967 -1.4930
  108MOL   H12641000   1.223   2.514   6.654 -2.2041  1.5953  0.5270
  108MOL   H12741001   1.069   2.460   6.583 -0.8629  3.7553 -1.7862
  108MOL   H12841002   1.144   2.566   6.376 -0.3011 -0.4671 -0.1424
  108MOL   H12941003   1.244   2.793   6.456 -0.1985  0.7496  0.4516
  108MOL   H13041004   1.241   2.730   6.621  1.9165  0.6719 -1.0269
  108MOL   H13141005   0.987   2.705   6.558  0.9706 -1.6931  0.1129
  108MOL   H13241006   1.026   2.783   6.411 -0.8382  3.6735  0.2514
  108MOL   H13341007   1.363   2.590   6.324 -0.3485  1.8083  1.0156
  108MOL   H13441008   1.425   2.566   6.492  0.9446  0.3835 -1.1142
  108MOL   C13541009   1.062   2.910   6.595 -1.0522 -0.3874  0.3962
  108MOL   C13641010   0.933   2.989   6.580 -0.3814 -0.2762  0.0182
  108MOL   C13741011   0.932   3.089   6.697  0.4255  0.7148  0.7147
  108MOL   C13841012   1.028   3.017   6.805  0.0775 -0.0595  0.4436
  108MOL   C13941013   1.094   3.115   6.900  0.0150 -0.2285  0.5390
  108MOL   C14041014   1.163   3.051   7.020 -0.1684  0.4328  0.4952
  108MOL   C14141015   1.109   2.908   6.737  0.1465  0.5580  0.4272
  108MOL   H14241016   1.139   2.971   6.546 -2.8336  1.0641 -0.6504
  108MOL   H14341017   0.919   3.032   6.481  1.4230  1.6599  0.5869
  108MOL   H14441018   0.847   2.921   6.589 -0.6505 -0.0075 -0.4837
  108MOL   H14541019   0.978   3.183   6.667 -3.9130  2.8608  0.4266
  108MOL   H14641020   0.831   3.093   6.738  0.3702 -0.3045  0.6966
  108MOL   H14741021   0.969   2.957   6.874  3.2754 -3.2817  0.4890
  108MOL   H14841022   1.015   3.176   6.946 -1.4254 -0.0731 -2.0483
  108MOL   H14941023   1.157   3.189   6.851 -2.4987  1.4228 -0.3291
  108MOL   H15041024   1.105   2.972   7.068  0.3856 -0.1841  0.1491
  108MOL   H15141025   1.233   2.982   6.973 -2.7098 -1.6866 -0.3457
  108MOL   H15241026   1.103   2.806   6.775  0.1594  0.3773 -0.0545
  108MOL   H15341027   1.213   2.939   6.741  0.4023 -0.1568 -0.4283
  108MOL   C15441028   1.228   3.148   7.120 -0.3574  0.3798 -0.3083
  108MOL   C15541029   1.315   3.258   7.054  0.2328  0.3823  0.5967
  108MOL   C15641030   1.435   3.285   7.133 -0.0140 -0.2303  0.0714
  108MOL   C15741031   1.420   3.190   7.255  0.0673  0.1008  0.4160
  108MOL   C15841032   1.560   3.156   7.317 -0.0805 -0.1506  0.1296
  108MOL   C15941033   1.555   3.071   7.439 -0.0235  0.4381  0.6762
  108MOL   C16041034   1.334   3.074   7.203 -0.2083 -0.0262  0.1014
  108MOL   H16141035   1.159   3.188   7.194  1.6367  0.9085  1.3126
  108MOL   H16241036   1.346   3.214   6.959  0.9153  0.9285  0.5625
  108MOL   H16341037   1.258   3.349   7.035 -0.7640 -0.0332  1.5374
  108MOL   H16441038   1.530   3.256   7.088 -1.2053 -1.9783 -1.4110
  108MOL   H16541039   1.438   3.389   7.163  1.6841  0.1290 -1.3172
  108MOL   H16641040   1.369   3.249   7.332  0.2403 -0.4168  0.9267
  108MOL   H16741041   1.616   3.250   7.321 -0.3278  0.0754 -1.5633
  108MOL   H16841042   1.612   3.091   7.247 -0.7235  1.4391 -1.8757
  108MOL   H16941043   1.510   3.131   7.518  1.7608  0.9250  1.3472
  108MOL   H17041044   1.489   2.988   7.415  1.4784 -0.4758 -0.3505
  108MOL   H17141045   1.283   3.022   7.284 -1.2277 -0.7495 -0.9881
  108MOL   H17241046   1.404   3.017   7.142  0.7590  1.4895 -0.2234
  108MOL   C17341047   1.692   3.024   7.486  0.0592 -0.4466  0.0507
  108MOL   C17441048   1.785   3.131   7.549 -0.2887  0.1249 -0.2265
  108MOL   C17541049   1.745   3.126   0.054  0.3672 -0.2808  0.3607
  108MOL   C17641050   1.714   2.975   0.085 -0.0831 -0.3668  0.2131
  108MOL   C17741051   1.613   2.974   0.203  0.2926 -0.2393  0.9765
  108MOL   C17841052   1.551   2.834   0.225 -0.5735 -0.5840  0.0522
  108MOL   C17941053   1.678   2.910   7.590 -0.7870 -0.6018 -0.6411
  108MOL   H18041054   1.745   2.980   7.401 -0.8384 -0.4021 -0.5358
  108MOL   H18141055   1.779   3.230   7.503  0.2898 -1.2885 -3.4703
  108MOL   H18241056   1.889   3.099   7.537  0.0495  0.7213  1.0179
  108MOL   H18341057   1.836   3.160   0.103  1.4827 -0.7504 -1.3318
  108MOL   H18441058   1.662   3.187   0.090  1.4798  0.4470  1.7193
  108MOL   H18541059   1.811   2.933   0.113  1.2161  1.9286 -0.7463
  108MOL   H18641060   1.527   3.040   0.192 -0.5270 -1.4601 -0.0964
  108MOL   H18741061   1.655   2.997   0.301  2.1740  1.4259 -0.1603
  108MOL   H18841062   1.618   2.748   0.215  0.0083 -0.0214 -1.0743
  108MOL   H18941063   1.471   2.813   0.154 -2.2989 -1.8620  2.3221
  108MOL   H19041064   1.575   2.874   7.591 -1.2630  0.7476  0.0400
  108MOL   H19141065   1.750   2.829   7.580 -0.1755 -0.6024  2.8868
  108MOL   C19241066   1.491   2.823   0.365  0.4238  0.0563 -0.0982
  108MOL   C19341067   1.600   2.809   0.478  0.2336 -0.2682  0.2691
  108MOL   C19441068   1.528   2.734   0.592 -0.2320 -0.4413  0.2790
  108MOL   C19541069   1.434   2.634   0.517  0.4312 -0.2147 -0.3075
  108MOL   C19641070   1.318   2.591   0.603 -0.1207 -0.1476  0.1114
  108MOL   C19741071   1.245   2.474   0.539 -0.1431  0.0434 -0.3120
  108MOL   C19841072   1.398   2.710   0.393 -0.4718 -0.2260  0.0422
  108MOL   H19941073   1.433   2.912   0.390  1.3427  0.6765 -0.1189
  108MOL   H20041074   1.694   2.766   0.443  1.0313 -0.1518  2.2013
  108MOL   H20141075   1.622   2.912   0.506 -2.3363 -0.2162  2.2294
  108MOL   H20241076   1.463   2.799   0.651 -2.2912 -0.1840 -2.1932
  108MOL   H20341077   1.599   2.680   0.655 -1.1928 -0.4336  1.3824
  108MOL   H20441078   1.494   2.550   0.484  1.2455  0.0722  0.4134
  108MOL   H20541079   1.245   2.672   0.602 -1.4871 -1.3457  1.4659
  108MOL   H20641080   1.348   2.578   0.707  2.3473  1.0508 -0.4039
  108MOL   H20741081   1.308   2.387   0.516  0.0427 -0.1024  0.6920
  108MOL   H20841082   1.211   2.502   0.440 -0.2924  1.3355  0.0941
  108MOL   H20941083   1.305   2.757   0.425  0.1017 -0.1401  1.6036
  108MOL   H21041084   1.390   2.653   0.300  0.2684  2.6347 -1.8487
  108MOL   C21141085   1.127   2.418   0.626  0.9460 -0.0482 -0.0496
  108MOL   C21241086   1.177   2.360   0.759 -0.0509  0.0060 -0.3717
  108MOL   C21341087   1.089   2.237   0.782 -0.0230 -0.4487 -0.5233
  108MOL   C21441088   0.985   2.227   0.666  0.4406 -0.7394 -0.5230
  108MOL   C21541089   0.946   2.082   0.636  0.2862 -0.1680  0.3344
  108MOL   C21641090   0.864   2.014   0.752  0.0365  0.4889 -0.1053
  108MOL   C21741091   1.051   2.304   0.561  0.5195  0.2475 -0.1810
  108MOL   H21841092   1.056   2.499   0.648 -0.9069 -1.8422  0.7354
  108MOL   H21941093   1.278   2.330   0.731 -0.2600 -1.9097  0.8810
  108MOL   H22041094   1.185   2.438   0.835 -1.0993 -0.3356  0.0968
  108MOL   H22141095   1.162   2.156   0.786  1.0200  0.5113  0.4938
  108MOL   H22241096   1.043   2.248   0.880  0.8481 -1.7179  0.0355
  108MOL   H22341097   0.895   2.287   0.681  0.2936 -0.6120 -1.8310
  108MOL   H22441098   1.034   2.022   0.617  0.6004  0.2324  0.5231
  108MOL   H22541099   0.896   2.079   0.539  3.0392 -0.2047 -1.1322
  108MOL   H22641100   0.922   2.020   0.844  1.7143  0.4024 -1.1346
  108MOL   H22741101   0.773   2.068   0.777  0.5514  0.9846  0.7321
  108MOL   H22841102   0.980   2.341   0.487  0.2888  1.3103  0.5522
  108MOL   H22941103   1.124   2.249   0.502  1.9427  2.1104 -0.1896
  108MOL   C23041104   0.824   1.868   0.719  0.5739 -0.2829  1.1738
  108MOL   C23141105   0.698   1.854   0.642 -0.1924  0.0939  0.5833
  108MOL   C23241106   0.612   1.749   0.720  0.2424  0.2635 -0.0102
  108MOL   C23341107   0.654   1.771   0.864 -0.6232 -0.1827 -0.0366
  108MOL   C23441108   0.601   1.646   0.941 -0.1504 -0.0823  0.0698
  108MOL   C23541109   0.587   1.661   1.094 -0.2361  0.4305  0.0048
  108MOL   C23641110   0.801   1.785   0.847 -0.3555 -0.1538 -0.9433
  108MOL   H23741111   0.905   1.827   0.659 -0.5758 -1.0286  0.1273
  108MOL   H23841112   0.639   1.945   0.638  1.5008  1.2398  1.4110
  108MOL   H23941113   0.710   1.832   0.536  0.7279  1.3560  0.4150
  108MOL   H24041114   0.634   1.646   0.692  0.0864  0.0056  0.8031
  108MOL   H24141115   0.507   1.754   0.691 -0.0255  0.1260  0.9245
  108MOL   H24241116   0.605   1.864   0.892  2.0782  1.6254 -1.1001
  108MOL   H24341117   0.657   1.555   0.922  2.0715  0.7103  2.3944
  108MOL   H24441118   0.505   1.620   0.897  0.2809  0.1238 -0.9992
  108MOL   H24541119   0.552   1.762   1.111  1.1579  0.7258  1.1531
  108MOL   H24641120   0.532   1.572   1.125 -1.4664 -0.1417 -3.5310
  108MOL   H24741121   0.856   1.691   0.841 -0.8513 -0.4444 -0.9864
  108MOL   H24841122   0.841   1.843   0.930 -1.3202 -0.9637  0.0940
  108MOL   C24941123   0.718   1.647   1.166  0.4848 -0.2160 -0.6690
  108MOL   C25041124   0.691   1.662   1.315  0.0160  0.4910  0.1972
  108MOL   C25141125   0.789   1.575   1.384  0.7413  0.3038  0.0412
  108MOL   C25241126   0.782   1.450   1.298 -0.3854 -0.1629  0.5045
  108MOL   C25341127   0.907   1.345   1.324 -0.0931  0.0166 -0.1297
  108MOL   C25441128   0.881   1.267   1.456  0.0267 -0.1849  0.3660
  108MOL   C25541129   0.794   1.516   1.158  0.6206  0.3613  0.2589
  108MOL   H25641130   0.792   1.723   1.139  1.5380 -0.0220  2.5356
  108MOL   H25741131   0.704   1.765   1.347  0.6306  0.9072 -1.3305
  108MOL   H25841132   0.591   1.623   1.337 -0.9447  2.7751  0.0379
  108MOL   H25941133   0.761   1.543   1.485 -0.8613  0.0070 -0.4875
  108MOL   H26041134   0.887   1.623   1.384  0.2302  1.3577 -0.3667
  108MOL   H26141135   0.684   1.409   1.327 -0.9040  1.3830  0.9659
  108MOL   H26241136   1.002   1.398   1.321  2.1251 -3.7008  0.6135
  108MOL   H26341137   0.923   1.266   1.251  0.5585  0.1862 -0.1774
  108MOL   H26441138   0.829   1.172   1.453  2.2622 -1.4359  0.3882
  108MOL   H26541139   0.817   1.322   1.525  0.2724  0.9769 -0.3207
  108MOL   H26641140   0.749   1.443   1.091 -0.8710  0.5104  1.0758
  108MOL   H26741141   0.898   1.537   1.132  0.5114 -0.3558 -0.7772
  108MOL   C26841142   1.022   1.254   1.530  0.0741  0.0988  0.5176
  108MOL   C26941143   1.130   1.177   1.447  0.2294 -0.2533 -0.3555
  108MOL   C27041144   1.235   1.129   1.549 -1.1933 -0.3355  0.9406
  108MOL   C27141145   1.184   1.158   1.682 -0.5006  0.1903 -0.2179
  108MOL   C27241146   1.213   1.052   1.791 -0.2334 -0.1379  0.3618
  108MOL   C27341147   1.359   1.046   1.827 -0.2554 -0.1633 -0.4308
  108MOL   C27441148   1.025   1.176   1.655 -0.0199 -0.8872  0.4283
  108MOL   H27541149   1.060   1.355   1.548  0.7371 -0.0909  0.2007
  108MOL   H27641150   1.088   1.084   1.409 -0.5444 -0.2285  0.4110
  108MOL   H27741151   1.165   1.243   1.367  0.0587  0.1836 -0.0760
  108MOL   H27841152   1.261   1.025   1.531  1.2208  0.3630  0.2098
  108MOL   H27941153   1.332   1.177   1.534 -1.5834  0.6041  1.3522
  108MOL   H28041154   1.219   1.256   1.712 -0.9760 -0.0166  1.0468
  108MOL   H28141155   1.186   0.957   1.746 -1.5037  0.1791  0.4342
  108MOL   H28241156   1.156   1.064   1.883  0.3919 -0.0386  0.7366
  108MOL   H28341157   1.416   1.025   1.736  2.7541  1.7530  0.9479
  108MOL   H28441158   1.384   1.149   1.853 -2.6231  0.4369 -0.4179
  108MOL   H28541159   0.970   1.083   1.642 -0.6830 -0.0333 -3.2593
  108MOL   H28641160   0.974   1.226   1.737  1.4436 -0.8148  1.3166
  108MOL   C28741161   1.415   0.938   1.929 -0.3233 -0.3796  0.1497
  108MOL   C28841162   1.568   0.943   1.926 -0.1789 -0.1800  0.0320
  108MOL   C28941163   1.610   1.020   2.053 -0.2863 -0.7286  0.2269
  108MOL   C29041164   1.514   0.958   2.154  0.5804  0.0233  0.6852
  108MOL   C29141165   1.511   1.030   2.291  0.1539  0.5147  0.1994
  108MOL   C29241166   1.650   1.058   2.354 -0.2207  0.0499 -0.4232
  108MOL   C29341167   1.380   0.971   2.073 -0.5469  0.4522  0.2920
  108MOL   H29441168   1.360   0.849   1.898  1.3955 -0.9940 -1.2238
  108MOL   H29541169   1.608   0.842   1.923 -3.4941 -1.5611  0.3992
  108MOL   H29641170   1.598   0.989   1.831 -2.3994  2.2146  0.4615
  108MOL   H29741171   1.595   1.127   2.037  0.2201 -0.4089  1.8502
  108MOL   H29841172   1.714   0.993   2.071  0.5477  1.7463 -0.6102
  108MOL   H29941173   1.544   0.855   2.171  1.6953 -0.1203 -1.9016
  108MOL   H30041174   1.465   0.974   2.373 -0.3023 -0.8090 -0.9507
  108MOL   H30141175   1.449   1.120   2.279 -1.1345 -0.3893  0.0151
  108MOL   H30241176   1.730   1.106   2.298  0.7705 -1.7856 -0.6022
  108MOL   H30341177   1.704   0.965   2.364  0.5193  0.6649  1.4968
  108MOL   H30441178   1.330   1.066   2.088 -0.7166  0.5415 -0.7585
  108MOL   H30541179   1.303   0.900   2.106 -0.9404  1.4092  1.4630
  108MOL   C30641180   1.643   1.122   2.496  0.3067 -0.2240 -0.2752
  108MOL   C30741181   1.565   1.048   2.614 -0.1656 -0.2803 -0.2661
  108MOL   C30841182   1.634   1.091   2.744 -0.1013  0.1297  0.6093
  108MOL   C30941183   1.756   1.172   2.701 -0.1042  0.5719  0.1917
  108MOL   C31041184   1.880   1.146   2.788 -0.1582 -0.1991 -0.0497
  108MOL   C31141185   1.869   1.242   2.909 -0.2220  0.6392  0.3880
  108MOL   C31241186   1.782   1.134   2.554 -0.4476  0.3931  0.2461
  108MOL   H31341187   1.601   1.222   2.487 -0.9775 -0.8592 -1.4518
  108MOL   H31441188   1.464   1.087   2.630  0.4144  1.3390 -0.5374
  108MOL   H31541189   1.555   0.940   2.603  1.3009 -0.2564 -1.8648
  108MOL   H31641190   1.565   1.153   2.802  0.4027  0.6704  0.6334
  108MOL   H31741191   1.668   1.010   2.810  2.5327  0.5499 -0.1999
  108MOL   H31841192   1.712   1.272   2.704 -0.6844  0.2915  0.8243
  108MOL   H31941193   1.904   1.044   2.816  0.9791  0.2780  0.7886
  108MOL   H32041194   1.967   1.183   2.734 -1.7458  3.5507 -0.2196
  108MOL   H32141195   1.788   1.220   2.979 -2.0767  3.6975 -0.7232
  108MOL   H32241196   1.846   1.341   2.871  1.7472 -0.6426 -4.4614
  108MOL   H32341197   1.843   1.045   2.537  1.5244  1.4224  1.7519
  108MOL   H32441198   1.839   1.208   2.499  0.0154  0.2825  0.5779
  108MOL   C32541199   1.994   1.222   2.999  0.4587  1.1710  0.2993
  108MOL   C32641200   2.020   1.355   3.080  0.1016  0.2995 -0.5210
  108MOL   C32741201   2.084   1.303   3.213  0.2898  0.0908 -0.7705
  108MOL   C32841202   2.018   1.171   3.236 -0.4506  0.1198  0.0122
  108MOL   C32941203   2.094   1.074   3.327 -0.6887  0.1824  0.6379
  108MOL   C33041204   2.149   1.140   3.461  0.0957  0.2648  0.4815
  108MOL   C33141205   1.979   1.114   3.103 -0.2028 -0.6942  0.2474
  108MOL   H33241206   2.082   1.203   2.938  1.0696 -0.3574  1.6231
  108MOL   H33341207   1.923   1.398   3.105 -0.4023 -1.4698  0.7140
  108MOL   H33441208   2.078   1.434   3.032  0.4936  1.7303  2.2072
  108MOL   H33541209   2.190   1.278   3.211 -0.0385 -1.5376  1.0638
  108MOL   H33641210   2.070   1.373   3.295  0.7377 -1.3027  0.5181
  108MOL   H33741211   1.923   1.193   3.284 -2.0570 -3.5684 -1.3126
  108MOL   H33841212   2.022   1.000   3.362  0.3733 -0.2442  1.9697
  108MOL   H33941213   2.176   1.030   3.270  0.7942  2.5073  0.9012
  108MOL   H34041214   2.218   1.216   3.428  0.7993 -1.5591 -2.4306
  108MOL   H34141215   2.074   1.196   3.518  0.9281 -0.9641  2.8852
  108MOL   H34241216   1.881   1.065   3.108 -0.4352 -0.3034 -0.4615
  108MOL   H34341217   2.039   1.026   3.079  0.2897 -0.5037  0.7958
  108MOL   C34441218   2.221   1.050   3.550  0.3180  0.2286 -0.4689
  108MOL   C34541219   2.133   0.947   3.627  0.6467 -0.5110 -0.9436
  108MOL   C34641220   2.206   0.930   3.753  0.1604 -0.1036 -0.3000
  108MOL   C34741221   2.279   1.065   3.787 -0.1998 -0.1731 -0.7104
  108MOL   C34841222   2.399   1.041   3.872 -0.6449 -0.1461 -0.3576
  108MOL   C34941223   2.374   0.985   4.013 -0.0421 -0.5715 -0.2734
  108MOL   C35041224   2.301   1.130   3.657  0.1182 -1.0883  0.1568
  108MOL   H35141225   2.303   0.995   3.503  1.2726  0.5160  0.8263
  108MOL   H35241226   2.104   0.851   3.583 -0.4924 -1.3503  1.4950
  108MOL   H35341227   2.045   1.007   3.650  0.9138 -0.1514 -0.8476
  108MOL   H35441228   2.137   0.893   3.829  0.9424 -0.7367  0.1035
  108MOL   H35541229   2.283   0.853   3.757  0.3789  0.1804  1.1444
  108MOL   H35641230   2.199   1.120   3.837 -0.1326 -0.6414 -0.0855
  108MOL   H35741231   2.476   0.985   3.817  1.5910  2.2885  0.1785
  108MOL   H35841232   2.437   1.143   3.879 -2.1116  0.4165 -0.4960
  108MOL   H35941233   2.340   0.882   4.003  0.2139 -1.1689  4.0074
  108MOL   H36041234   2.287   1.029   4.060  0.2151 -1.7118  1.3188
  108MOL   H36141235   2.250   1.226   3.662 -2.8318 -2.5794 -0.5356
  108MOL   H36241236   2.397   1.150   3.609 -0.5766  0.8458 -0.4999
  108MOL   C36341237   2.495   0.994   4.110  1.0341  0.8410 -0.0489
  108MOL   C36441238   2.607   0.890   4.074 -0.0633  0.4099 -0.3128
  108MOL   C36541239   2.663   0.846   4.210 -0.5555 -0.1971  0.1603
  108MOL   C36641240   2.593   0.921   4.317 -0.1602  0.2976 -0.1402
  108MOL   C36741241   2.579   0.843   4.446  0.1600 -0.6254 -0.1634
  108MOL   C36841242   2.709   0.843   4.526 -0.1730 -0.4442  0.8947
  108MOL   C36941243   2.461   0.958   4.250  0.4336 -0.0801 -0.1501
  108MOL   H37041244   2.540   1.092   4.102  1.1568  0.6814 -1.3150
  108MOL   H37141245   2.568   0.798   4.030  1.2880  0.4060 -1.5355
  108MOL   H37241246   2.679   0.936   4.007 -0.0427  2.7269  1.2424
  108MOL   H37341247   2.627   0.745   4.224  0.5572 -0.9848 -2.3890
  108MOL   H37441248   2.772   0.846   4.213 -0.5500 -1.6517  0.3309
  108MOL   H37541249   2.653   1.009   4.341  1.7595 -1.4529  1.6477
  108MOL   H37641250   2.510   0.899   4.510 -1.4274 -0.0163 -2.3586
  108MOL   H37741251   2.538   0.743   4.441  1.3604 -1.2037  1.2372
  108MOL   H37841252   2.747   0.943   4.545 -3.2425  0.7952  0.6775
  108MOL   H37941253   2.788   0.779   4.485  0.2823  0.8504 -0.2932
  108MOL   H38041254   2.388   0.878   4.254 -0.2335  0.5815  1.1740
  108MOL   H38141255   2.422   1.049   4.294 -0.7622  0.1325 -1.6112
  108MOL   H38241256   2.684   0.800   4.623  0.0074  1.5440  1.8547
  109MOL     C141257   3.847   1.705   2.958  0.2643 -0.0052  0.0081
  109MOL     C241258   3.974   1.694   3.037 -0.8292 -0.2852 -1.4153
  109MOL     C341259   4.067   1.797   2.982  0.2789 -0.9946 -0.0970
  109MOL     C441260   3.977   1.893   2.896 -0.2352  0.4779  0.5292
  109MOL     C541261   4.061   1.962   2.787  0.3059 -0.0036  0.5211
  109MOL     C641262   4.155   2.069   2.845  0.4201  0.4600  0.5369
  109MOL     C741263   3.873   1.799   2.847  0.4118 -0.2164 -0.2681
  109MOL     H841264   3.834   1.605   2.915 -1.1604 -0.6701  1.9240
  109MOL     H941265   4.019   1.595   3.024 -0.5268 -0.2514 -0.6412
  109MOL    H1041266   3.960   1.695   3.145  0.7012  0.5622 -1.2135
  109MOL    H1141267   4.132   1.844   3.056 -1.2170 -0.4577  0.9106
  109MOL    H1241268   4.126   1.735   2.915  1.6863  0.0901  0.1257
  109MOL    H1341269   3.936   1.975   2.956 -2.2830  0.5828 -0.9386
  109MOL    H1441270   4.112   1.887   2.727  0.6040  0.5608  0.0667
  109MOL    H1541271   3.987   2.007   2.721  0.2818 -0.0899  0.4904
  109MOL    H1641272   4.102   2.149   2.896  0.2320  0.0016  1.0543
  109MOL    H1741273   4.226   2.018   2.909  0.2502 -1.5223 -0.8078
  109MOL    H1841274   3.783   1.858   2.834 -0.2122 -0.9104  0.8679
  109MOL    H1941275   3.907   1.750   2.755 -0.5317  0.3177 -0.8996
  109MOL    H2041276   3.770   1.742   3.025 -0.4790 -0.2093 -0.7263
  109MOL    C2141277   4.234   2.139   2.733  0.5744  0.2431  0.1966
  109MOL    C2241278   4.141   2.196   2.624 -0.4438  1.2473 -0.1058
  109MOL    C2341279   4.207   2.321   2.571 -0.2913  0.2917 -0.2524
  109MOL    C2441280   4.328   2.354   2.673 -0.7441  0.0466  0.6563
  109MOL    C2541281   4.340   2.499   2.722  0.1261  0.4383 -0.2352
  109MOL    C2641282   4.453   2.519   2.828  0.3171  0.0328  0.2552
  109MOL    C2741283   4.317   2.255   2.782 -0.0590 -0.1494 -0.0057
  109MOL    H2841284   4.297   2.070   2.677  0.7162  0.9988 -0.5778
  109MOL    H2941285   4.142   2.125   2.542 -0.9687  1.1135  0.0028
  109MOL    H3041286   4.037   2.220   2.647 -1.8661 -3.1166 -1.3868
  109MOL    H3141287   4.238   2.330   2.466 -0.3440 -2.4975 -0.5392
  109MOL    H3241288   4.134   2.403   2.568 -0.1788  0.3346 -3.1343
  109MOL    H3341289   4.417   2.329   2.616 -1.3511  3.3518 -1.8579
  109MOL    H3441290   4.248   2.538   2.764  0.9073  0.7037  1.2828
  109MOL    H3541291   4.375   2.554   2.635  0.4168  0.5729 -0.0375
  109MOL    H3641292   4.545   2.462   2.816 -0.7466 -1.5312 -0.6642
  109MOL    H3741293   4.407   2.475   2.917 -1.9700 -3.0470 -2.3213
  109MOL    H3841294   4.409   2.212   2.822  2.1196  3.8106 -0.5663
  109MOL    H3941295   4.267   2.303   2.865 -2.6686  0.7688 -2.0418
  109MOL    C4041296   4.493   2.667   2.852  0.6353 -1.2888 -0.0107
  109MOL    C4141297   4.378   2.770   2.853 -0.1328  0.5384 -0.4267
  109MOL    C4241298   4.439   2.882   2.942  0.3011  0.0500  0.3700
  109MOL    C4341299   4.504   2.805   3.056  0.6633 -0.6730 -0.0339
  109MOL    C4441300   4.609   2.895   3.135  0.1811  0.4382  0.2475
  109MOL    C4541301   4.691   2.816   3.231  0.3868 -0.9652 -0.3656
  109MOL    C4641302   4.572   2.685   2.984  0.1419 -0.6821 -0.2180
  109MOL    H4741303   4.564   2.707   2.779  0.7315 -0.9209  0.2807
  109MOL    H4841304   4.280   2.738   2.888  0.5604  0.3246  1.3323
  109MOL    H4941305   4.364   2.811   2.752  0.7498 -1.2046 -1.2693
  109MOL    H5041306   4.508   2.947   2.888 -0.4443  0.2227 -0.3966
  109MOL    H5141307   4.358   2.938   2.989  0.2911  1.0138 -0.7708
  109MOL    H5241308   4.429   2.771   3.126 -0.4013  0.7619 -0.4526
  109MOL    H5341309   4.673   2.931   3.054 -1.8667  1.5545 -0.9242
  109MOL    H5441310   4.565   2.978   3.190 -1.2066 -1.1088  1.5044
  109MOL    H5541311   4.708   2.711   3.210  2.2094 -0.8879  0.6297
  109MOL    H5641312   4.623   2.825   3.316  0.3238  1.6068 -0.6362
  109MOL    H5741313   4.678   2.697   2.963 -0.1105  2.4473  0.1110
  109MOL    H5841314   4.572   2.590   3.038  2.0988 -1.8908 -2.2244
  109MOL    C5941315   4.820   2.890   3.264  0.3740 -0.1234 -0.0462
  109MOL    C6041316   4.903   2.854   3.383  0.0245  0.0185  0.6827
  109MOL    C6141317   5.045   2.905   3.358  0.7914  0.6033 -0.0577
  109MOL    C6241318   5.060   2.949   3.212  0.1505 -0.3632 -0.3240
  109MOL    C6341319   5.058   3.104   3.196  0.0465 -0.8458  0.6259
  109MOL    C6441320   5.102   3.155   3.057 -0.0003  0.0643 -0.8107
  109MOL    C6541321   4.931   2.887   3.151 -0.8326  0.7381  0.5366
  109MOL    H6641322   4.790   2.993   3.283  0.9383  0.2276 -1.0015
  109MOL    H6741323   4.863   2.899   3.473  0.7488 -0.9453  1.5059
  109MOL    H6841324   4.914   2.746   3.397  0.3939  0.0680  0.7890
  109MOL    H6941325   5.093   2.963   3.437  1.0843 -0.0696  0.2612
  109MOL    H7041326   5.105   2.816   3.379 -0.0983  0.1581  0.6056
  109MOL    H7141327   5.151   2.904   3.171  1.5322  0.4337  1.8072
  109MOL    H7241328   5.122   3.144   3.275  1.9890  1.5764 -2.0665
  109MOL    H7341329   4.962   3.143   3.229  0.6496  0.7509  0.5257
  109MOL    H7441330   5.203   3.120   3.036  0.9800  2.5612 -0.3590
  109MOL    H7541331   5.036   3.107   2.985 -2.3300 -0.3785  1.5146
  109MOL    H7641332   4.901   2.934   3.057 -0.5427 -1.3123 -0.6078
  109MOL    H7741333   4.956   2.786   3.120 -0.1062  0.8693  0.6800
  109MOL    C7841334   5.099   3.311   3.051 -0.0793  0.2895  0.3607
  109MOL    C7941335   5.211   3.368   2.955 -0.4765 -0.3133 -0.6694
  109MOL    C8041336   5.144   3.483   2.880 -0.3028  0.1645 -0.5680
  109MOL    C8141337   5.001   3.510   2.939  0.1048 -0.4872 -0.0093
  109MOL    C8241338   4.900   3.574   2.848 -0.1844 -0.5441 -0.4448
  109MOL    C8341339   4.908   3.528   2.702 -1.0169 -0.1863 -0.5977
  109MOL    C8441340   4.969   3.366   2.986  0.0610 -1.0164  0.7704
  109MOL    H8541341   5.124   3.353   3.148  0.2240  0.1336  0.3493
  109MOL    H8641342   5.304   3.401   3.002 -0.4449 -1.6639  0.2571
  109MOL    H8741343   5.235   3.295   2.877 -0.9001  0.0837 -1.1691
  109MOL    H8841344   5.198   3.578   2.876  2.1988 -1.1319  1.2796
  109MOL    H8941345   5.130   3.437   2.782 -0.5052  1.2411 -1.0551
  109MOL    H9041346   5.018   3.575   3.025  2.2236  0.7364 -1.3239
  109MOL    H9141347   4.923   3.681   2.849 -1.5493 -0.2244 -1.5464
  109MOL    H9241348   4.805   3.562   2.900 -0.3648  2.4855  0.0407
  109MOL    H9341349   4.914   3.419   2.706  1.9453 -0.0229  1.1180
  109MOL    H9441350   4.995   3.570   2.652 -0.9588 -0.7542 -0.9750
  109MOL    H9541351   4.941   3.307   2.898  0.6800 -0.0957 -0.0597
  109MOL    H9641352   4.886   3.350   3.055 -1.2848  0.4282 -0.4446
  109MOL    C9741353   4.774   3.553   2.624  0.3295 -1.0791  0.3048
  109MOL    C9841354   4.790   3.498   2.485 -0.2827  0.6528 -0.1947
  109MOL    C9941355   4.675   3.563   2.396 -0.0127 -0.2846 -0.3641
  109MOL   C10041356   4.660   3.702   2.463  0.6255 -0.2390  0.1201
  109MOL   C10141357   4.702   3.822   2.380  0.2928 -0.2562 -0.1847
  109MOL   C10241358   4.609   3.830   2.262  0.1497  0.0614  0.5719
  109MOL   C10341359   4.733   3.706   2.602 -0.6135 -0.1648  0.0887
  109MOL   H10441360   4.697   3.490   2.668  0.1474 -0.4466  0.8896
  109MOL   H10541361   4.886   3.529   2.444 -0.8568  2.1370 -0.4567
  109MOL   H10641362   4.785   3.390   2.472 -1.6391  0.6192  0.5607
  109MOL   H10741363   4.688   3.568   2.288 -0.2446  0.9870 -0.3440
  109MOL   H10841364   4.582   3.515   2.427  0.3918 -1.1787 -0.5447
  109MOL   H10941365   4.556   3.728   2.485  0.7049  0.1082  0.0836
  109MOL   H11041366   4.697   3.902   2.454  2.7539 -0.9443  0.7856
  109MOL   H11141367   4.804   3.814   2.343  1.0286 -1.2652  1.9850
  109MOL   H11241368   4.617   3.741   2.200  0.6823  0.3431  0.2270
  109MOL   H11341369   4.503   3.835   2.284 -0.1283  0.2221 -0.7157
  109MOL   H11441370   4.830   3.755   2.589  0.2450 -1.7561  0.2858
  109MOL   H11541371   4.676   3.754   2.681 -0.0512  2.3559 -1.0036
  109MOL   C11641372   4.634   3.941   2.173 -0.7619 -0.2967  0.4961
  109MOL   C11741373   4.553   3.949   2.039  0.0984 -0.4662  0.5953
  109MOL   C11841374   4.583   4.096   1.992  0.6681 -0.4598 -0.0526
  109MOL   C11941375   4.640   4.175   2.110 -0.4590 -0.5808 -0.3908
  109MOL   C12041376   4.565   4.314   2.139 -0.1678 -0.1485  0.1371
  109MOL   C12141377   4.588   4.423   2.028 -0.0725 -0.0148 -0.6061
  109MOL   C12241378   4.640   4.084   2.230  0.0325  0.7005  0.0920
  109MOL   H12341379   4.737   3.931   2.141 -0.9090 -0.3803  0.0409
  109MOL   H12441380   4.450   3.933   2.072  0.0915 -1.9893 -0.1007
  109MOL   H12541381   4.582   3.871   1.968 -0.5146  0.3478 -0.5718
  109MOL   H12641382   4.495   4.136   1.940  1.9903  2.2759 -0.2531
  109MOL   H12741383   4.664   4.090   1.920  1.9653  2.0118  1.1707
  109MOL   H12841384   4.747   4.194   2.096  0.0963  0.1813  4.3021
  109MOL   H12941385   4.594   4.344   2.239 -0.0877  2.3672 -0.6093
  109MOL   H13041386   4.458   4.294   2.141 -0.2002 -0.1762 -1.0832
  109MOL   H13141387   4.531   4.408   1.936 -2.6997 -0.5569  1.0598
  109MOL   H13241388   4.693   4.427   1.999 -0.4330  0.1384 -1.9406
  109MOL   H13341389   4.727   4.095   2.295  1.3694 -0.3798 -1.4988
  109MOL   H13441390   4.551   4.102   2.291  0.0914 -0.7186  0.6150
  109MOL   C13541391   4.556   4.557   2.093  0.2321  0.2082 -0.5970
  109MOL   C13641392   4.601   4.679   2.025 -0.1825  0.4148 -0.0753
  109MOL   C13741393   4.493   4.787   2.057  0.0829  0.0388 -0.1044
  109MOL   C13841394   4.364   4.702   2.065 -0.3516 -0.0654  0.3243
  109MOL   C13941395   4.249   4.764   2.142  0.7703 -0.2978 -0.3983
  109MOL   C14041396   4.214   4.906   2.085  0.2307 -0.0582 -0.4942
  109MOL   C14141397   4.412   4.578   2.134  0.1105 -0.4828 -0.0620
  109MOL   H14241398   4.620   4.562   2.181 -0.2634 -2.7883  0.0098
  109MOL   H14341399   4.701   4.717   2.049  1.5003 -3.2652 -0.9320
  109MOL   H14441400   4.601   4.671   1.917 -1.9945 -0.5293 -0.0301
  109MOL   H14541401   4.524   4.827   2.154 -1.4783 -1.9250  1.2589
  109MOL   H14641402   4.497   4.865   1.982  2.0250 -0.0835 -0.1537
  109MOL   H14741403   4.334   4.680   1.963  1.9216  0.6903 -0.5430
  109MOL   H14841404   4.263   4.777   2.249 -0.7760 -1.2297 -0.0615
  109MOL   H14941405   4.161   4.700   2.135  0.1379  0.5870 -0.6418
  109MOL   H15041406   4.126   4.932   2.144  0.0745  0.2191 -0.8413
  109MOL   H15141407   4.279   4.987   2.119  0.2179 -0.1453 -0.2644
  109MOL   H15241408   4.346   4.493   2.115 -1.1095  0.9120 -2.3128
  109MOL   H15341409   4.419   4.584   2.243  0.5016 -0.8788 -0.0637
  109MOL   C15441410   4.173   4.914   1.936  0.0298 -0.1199 -0.2187
  109MOL   C15541411   4.161   5.057   1.892  0.8250  0.5960 -0.3253
  109MOL   C15641412   4.013   5.086   1.906 -0.4009 -0.5511  0.4123
  109MOL   C15741413   3.948   4.951   1.857 -0.6394 -0.7110  0.2627
  109MOL   C15841414   3.809   4.919   1.917  0.0545 -0.1432  0.2656
  109MOL   C15941415   3.749   4.796   1.836  0.3023 -0.2411 -0.1399
  109MOL   C16041416   4.051   4.845   1.896  0.0769  0.4717  0.1980
  109MOL   H16141417   4.247   4.867   1.872  0.1456 -1.2871  0.7409
  109MOL   H16241418   4.214   5.130   1.952 -2.0833  1.6530  1.0472
  109MOL   H16341419   4.190   5.062   1.787 -0.5240  2.8694 -0.6099
  109MOL   H16441420   3.986   5.097   2.011 -0.6390  0.1202  0.2866
  109MOL   H16541421   3.988   5.171   1.842  1.7823 -0.8794 -0.8938
  109MOL   H16641422   3.939   4.956   1.749 -0.0956 -0.4147  0.2315
  109MOL   H16741423   3.740   5.002   1.900 -2.2023 -2.2316 -1.2539
  109MOL   H16841424   3.806   4.897   2.024  1.4352 -1.0152  0.1410
  109MOL   H16941425   3.763   4.820   1.731  0.2531  1.0098  0.1274
  109MOL   H17041426   3.795   4.700   1.854  1.0265  0.4623  1.9748
  109MOL   H17141427   4.068   4.766   1.822  0.6142  0.8419 -0.0849
  109MOL   H17241428   4.010   4.797   1.984 -2.5113  1.0145 -0.6895
  109MOL   C17341429   3.599   4.775   1.867  0.5592  0.0347 -0.0681
  109MOL   C17441430   3.517   4.884   1.804  0.2855  0.5788 -0.0994
  109MOL   C17541431   3.380   4.817   1.776 -0.7416  0.3088  0.3412
  109MOL   C17641432   3.375   4.673   1.817  0.3417  0.8624  0.1854
  109MOL   C17741433   3.273   4.573   1.747 -0.1017  0.5017  0.2014
  109MOL   C17841434   3.282   4.565   1.594 -0.3648 -0.6060 -0.0911
  109MOL   C17941435   3.531   4.648   1.811  0.1498  0.4438  1.1269
  109MOL   H18041436   3.578   4.786   1.974 -0.1687 -0.4035 -0.1613
  109MOL   H18141437   3.552   4.906   1.703 -0.6987 -1.1922 -0.8615
  109MOL   H18241438   3.517   4.970   1.872 -0.4053 -1.1573  2.1514
  109MOL   H18341439   3.298   4.879   1.813 -2.0650 -0.4319 -1.3097
  109MOL   H18441440   3.352   4.815   1.671  1.7137 -1.7029 -0.3110
  109MOL   H18541441   3.348   4.680   1.922  0.9114 -0.3615  0.4135
  109MOL   H18641442   3.168   4.594   1.765 -0.5685 -0.2979 -1.4963
  109MOL   H18741443   3.288   4.477   1.796  1.1231  0.1625 -0.8146
  109MOL   H18841444   3.388   4.575   1.571 -0.1659  0.5522  1.2171
  109MOL   H18941445   3.238   4.654   1.550 -1.2214 -1.2545 -0.5617
  109MOL   H19041446   3.578   4.642   1.713  0.3832  1.9902  1.1300
  109MOL   H19141447   3.561   4.561   1.870 -0.3357 -0.1812  0.4513
  109MOL   C19241448   3.235   4.428   1.530  0.6192  0.0185  0.1817
  109MOL   C19341449   3.288   4.393   1.391  0.6747  0.9340 -0.6572
  109MOL   C19441450   3.167   4.317   1.328  0.7461  0.5809 -0.4375
  109MOL   C19541451   3.042   4.401   1.375  0.0026 -0.2116  0.3494
  109MOL   C19641452   2.911   4.335   1.359  0.1202  0.4382 -0.0789
  109MOL   C19741453   2.795   4.414   1.416  0.3017  0.3688  0.0419
  109MOL   C19841454   3.084   4.432   1.512  0.2312  0.5572  0.1396
  109MOL   H19941455   3.260   4.343   1.592  0.8670  0.1315  0.2370
  109MOL   H20041456   3.328   4.475   1.331 -1.1233  2.7624  0.5924
  109MOL   H20141457   3.375   4.329   1.409 -0.5315 -0.6201 -0.2215
  109MOL   H20241458   3.156   4.222   1.380  0.5465  0.8066 -0.0689
  109MOL   H20341459   3.171   4.291   1.222 -0.1964 -0.1420 -0.3027
  109MOL   H20441460   3.038   4.493   1.316 -0.7490  0.0534  0.8004
  109MOL   H20541461   2.914   4.243   1.418 -2.2421  0.9418  0.8549
  109MOL   H20641462   2.900   4.309   1.254 -1.4158 -0.8744  0.3860
  109MOL   H20741463   2.783   4.513   1.372 -0.4803  1.3180  2.3247
  109MOL   H20841464   2.811   4.436   1.522  0.2511 -0.3584  0.2054
  109MOL   H20941465   3.044   4.362   1.586 -0.2322  0.0936 -0.5360
  109MOL   H21041466   3.037   4.520   1.556 -0.3495  0.7944 -0.9255
  109MOL   C21141467   2.662   4.337   1.410  0.1259  0.2397 -0.0465
  109MOL   C21241468   2.598   4.303   1.275 -0.4765 -0.2022 -0.1837
  109MOL   C21341469   2.449   4.328   1.297 -0.1571  0.6010  0.2891
  109MOL   C21441470   2.413   4.335   1.445 -0.8851 -0.1013 -0.0914
  109MOL   C21541471   2.286   4.422   1.479 -0.8063  0.2739 -0.7291
  109MOL   C21641472   2.258   4.433   1.630  0.1236  0.4432  0.4586
  109MOL   C21741473   2.542   4.386   1.507  0.3195 -0.0810 -0.0285
  109MOL   H21841474   2.681   4.242   1.461  1.8616  1.6845  2.0616
  109MOL   H21941475   2.633   4.366   1.193 -0.9910 -0.1646 -0.3727
  109MOL   H22041476   2.624   4.200   1.251 -1.6982 -0.9693  1.7120
  109MOL   H22141477   2.424   4.424   1.251  0.3354  1.1929  1.2442
  109MOL   H22241478   2.388   4.250   1.252  1.4490 -0.4313 -0.1475
  109MOL   H22341479   2.384   4.240   1.489 -1.7673  0.5577  0.7663
  109MOL   H22441480   2.202   4.369   1.435  0.3236 -0.0635 -2.5407
  109MOL   H22541481   2.296   4.520   1.432 -0.3501  1.1232  1.0797
  109MOL   H22641482   2.249   4.332   1.671  2.0067  0.1032  0.0947
  109MOL   H22741483   2.343   4.473   1.686 -0.0300  1.3215  0.0622
  109MOL   H22841484   2.547   4.347   1.609  0.4833 -0.8756 -0.3401
  109MOL   H22941485   2.537   4.495   1.509 -2.8325 -0.1598 -0.5668
  109MOL   C23041486   2.137   4.511   1.669 -0.3785  0.2366 -0.2834
  109MOL   C23141487   2.132   4.545   1.812 -0.0951 -0.2881 -0.1241
  109MOL   C23241488   1.987   4.566   1.840  1.0700 -0.6567  0.2937
  109MOL   C23341489   1.925   4.452   1.764 -0.3253 -0.0512  0.2069
  109MOL   C23441490   1.773   4.447   1.735  0.3299  0.0593  0.2868
  109MOL   C23541491   1.698   4.455   1.868 -0.3432  0.0160 -0.6495
  109MOL   C23641492   2.006   4.438   1.638 -0.4248 -0.4753  0.1698
  109MOL   H23741493   2.130   4.600   1.606  0.8919 -0.9752 -2.2105
  109MOL   H23841494   2.171   4.461   1.869 -2.2261  1.1717  3.7304
  109MOL   H23941495   2.184   4.637   1.842  0.0851  0.1975 -1.9009
  109MOL   H24041496   1.955   4.657   1.789  2.5000 -1.5344 -2.2418
  109MOL   H24141497   1.955   4.571   1.944  2.2750 -2.1847  0.7526
  109MOL   H24241498   1.943   4.361   1.822 -0.1548  0.9275  1.6885
  109MOL   H24341499   1.729   4.373   1.669 -0.0227  0.3016  0.2440
  109MOL   H24441500   1.756   4.545   1.690  3.6842  0.8249  0.5431
  109MOL   H24541501   1.727   4.362   1.916 -0.5344  0.8697  1.1686
  109MOL   H24641502   1.728   4.533   1.937 -1.0996 -0.6527  0.4470
  109MOL   H24741503   1.954   4.487   1.556 -1.1306 -0.4051  0.6566
  109MOL   H24841504   2.008   4.330   1.618  2.5953 -0.1841 -1.3802
  109MOL   C24941505   1.544   4.446   1.859 -0.5339  0.1342 -0.2106
  109MOL   C25041506   1.470   4.419   1.995 -0.4359 -0.0762 -0.2484
  109MOL   C25141507   1.371   4.535   2.013  0.0942 -0.4942  0.7041
  109MOL   C25241508   1.425   4.653   1.928  0.5217 -0.0555 -0.4681
  109MOL   C25341509   1.330   4.767   1.902  0.0572  1.0803 -0.4953
  109MOL   C25441510   1.396   4.899   1.865  0.1896 -0.2739  0.1709
  109MOL   C25541511   1.492   4.584   1.812 -0.4614 -0.0024 -0.0582
  109MOL   H25641512   1.519   4.374   1.781  0.0972  1.6940 -1.8936
  109MOL   H25741513   1.422   4.321   1.995 -2.2032  0.7710 -0.7029
  109MOL   H25841514   1.548   4.417   2.072 -2.5437 -0.5632  1.9495
  109MOL   H25941515   1.355   4.565   2.116 -1.6277  1.0461  0.0195
  109MOL   H26041516   1.278   4.504   1.965 -0.3508  2.6930 -0.6317
  109MOL   H26141517   1.499   4.682   2.003 -0.2396 -1.8465  1.0409
  109MOL   H26241518   1.270   4.788   1.990 -0.5209 -0.1504 -0.5774
  109MOL   H26341519   1.259   4.741   1.824 -1.2873  0.5482  0.8882
  109MOL   H26441520   1.474   4.887   1.791 -0.1841 -0.2244 -0.2322
  109MOL   H26541521   1.444   4.951   1.948 -3.7054  2.5853  0.8138
  109MOL   H26641522   1.577   4.647   1.787 -1.7014  0.9987 -1.8989
  109MOL   H26741523   1.427   4.583   1.724 -1.8141  1.2475  0.9038
  109MOL   C26841524   1.291   5.005   1.814 -0.4613 -0.6518  0.1505
  109MOL   C26941525   1.223   4.975   1.681 -0.1059  0.6156  0.2116
  109MOL   C27041526   1.172   5.111   1.645 -1.1146 -0.3946 -0.2529
  109MOL   C27141527   1.284   5.206   1.681 -0.7604  0.2514  0.1856
  109MOL   C27241528   1.378   5.226   1.563  0.3525 -0.4226  0.2545
  109MOL   C27341529   1.455   5.364   1.565  0.3397 -0.0125 -0.0114
  109MOL   C27441530   1.350   5.143   1.803 -0.1490 -0.6152 -0.3787
  109MOL   H27541531   1.213   5.005   1.889  0.9055  1.7991  1.6274
  109MOL   H27641532   1.294   4.937   1.608  0.6566 -0.6529  1.5716
  109MOL   H27741533   1.143   4.902   1.688  1.2672 -1.0866 -1.1988
  109MOL   H27841534   1.134   5.123   1.543 -2.0240 -1.1599 -0.0134
  109MOL   H27941535   1.084   5.140   1.702 -1.4595 -1.6921 -0.1316
  109MOL   H28041536   1.241   5.306   1.687 -1.0866  0.4262 -3.6864
  109MOL   H28141537   1.320   5.242   1.472 -0.1649  0.1999  0.6862
  109MOL   H28241538   1.449   5.145   1.546  1.5266  0.7699 -0.6306
  109MOL   H28341539   1.378   5.440   1.577  0.4573 -0.0430  0.9504
  109MOL   H28441540   1.512   5.376   1.657  0.7322  0.7165 -0.3487
  109MOL   H28541541   1.458   5.139   1.792 -0.1316 -2.4235  0.3251
  109MOL   H28641542   1.332   5.198   1.896 -1.7446 -1.0964 -0.3826
  109MOL   C28741543   1.527   5.406   1.434 -0.5173 -0.5029  1.1672
  109MOL   C28841544   1.582   5.545   1.436  0.1754 -0.3839  0.5935
  109MOL   C28941545   1.674   5.563   1.319 -0.0725  0.3548 -0.2477
  109MOL   C29041546   1.696   5.423   1.255 -0.3001  0.1807 -0.4862
  109MOL   C29141547   1.837   5.392   1.192 -0.5091  0.2442 -0.2589
  109MOL   C29241548   1.867   5.451   1.053 -0.4436 -0.7261 -0.0886
  109MOL   C29341549   1.643   5.333   1.367  0.8019 -0.2831 -0.5085
  109MOL   H29441550   1.446   5.411   1.361 -0.2696  1.2430  0.9959
  109MOL   H29541551   1.504   5.621   1.431 -0.9118 -1.5792 -1.3615
  109MOL   H29641552   1.636   5.561   1.529 -0.6728  2.9817  0.5616
  109MOL   H29741553   1.766   5.607   1.357  1.6844 -3.3618  0.0979
  109MOL   H29841554   1.635   5.626   1.239  0.0767 -0.6294 -1.1231
  109MOL   H29941555   1.623   5.421   1.174 -1.6990  2.5039  0.6635
  109MOL   H30041556   1.859   5.285   1.182  0.3113  0.2748  1.1187
  109MOL   H30141557   1.920   5.416   1.258 -0.1133 -1.0083 -0.2794
  109MOL   H30241558   1.778   5.447   0.991 -0.4685  0.4259 -0.1442
  109MOL   H30341559   1.952   5.402   1.005 -0.7612  0.8534 -2.3370
  109MOL   H30441560   1.716   5.300   1.441 -1.2725  0.9455  2.1681
  109MOL   H30541561   1.613   5.242   1.316  2.2752 -0.6735 -0.6889
  109MOL   C30641562   1.909   5.592   1.060  0.4584  0.9559  0.0177
  109MOL   C30741563   2.038   5.612   1.142  0.0592 -0.0245 -0.2389
  109MOL   C30841564   2.131   5.688   1.053  0.4748  0.1474 -1.1066
  109MOL   C30941565   2.052   5.754   0.941 -0.8221  0.4554  0.1343
  109MOL   C31041566   2.138   5.766   0.809  0.5264 -0.6510 -0.1424
  109MOL   C31141567   2.071   5.820   0.687 -0.1896  0.2505  0.4905
  109MOL   C31241568   1.931   5.664   0.932 -0.5643 -0.1685 -0.5538
  109MOL   H31341569   1.826   5.648   1.102 -0.9836 -0.9485 -0.2058
  109MOL   H31441570   2.037   5.671   1.234  4.4249  0.3490 -0.3409
  109MOL   H31541571   2.092   5.523   1.175  0.6899  0.3407 -0.2778
  109MOL   H31641572   2.187   5.762   1.110  0.4692 -1.2639  0.7991
  109MOL   H31741573   2.202   5.618   1.009 -0.6213  0.0767 -2.7997
  109MOL   H31841574   2.030   5.859   0.960  0.2237  0.6331  0.3747
  109MOL   H31941575   2.229   5.822   0.827 -1.6015  2.9353 -0.0107
  109MOL   H32041576   2.175   5.665   0.791 -0.2350 -0.6786 -1.5968
  109MOL   H32141577   2.014   5.908   0.717 -1.1264  0.5921 -2.1026
  109MOL   H32241578   1.991   5.754   0.653 -0.4049 -0.0105  1.4884
  109MOL   H32341579   1.946   5.591   0.852 -1.5709 -1.0744  0.0555
  109MOL   H32441580   1.842   5.725   0.914  0.5433  1.3170 -1.0065
  109MOL   C32541581   2.178   5.850   0.581  0.1153  0.0125 -0.8036
  109MOL   C32641582   2.265   5.735   0.541  0.0447 -0.3307  0.2933
  109MOL   C32741583   2.283   5.757   0.399  0.5771 -0.0747  0.4374
  109MOL   C32841584   2.147   5.806   0.354 -0.5727  0.1321  0.2403
  109MOL   C32941585   2.133   5.846   0.205  0.5675 -0.0933  0.6660
  109MOL   C33041586   2.143   5.726   0.104 -0.0230 -0.4277  0.3107
  109MOL   C33141587   2.128   5.919   0.457 -0.3370 -0.3478  0.3278
  109MOL   H33241588   2.226   5.933   0.633  0.9007  0.3976 -2.1301
  109MOL   H33341589   2.209   5.642   0.558 -1.1638  0.3745  0.2336
  109MOL   H33441590   2.355   5.725   0.601 -0.2535  3.3785  1.5027
  109MOL   H33541591   2.362   5.829   0.378 -0.5754  1.0045 -0.2696
  109MOL   H33641592   2.308   5.661   0.352  0.3614  0.4967 -0.8729
  109MOL   H33741593   2.068   5.733   0.370 -1.7091  1.2635 -0.1662
  109MOL   H33841594   2.036   5.892   0.190  1.0106  0.1844 -1.5239
  109MOL   H33941595   2.204   5.925   0.181  0.3686  0.5997  2.3002
  109MOL   H34041596   2.226   5.657   0.121 -1.8315 -2.6978  0.2606
  109MOL   H34141597   2.056   5.662   0.117  0.7338 -1.5863 -0.1699
  109MOL   H34241598   2.026   5.954   0.473  0.0005  1.1656 -0.7324
  109MOL   H34341599   2.190   6.007   0.442  0.0026 -0.5089  0.7908
  109MOL   C34441600   2.141   5.780   7.611  0.0189  0.3261  0.1272
  109MOL   C34541601   2.074   5.706   7.498  0.1833  0.7181 -0.1764
  109MOL   C34641602   2.130   5.771   7.372 -0.8711 -0.0336  0.6597
  109MOL   C34741603   2.279   5.791   7.406  0.6333  0.4727 -0.5805
  109MOL   C34841604   2.363   5.899   7.318 -0.1181  0.3719  0.0320
  109MOL   C34941605   2.368   5.870   7.167  0.1515 -0.2475  0.8612
  109MOL   C35041606   2.277   5.822   7.554 -0.2340  0.2492  0.2913
  109MOL   H35141607   2.070   5.862   7.627  0.1246  0.3062  0.6888
  109MOL   H35241608   1.966   5.718   7.498  0.3222  2.0505 -0.7448
  109MOL   H35341609   2.105   5.601   7.499  1.9913  1.2457 -0.5543
  109MOL   H35441610   2.122   5.701   7.289  0.5792  1.2389 -0.5883
  109MOL   H35541611   2.074   5.859   7.340 -0.7415 -1.2025 -3.0972
  109MOL   H35641612   2.328   5.694   7.392  0.7279  0.2987  0.9432
  109MOL   H35741613   2.319   5.996   7.338  3.3993  1.4050  3.3765
  109MOL   H35841614   2.463   5.909   7.360 -1.5985 -1.7145  4.3746
  109MOL   H35941615   2.437   5.945   7.129 -0.2011 -1.4476 -2.2314
  109MOL   H36041616   2.272   5.889   7.120 -0.2076 -1.3823  1.1182
  109MOL   H36141617   2.360   5.786   7.614 -1.4264  0.1102  1.8830
  109MOL   H36241618   2.273   5.931   7.558 -0.0351  0.2783 -0.2471
  109MOL   C36341619   2.409   5.730   7.111 -0.2299 -0.1472  0.3289
  109MOL   C36441620   2.538   5.662   7.176  0.9928  0.5272  1.0364
  109MOL   C36541621   2.624   5.608   7.061 -0.3283 -0.2284  0.3692
  109MOL   C36641622   2.542   5.619   6.935 -0.4528 -0.1770  0.2571
  109MOL   C36741623   2.632   5.632   6.807 -0.3004  0.0413  0.4128
  109MOL   C36841624   2.717   5.516   6.768 -0.4472 -0.2792  0.8396
  109MOL   C36941625   2.450   5.733   6.962  0.0581 -0.0034  0.2607
  109MOL   H37041626   2.325   5.660   7.114 -0.2124 -0.1038  1.8269
  109MOL   H37141627   2.589   5.735   7.239  2.4401  2.2244 -1.9899
  109MOL   H37241628   2.496   5.574   7.224  0.7914  0.2892  0.4320
  109MOL   H37341629   2.706   5.679   7.056  0.9926 -1.7977 -1.0237
  109MOL   H37441630   2.664   5.508   7.076 -2.4005 -0.7711  2.6034
  109MOL   H37541631   2.494   5.524   6.915 -1.1621  0.1553  0.3751
  109MOL   H37641632   2.575   5.667   6.721  1.8323 -1.4399 -1.6564
  109MOL   H37741633   2.702   5.713   6.825  0.4815  0.1034 -2.6112
  109MOL   H37841634   2.649   5.441   6.729 -0.2343  0.0034 -0.0725
  109MOL   H37941635   2.776   5.476   6.851  1.5452 -1.1430 -0.9563
  109MOL   H38041636   2.495   5.830   6.940  0.0118 -0.9208 -4.2203
  109MOL   H38141637   2.363   5.736   6.897 -0.3689 -2.0284  0.7181
  109MOL   H38241638   2.795   5.544   6.697  0.1923  2.0012  2.3902
  110MOL     C141639   0.292   3.877   0.856 -0.4301  0.3259  0.3703
  110MOL     C241640   0.389   3.909   0.966 -0.0459  0.1131 -0.2323
  110MOL     C341641   0.385   4.064   0.981 -0.3357 -0.3960 -0.0882
  110MOL     C441642   0.285   4.119   0.884  0.3785 -0.1577  0.0229
  110MOL     C541643   0.331   4.250   0.819  0.0140  0.4057  0.5322
  110MOL     C641644   0.218   4.340   0.764 -0.0804 -0.5593  0.6090
  110MOL     C741645   0.262   4.004   0.785 -0.3415  0.3032 -0.0467
  110MOL     H841646   0.328   3.808   0.780  0.8064  1.2135  0.1390
  110MOL     H941647   0.491   3.891   0.933  0.3770 -0.8120  1.5446
  110MOL    H1041648   0.376   3.851   1.058  1.5483  0.5352  0.2583
  110MOL    H1141649   0.356   4.092   1.082 -0.0496  3.7428 -1.0458
  110MOL    H1241650   0.480   4.115   0.963  0.1729 -0.4602  2.2137
  110MOL    H1341651   0.194   4.140   0.940 -1.7053 -2.3860 -2.4107
  110MOL    H1441652   0.394   4.311   0.884  1.1843  0.6812 -0.8387
  110MOL    H1541653   0.391   4.224   0.732 -0.1823 -0.2086  0.5765
  110MOL    H1641654   0.161   4.374   0.850 -0.8165  0.3499 -0.2276
  110MOL    H1741655   0.265   4.431   0.728  0.9471 -1.5500 -0.6243
  110MOL    H1841656   0.157   4.009   0.758 -0.0764  0.2102 -1.0908
  110MOL    H1941657   0.318   4.009   0.691 -0.1345 -1.0692 -0.0011
  110MOL    H2041658   0.201   3.840   0.904  0.9705 -2.0972  1.2254
  110MOL    C2141659   0.132   4.286   0.648 -0.5910  0.5615  0.2031
  110MOL    C2241660   0.034   4.390   0.592 -0.4641  0.0330  0.4493
  110MOL    C2341661   7.636   4.332   0.466  0.0600  0.3922 -0.1701
  110MOL    C2441662   0.093   4.233   0.413 -0.5637 -0.1805 -0.1628
  110MOL    C2541663   0.143   4.277   0.277  0.2252 -0.3584 -0.0567
  110MOL    C2641664   0.226   4.177   0.192 -0.4307 -0.2292 -0.0002
  110MOL    C2741665   0.200   4.236   0.514 -0.6675 -0.5540  0.4796
  110MOL    H2841666   0.078   4.197   0.682 -0.8584  0.5565 -0.2213
  110MOL    H2941667   7.597   4.406   0.659 -0.1948  0.0769  0.7803
  110MOL    H3041668   0.090   4.481   0.570  0.9031 -0.7551  0.5645
  110MOL    H3141669   7.535   4.292   0.461  0.8640 -1.7585  0.2424
  110MOL    H3241670   7.618   4.411   0.393 -2.2052 -1.0399 -1.2048
  110MOL    H3341671   0.049   4.134   0.405 -2.3449  0.5587  0.2557
  110MOL    H3441672   0.204   4.366   0.293  1.1859 -0.7491 -1.4868
  110MOL    H3541673   0.066   4.327   0.217 -0.2655  2.0959  2.5272
  110MOL    H3641674   0.162   4.097   0.155  2.8028 -1.7160 -2.5243
  110MOL    H3741675   0.283   4.125   0.269 -0.0583  0.0198 -0.1083
  110MOL    H3841676   0.239   4.135   0.522 -0.6534 -0.5184  0.8877
  110MOL    H3941677   0.275   4.311   0.486 -0.4899  0.0560  2.4670
  110MOL    C4041678   0.313   4.234   0.084  0.5686 -0.8407  0.4300
  110MOL    C4141679   0.461   4.214   0.100  0.1263 -0.4294  0.2615
  110MOL    C4241680   0.504   4.123   7.632 -0.4764  0.4298 -0.2191
  110MOL    C4341681   0.378   4.063   7.583 -0.1445  0.3449  0.1111
  110MOL    C4441682   0.395   3.990   7.452 -0.4512  0.5013 -0.3292
  110MOL    C4541683   0.284   3.885   7.433 -0.5781 -0.1199  0.4325
  110MOL    C4641684   0.275   4.171   7.593 -0.0447  0.2222  0.4742
  110MOL    H4741685   0.293   4.341   0.073  0.3116 -0.5580  3.3631
  110MOL    H4841686   0.483   4.166   0.195 -0.1330  1.0549  1.0858
  110MOL    H4941687   0.510   4.312   0.100 -1.4941  0.4088  1.2275
  110MOL    H5041688   0.549   4.185   7.555  0.4559 -2.4717 -2.1140
  110MOL    H5141689   0.576   4.045   0.011 -1.3436 -0.9002 -1.6699
  110MOL    H5241690   0.362   3.990   0.014 -1.7360 -1.5595 -1.9093
  110MOL    H5341691   0.400   4.062   7.371  1.3326 -0.9355 -1.5399
  110MOL    H5441692   0.497   3.952   7.444 -1.5616 -2.3342 -1.6264
  110MOL    H5541693   0.190   3.941   7.427 -0.4102  0.4718  2.9571
  110MOL    H5641694   0.264   3.820   7.518  0.0386  0.7226  1.2315
  110MOL    H5741695   0.284   4.247   7.515 -1.1009 -0.0620  0.0679
  110MOL    H5841696   0.178   4.123   7.595  0.7238 -1.4124 -0.3187
  110MOL    C5941697   0.293   3.803   7.301 -0.0609 -0.0293  0.7107
  110MOL    C6041698   0.417   3.711   7.294  0.1177  0.5498  0.7712
  110MOL    C6141699   0.381   3.559   7.276  0.2862  0.2037 -0.3412
  110MOL    C6241700   0.248   3.561   7.343  0.2741 -0.2768  0.0561
  110MOL    C6341701   0.168   3.440   7.299  0.0683 -0.8262 -0.5096
  110MOL    C6441702   0.029   3.431   7.356  0.0137 -0.2939  0.1068
  110MOL    C6541703   0.185   3.696   7.308 -0.2282  0.2137 -0.0261
  110MOL    H6641704   0.294   3.856   7.206 -0.8107 -0.1403  0.6356
  110MOL    H6741705   0.484   3.748   7.216 -0.5591  2.4994  1.0801
  110MOL    H6841706   0.471   3.711   7.389  0.0213  1.7560  0.8347
  110MOL    H6941707   0.384   3.530   7.171  4.5507  0.5808 -0.4406
  110MOL    H7041708   0.446   3.496   7.337 -0.0424  0.1729 -0.0249
  110MOL    H7141709   0.275   3.563   7.448  2.4403  1.2052 -0.4920
  110MOL    H7241710   0.225   3.353   7.332 -1.3928 -1.7847 -0.4737
  110MOL    H7341711   0.172   3.429   7.190  0.7793 -0.7884 -0.4908
  110MOL    H7441712   0.034   3.466   7.460 -0.8178 -1.1401  0.4368
  110MOL    H7541713   7.604   3.496   7.306  2.4393  1.3799 -1.3295
  110MOL    H7641714   0.141   3.694   7.208 -1.8882 -0.1142  0.6944
  110MOL    H7741715   0.109   3.724   7.381 -0.7963 -1.5983  0.0873
  110MOL    C7841716   7.634   3.283   7.352  0.5427  0.0214  0.1002
  110MOL    C7941717   7.495   3.270   7.414 -0.1960  0.6277 -0.5187
  110MOL    C8041718   7.402   3.224   7.300 -0.2840  0.2486 -0.0033
  110MOL    C8141719   7.486   3.147   7.196  0.8110  0.6306 -0.1079
  110MOL    C8241720   7.439   3.149   7.054 -0.3094 -0.2765 -0.7011
  110MOL    C8341721   7.309   3.069   7.047 -0.5259  0.1916 -0.5421
  110MOL    C8441722   7.618   3.230   7.207  0.0844 -0.1540 -0.0501
  110MOL    H8541723   0.052   3.226   7.418 -0.1513 -0.3684  0.4488
  110MOL    H8641724   7.503   3.193   7.490 -0.4343 -0.4832 -1.5904
  110MOL    H8741725   7.449   3.360   7.456  0.0887  0.2672  0.5671
  110MOL    H8841726   7.329   3.148   7.326  0.4393 -0.6058 -0.4689
  110MOL    H8941727   7.347   3.306   7.254 -1.5002  0.5799  1.9498
  110MOL    H9041728   7.507   3.048   7.237 -1.5234  0.3164  0.4162
  110MOL    H9141729   7.518   3.114   6.987  0.2677 -0.0916 -0.1213
  110MOL    H9241730   7.419   3.249   7.015 -1.8448 -1.2304 -2.4405
  110MOL    H9341731   7.233   3.127   7.100  0.5821  2.2143 -1.1087
  110MOL    H9441732   7.322   2.974   7.098  1.6690  0.3543 -0.7672
  110MOL    H9541733   7.618   3.312   7.135 -2.7196  0.3046  0.4166
  110MOL    H9641734   0.062   3.172   7.191  0.6106  0.6647 -0.0785
  110MOL    C9741735   7.257   3.044   6.901 -0.2629 -0.5323  0.2392
  110MOL    C9841736   7.175   3.165   6.849 -0.0236  0.2152 -0.1762
  110MOL    C9941737   7.062   3.116   6.766 -0.3805  0.7507 -1.3059
  110MOL   C10041738   7.086   2.962   6.753 -0.4103 -0.6804 -0.2925
  110MOL   C10141739   6.950   2.886   6.728 -0.0344  0.0553  0.0844
  110MOL   C10241740   6.978   2.739   6.698  0.1227  0.1100  0.1947
  110MOL   C10341741   7.174   2.921   6.873 -0.4923 -0.2546  0.4813
  110MOL   H10441742   7.344   3.049   6.837 -0.2197 -0.1097  0.3276
  110MOL   H10541743   7.142   3.236   6.926  1.6607  1.5084 -0.6248
  110MOL   H10641744   7.236   3.224   6.781  0.3552 -1.9930 -1.7912
  110MOL   H10741745   6.976   3.130   6.832 -0.2612 -1.1149 -0.7244
  110MOL   H10841746   7.036   3.172   6.677 -0.9724  1.1329 -0.8966
  110MOL   H10941747   7.148   2.961   6.663  0.6423  0.7458  0.3859
  110MOL   H11041748   6.893   2.898   6.820  0.7580  0.5568  0.5094
  110MOL   H11141749   6.890   2.921   6.644 -0.8238  0.8811  0.9802
  110MOL   H11241750   7.019   2.734   6.598  0.5549  1.4923  0.2852
  110MOL   H11341751   7.057   2.704   6.764 -0.0854  0.4185  0.6148
  110MOL   H11441752   7.114   2.886   6.957 -0.6426 -0.1327  0.4252
  110MOL   H11541753   7.239   2.834   6.861 -1.3560 -1.2073  2.5318
  110MOL   C11641754   6.843   2.653   6.691  0.0276 -0.6055 -0.2430
  110MOL   C11741755   6.855   2.523   6.614  0.5072 -0.1277 -0.8451
  110MOL   C11841756   6.755   2.418   6.666 -0.2060  0.1192  0.4483
  110MOL   C11941757   6.712   2.480   6.802 -0.2089  0.0543  0.6478
  110MOL   C12041758   6.716   2.388   6.921 -0.1727 -0.0583  0.0768
  110MOL   C12141759   6.646   2.447   7.047  0.9467  0.4833  0.0639
  110MOL   C12241760   6.796   2.601   6.831 -0.1474  0.0343  0.5617
  110MOL   H12341761   6.765   2.711   6.642  1.4844  1.2478 -0.4554
  110MOL   H12441762   6.951   2.473   6.611  0.7007  0.0998  0.9573
  110MOL   H12541763   6.837   2.541   6.508  0.8425 -0.3409 -0.9366
  110MOL   H12641764   6.813   2.326   6.674 -0.6536 -0.3084 -1.1481
  110MOL   H12741765   6.674   2.406   6.594  0.4656  2.4767 -0.7299
  110MOL   H12841766   6.608   2.509   6.788 -0.3151  0.5604  2.3499
  110MOL   H12941767   6.820   2.367   6.945  0.1859  1.4984 -0.1083
  110MOL   H13041768   6.667   2.296   6.888  0.4692 -1.5577  3.1182
  110MOL   H13141769   6.538   2.457   7.033  0.8083  1.4857  1.7129
  110MOL   H13241770   6.684   2.549   7.054 -1.3658  1.2570  1.9646
  110MOL   H13341771   6.740   2.680   6.880 -0.2217 -0.3048  1.0225
  110MOL   H13441772   6.892   2.578   6.878  1.3854  0.7536 -2.0646
  110MOL   C13541773   6.675   2.356   7.171  0.1206  0.2026  0.0492
  110MOL   C13641774   6.631   2.413   7.307 -0.1913  0.3730  0.2932
  110MOL   C13741775   6.632   2.290   7.397  0.0235 -0.2452 -0.4417
  110MOL   C13841776   6.581   2.180   7.299 -0.1869 -0.6264  0.0060
  110MOL   C13941777   6.613   2.037   7.351 -0.3330  0.3139  0.3610
  110MOL   C14041778   6.560   1.929   7.252 -0.8368 -0.0891 -0.1891
  110MOL   C14141779   6.636   2.210   7.160  0.1125  0.3949  0.3966
  110MOL   H14241780   6.783   2.349   7.182  0.0013  0.9719  1.8724
  110MOL   H14341781   6.682   2.500   7.348 -0.5976 -0.2124  2.1311
  110MOL   H14441782   6.524   2.430   7.295 -0.6636 -2.3167  0.4189
  110MOL   H14541783   6.732   2.258   7.429 -0.3903 -0.6629  0.4707
  110MOL   H14641784   6.583   2.304   7.493  1.3217 -0.3075  0.2486
  110MOL   H14741785   6.473   2.188   7.304 -0.2005 -1.1487  0.6157
  110MOL   H14841786   6.567   2.024   7.449  0.8634 -1.7797  0.6715
  110MOL   H14941787   6.722   2.034   7.352 -0.3466  0.0326  0.8569
  110MOL   H15041788   6.455   1.948   7.229 -0.0289  1.7613 -2.5847
  110MOL   H15141789   6.620   1.933   7.162  0.6506  1.1207  0.8184
  110MOL   H15241790   6.565   2.194   7.079 -0.4847 -1.4567  1.2574
  110MOL   H15341791   6.729   2.153   7.147 -0.4096 -1.7236  4.9285
  110MOL   C15441792   6.589   1.786   7.297  0.5477 -0.2595  0.8174
  110MOL   C15541793   6.736   1.748   7.300 -0.1538  0.0978 -0.6951
  110MOL   C15641794   6.732   1.591   7.310 -0.2803  0.1944 -0.0595
  110MOL   C15741795   6.609   1.549   7.222 -0.4623  0.3799  0.1664
  110MOL   C15841796   6.641   1.465   7.093 -0.4219  0.1514  0.1949
  110MOL   C15941797   6.523   1.414   7.014  0.2111  0.9311 -0.2428
  110MOL   C16041798   6.531   1.679   7.195 -0.1712 -0.3295  0.0485
  110MOL   H16141799   6.553   1.759   7.397  3.2068 -1.1294  1.5827
  110MOL   H16241800   6.792   1.761   7.207  0.6786 -1.9161 -0.4921
  110MOL   H16341801   6.788   1.785   7.388 -1.2577  0.1568 -0.0590
  110MOL   H16441802   6.829   1.547   7.289 -1.0041 -1.1869 -0.6321
  110MOL   H16541803   6.712   1.556   7.412 -1.4702 -0.9125 -0.6534
  110MOL   H16641804   6.551   1.474   7.276  1.0998 -1.4526 -0.6460
  110MOL   H16741805   6.708   1.380   7.107  1.0162  1.2026 -0.1214
  110MOL   H16841806   6.701   1.524   7.023 -0.2233 -1.3778 -0.9359
  110MOL   H16941807   6.488   1.321   7.057 -1.4610  1.0516 -1.2932
  110MOL   H17041808   6.438   1.482   7.010  0.6990  1.5023 -1.2665
  110MOL   H17141809   6.423   1.671   7.199 -0.3058  1.2970 -0.1211
  110MOL   H17241810   6.555   1.711   7.093 -1.1873 -0.4760 -0.2358
  110MOL   C17341811   6.556   1.372   6.869 -0.3465 -0.0304 -0.3990
  110MOL   C17441812   6.462   1.270   6.812 -0.3112 -0.6206 -0.5433
  110MOL   C17541813   6.485   1.276   6.658  0.2323  0.2383  0.2187
  110MOL   C17641814   6.556   1.410   6.634  0.2711  0.6618 -0.7122
  110MOL   C17741815   6.492   1.502   6.530 -0.3147 -0.2177 -0.1683
  110MOL   C17841816   6.478   1.428   6.389  0.5551 -1.0181 -0.8062
  110MOL   C17941817   6.564   1.481   6.768 -0.4779  0.0853 -0.4856
  110MOL   H18041818   6.656   1.330   6.858 -0.0894 -0.0064  1.6154
  110MOL   H18141819   6.359   1.299   6.831 -0.0471  1.1596 -1.7484
  110MOL   H18241820   6.470   1.168   6.850 -0.6654 -0.9462 -1.3167
  110MOL   H18341821   6.537   1.193   6.610  1.8494  0.3128  1.7745
  110MOL   H18441822   6.391   1.294   6.606  0.9653  0.5355 -1.0379
  110MOL   H18541823   6.657   1.390   6.601  0.0208 -0.1531 -0.9935
  110MOL   H18641824   6.578   1.568   6.524 -1.1528  0.7705 -1.8719
  110MOL   H18741825   6.399   1.549   6.561 -1.1425 -2.2994  0.5936
  110MOL   H18841826   6.405   1.348   6.403  0.7439 -1.0074  0.2549
  110MOL   H18941827   6.570   1.379   6.356  1.3925 -0.1101  0.1475
  110MOL   H19041828   6.491   1.561   6.782  2.0947  2.5033 -0.3924
  110MOL   H19141829   6.660   1.533   6.762  0.9311 -2.4402 -0.4443
  110MOL   C19241830   6.430   1.507   6.272 -0.0513 -0.1424 -0.7928
  110MOL   C19341831   6.301   1.579   6.287  0.8891 -0.4715 -0.3559
  110MOL   C19441832   6.269   1.627   6.152 -0.2988  0.4523 -0.1555
  110MOL   C19541833   6.294   1.506   6.061  0.3294  0.7319 -0.2861
  110MOL   C19641834   6.321   1.547   5.922 -0.2763 -0.7090  0.1214
  110MOL   C19741835   6.337   1.438   5.827  0.1197 -0.3154  0.3245
  110MOL   C19841836   6.412   1.437   6.135  0.1542  0.3774 -0.1438
  110MOL   H19941837   6.515   1.575   6.264 -0.6438  0.9878  2.0726
  110MOL   H20041838   6.228   1.506   6.324  1.6235 -0.9115  0.2477
  110MOL   H20141839   6.308   1.655   6.365 -1.9199  1.4772 -1.9303
  110MOL   H20241840   6.311   1.723   6.124  1.2101 -0.2573 -0.3910
  110MOL   H20341841   6.162   1.649   6.153 -0.1473  1.2252  1.9000
  110MOL   H20441842   6.206   1.442   6.064  1.5439 -0.9378  0.8329
  110MOL   H20541843   6.412   1.606   5.931  0.8948 -2.3334 -0.8109
  110MOL   H20641844   6.243   1.605   5.871  1.5050  0.6348 -1.1308
  110MOL   H20741845   6.251   1.371   5.827  0.5441 -0.8609  0.9179
  110MOL   H20841846   6.414   1.371   5.864 -1.0589 -1.4944  0.6703
  110MOL   H20941847   6.507   1.452   6.084 -0.1994  2.8360 -0.1425
  110MOL   H21041848   6.390   1.331   6.146  0.3861  0.1144 -2.0806
  110MOL   C21141849   6.384   1.485   5.689  0.4569 -1.0239 -0.1489
  110MOL   C21241850   6.352   1.374   5.592  0.0092  0.1452 -0.1870
  110MOL   C21341851   6.478   1.362   5.500 -0.6985 -0.3610  0.0267
  110MOL   C21441852   6.579   1.463   5.552 -0.4863  0.0277 -0.5474
  110MOL   C21541853   6.725   1.414   5.528  0.0495 -0.7391 -0.0274
  110MOL   C21641854   6.833   1.522   5.565  0.2199  0.0822  0.4250
  110MOL   C21741855   6.538   1.510   5.689 -0.2749 -0.5012 -0.0838
  110MOL   H21841856   6.320   1.571   5.667 -0.0879 -0.7833  2.1641
  110MOL   H21941857   6.342   1.276   5.640 -0.9619 -0.3103 -1.3067
  110MOL   H22041858   6.260   1.393   5.538 -0.1805 -0.9880 -0.2696
  110MOL   H22141859   6.519   1.263   5.519 -3.3735 -1.3073  1.1275
  110MOL   H22241860   6.458   1.368   5.393 -0.4234 -3.2987 -0.2233
  110MOL   H22341861   6.555   1.552   5.494  0.0678  0.5740  0.0489
  110MOL   H22441862   6.737   1.368   5.429  0.0957  0.7998 -0.7597
  110MOL   H22541863   6.745   1.326   5.589 -0.0566 -1.0617 -0.4546
  110MOL   H22641864   6.823   1.595   5.485  2.7462 -1.4309 -1.3630
  110MOL   H22741865   6.806   1.567   5.661  2.6181  1.6469  0.4002
  110MOL   H22841866   6.571   1.613   5.705  1.1963 -0.8473 -0.8318
  110MOL   H22941867   6.593   1.442   5.754  1.2990  1.0934  0.2983
  110MOL   C23041868   6.977   1.457   5.565  0.3688  0.2623  0.5414
  110MOL   C23141869   7.091   1.551   5.586  0.1400  0.6953  0.1460
  110MOL   C23241870   7.214   1.477   5.532 -0.4905  0.3576  0.5839
  110MOL   C23341871   7.166   1.389   5.414  0.3479  0.0732 -0.8413
  110MOL   C23441872   7.239   1.247   5.412 -0.4845 -0.3184 -0.7261
  110MOL   C23541873   7.220   1.175   5.275 -0.2467 -0.3003  0.2241
  110MOL   C23641874   7.014   1.373   5.445 -0.9199 -0.3032  0.0318
  110MOL   H23741875   6.978   1.390   5.651 -1.7811  0.1240  0.4895
  110MOL   H23841876   7.077   1.649   5.540 -1.8827  0.0488 -0.6857
  110MOL   H23941877   7.108   1.575   5.691 -0.8821  3.4140 -0.2659
  110MOL   H24041878   7.258   1.413   5.609  0.0355 -1.9113 -1.5444
  110MOL   H24141879   7.292   1.547   5.503  0.9146 -1.3582  0.0912
  110MOL   H24241880   7.179   1.446   5.323  1.4532 -0.4799 -1.0362
  110MOL   H24341881   7.204   1.187   5.496 -0.0246  0.9382  0.3828
  110MOL   H24441882   7.343   1.276   5.425 -0.3638 -1.4295  0.9873
  110MOL   H24541883   7.116   1.146   5.258  0.4236 -1.3544 -2.3519
  110MOL   H24641884   7.241   1.242   5.192  0.0124  0.1887  0.6829
  110MOL   H24741885   6.985   1.270   5.468  2.7449 -1.7079 -1.1733
  110MOL   H24841886   6.966   1.402   5.351  1.3046  0.9370 -0.7506
  110MOL   C24941887   7.299   1.041   5.270 -0.6542  0.6363  0.5293
  110MOL   C25041888   7.253   0.957   5.150 -0.2130  0.2786  0.5204
  110MOL   C25141889   7.353   0.842   5.147  0.4897  0.1117  0.5183
  110MOL   C25241890   7.483   0.905   5.190  0.1936 -0.4863  0.5436
  110MOL   C25341891   7.574   0.823   5.292  0.5092  0.1740 -0.1215
  110MOL   C25441892   7.617   0.689   5.228  0.4350 -0.5185 -0.9720
  110MOL   C25541893   7.452   1.040   5.256 -0.2114 -0.6123 -0.4137
  110MOL   H25641894   7.284   0.983   5.361  0.5696 -0.1935  0.2130
  110MOL   H25741895   7.151   0.923   5.168 -0.2637 -0.5375 -1.2874
  110MOL   H25841896   7.242   1.007   5.054 -2.8416 -2.5068 -0.7011
  110MOL   H25941897   7.360   0.778   5.059 -1.2893  0.4422  0.1011
  110MOL   H26041898   7.320   0.775   5.227 -0.5328 -1.2702 -1.0165
  110MOL   H26141899   7.535   0.939   5.100  0.2378  0.8007  1.0409
  110MOL   H26241900   7.521   0.805   5.386 -1.5124 -0.7574 -1.3814
  110MOL   H26341901   0.013   0.880   5.326 -0.9279  0.7099  2.8491
  110MOL   H26441902   0.051   0.711   5.159  0.3627  0.0228 -0.8935
  110MOL   H26541903   7.527   0.656   5.176 -0.0956 -1.6582  0.6616
  110MOL   H26641904   7.483   1.122   5.192 -0.0090 -0.8700 -0.6454
  110MOL   H26741905   7.497   1.055   5.354 -0.9433 -0.6869 -0.0619
  110MOL   C26841906   0.019   0.578   5.320 -0.3195  0.6016  0.4106
  110MOL   C26941907   0.059   0.443   5.244 -0.4480 -0.2558  0.4105
  110MOL   C27041908   0.028   0.331   5.344  0.4368  0.0038  0.1954
  110MOL   C27141909   7.607   0.399   5.460  0.2749 -0.4311 -0.1052
  110MOL   C27241910   7.498   0.309   5.534 -0.1052  0.7620 -0.5924
  110MOL   C27341911   7.550   0.161   5.550  0.0716 -0.2179 -0.6918
  110MOL   C27441912   7.561   0.534   5.414  0.9239  0.0077  0.3194
  110MOL   H27541913   0.107   0.616   5.373  0.2359 -0.7556  0.4751
  110MOL   H27641914   7.646   0.429   5.154  0.4134 -2.1777  0.1257
  110MOL   H27741915   0.164   0.446   5.215 -1.0973  1.0070 -1.9542
  110MOL   H27841916   7.605   0.263   5.295  0.9017  0.1296 -0.6595
  110MOL   H27941917   0.114   0.272   5.374  1.5011  0.1734 -2.3393
  110MOL   H28041918   0.040   0.420   5.531 -0.0946  1.5491 -0.2374
  110MOL   H28141919   7.409   0.297   5.472 -0.5485 -0.0916  0.1965
  110MOL   H28241920   7.465   0.356   5.626  0.4136  1.0910 -0.5693
  110MOL   H28341921   7.522   0.105   5.461  1.2283 -0.6343 -0.8129
  110MOL   H28441922   0.010   0.158   5.572  0.0559 -2.1956 -0.7846
  110MOL   H28541923   7.473   0.515   5.354  1.7669  1.1369 -1.2997
  110MOL   H28641924   7.540   0.594   5.502 -1.3646  1.5118 -1.2159
  110MOL   C28741925   7.494   0.100   5.678 -0.2099 -0.0499 -0.1207
  110MOL   C28841926   7.350   0.137   5.714  0.1097 -0.1729 -0.2049
  110MOL   C28941927   7.304   0.023   5.817  0.2912 -0.9560  0.1873
  110MOL   C29041928   7.420   7.569   5.812 -0.4367 -0.6795 -0.3499
  110MOL   C29141929   7.372   7.417   5.831 -0.0845  0.9286 -0.2213
  110MOL   C29241930   7.270   7.395   5.948 -0.2248 -0.3684  0.0211
  110MOL   C29341931   7.507   7.594   5.688  0.5943 -0.4381  0.9491
  110MOL   H29441932   7.559   0.133   5.759  0.2989 -0.5916 -0.3089
  110MOL   H29541933   7.339   0.235   5.760 -1.3787 -1.0916  1.4899
  110MOL   H29641934   7.289   0.137   5.624  1.4225  0.5948 -1.1065
  110MOL   H29741935   7.207   7.627   5.791 -0.7662  0.5854  1.5298
  110MOL   H29841936   7.281   0.064   5.915 -0.4445  0.8734 -0.7288
  110MOL   H29941937   7.489   7.604   5.889  0.2389 -1.4616 -0.5798
  110MOL   H30041938   7.449   7.340   5.836  0.7896  1.6662 -1.8729
  110MOL   H30141939   7.308   7.390   5.746  0.2353 -2.5479  0.5402
  110MOL   H30241940   7.180   7.455   5.933  0.6322  0.7208 -0.7794
  110MOL   H30341941   7.325   7.436   6.032 -2.5605  1.4980  0.6828
  110MOL   H30441942   7.464   7.549   5.599  2.7947  0.7127 -0.7243
  110MOL   H30541943   7.609   7.558   5.693  0.5432 -1.1225 -2.1290
  110MOL   C30641944   7.223   7.254   5.985 -0.0039 -0.4174 -0.4798
  110MOL   C30741945   7.322   7.150   6.050 -0.3107 -0.3258  0.6610
  110MOL   C30841946   7.233   7.050   6.129 -0.1950  0.3447 -0.1052
  110MOL   C30941947   7.089   7.107   6.114  0.4699 -0.3034  0.3575
  110MOL   C31041948   6.994   7.085   6.235 -0.1170  0.2094  0.2146
  110MOL   C31141949   6.849   7.136   6.224 -0.6804  1.1353 -0.0990
  110MOL   C31241950   7.100   7.259   6.079 -0.0411  0.1974  0.4599
  110MOL   H31341951   7.182   7.210   5.894 -0.0462  0.2328 -0.7774
  110MOL   H31441952   7.382   7.108   5.970 -0.6498 -0.7073  0.6073
  110MOL   H31541953   7.388   7.214   6.109  1.0280  0.8142 -1.9793
  110MOL   H31641954   7.242   6.947   6.096 -3.6765 -0.9617  2.6662
  110MOL   H31741955   7.272   7.061   6.231  0.3281 -1.8059 -0.0507
  110MOL   H31841956   7.049   7.043   6.035 -0.9705  1.3811 -0.2936
  110MOL   H31941957   6.996   6.979   6.261  0.8596 -0.0793 -0.9767
  110MOL   H32041958   7.039   7.135   6.320 -1.1951  3.8944 -1.2933
  110MOL   H32141959   6.850   7.244   6.234 -3.5294  1.1890 -0.2612
  110MOL   H32241960   6.789   7.110   6.311 -0.7315  3.4145  0.5800
  110MOL   H32341961   7.111   7.329   6.162 -0.6049  0.8885 -0.0423
  110MOL   H32441962   7.012   7.288   6.022  1.1718  1.9261 -0.5608
  110MOL   C32541963   6.770   7.092   6.107 -0.1536  0.5371  0.4355
  110MOL   C32641964   6.727   6.942   6.102 -0.2180  0.0700 -0.2627
  110MOL   C32741965   6.572   6.939   6.104  0.2836 -1.2705  0.2928
  110MOL   C32841966   6.529   7.074   6.050 -0.3384 -0.0892  0.0989
  110MOL   C32941967   6.492   7.060   5.900 -0.8232 -0.0325 -0.2186
  110MOL   C33041968   6.368   6.975   5.869  0.0619  0.1230  0.3905
  110MOL   C33141969   6.640   7.175   6.077 -0.2522  0.3127 -0.3472
  110MOL   H33241970   6.831   7.111   6.018 -2.2333  1.0196 -0.9072
  110MOL   H33341971   6.772   6.888   6.186  1.0188  0.8906 -0.3871
  110MOL   H33441972   6.760   6.896   6.009  0.4612  0.5542 -0.2638
  110MOL   H33541973   6.531   6.860   6.040 -0.2718 -1.4736  0.8925
  110MOL   H33641974   6.546   6.923   6.209  0.5564  4.4261  1.3680
  110MOL   H33741975   6.444   7.114   6.106 -1.0843  1.4872 -2.1146
  110MOL   H33841976   6.476   7.158   5.856 -1.0361 -0.1254 -0.3496
  110MOL   H33941977   6.579   7.028   5.844  0.2773  1.2415  0.7315
  110MOL   H34041978   6.392   6.869   5.869  2.1744  0.5670 -0.7887
  110MOL   H34141979   6.299   6.985   5.952 -0.0308 -3.1107  0.7581
  110MOL   H34241980   6.609   7.231   6.165 -0.7853 -0.8510  0.2112
  110MOL   H34341981   6.646   7.241   5.989  0.7202  0.9108  0.1597
  110MOL   C34441982   6.304   7.016   5.735  0.3650  0.7862 -0.5325
  110MOL   C34541983   6.176   6.938   5.696  0.4161 -0.6195  0.7546
  110MOL   C34641984   6.154   6.983   5.550  0.0388  0.0786 -0.0567
  110MOL   C34741985   6.295   6.990   5.490  0.2071 -0.5745 -0.6492
  110MOL   C34841986   6.325   7.092   5.376 -0.5391  0.7217 -0.0828
  110MOL   C34941987   6.295   7.236   5.416 -0.4376  0.2852 -0.4967
  110MOL   C35041988   6.393   7.001   5.609 -0.6998 -0.5133  0.8199
  110MOL   H35141989   6.270   7.119   5.749 -0.6440  0.3028  0.6601
  110MOL   H35241990   6.106   6.962   5.776 -0.1186 -0.1060  0.1417
  110MOL   H35341991   6.193   6.831   5.708 -1.7955 -1.2005 -0.9895
  110MOL   H35441992   6.087   6.910   5.504  0.7317 -1.1790  0.9075
  110MOL   H35541993   6.101   7.078   5.547  0.7560  0.5325  1.4394
  110MOL   H35641994   6.313   6.892   5.447  0.2854 -0.3606 -1.1062
  110MOL   H35741995   6.421   7.075   5.327 -0.2292  0.1144  0.7279
  110MOL   H35841996   6.254   7.067   5.298  0.0157  0.3059 -0.4569
  110MOL   H35941997   6.351   7.274   5.502  2.4863 -2.4088 -1.1511
  110MOL   H36041998   6.187   7.239   5.427 -0.3245 -2.4463  1.7092
  110MOL   H36141999   6.452   6.910   5.618  0.4765  0.2276  0.6945
  110MOL   H36242000   6.467   7.082   5.607 -0.5332 -0.6358  1.7078
  110MOL   C36342001   6.335   7.334   5.307  0.1460  0.1300  0.4341
  110MOL   C36442002   6.323   7.478   5.341 -0.8860 -0.4964  0.2136
  110MOL   C36542003   6.305   7.548   5.205  0.3235  0.3867 -0.3393
  110MOL   C36642004   6.310   7.435   5.099 -0.0689 -0.4513 -0.5514
  110MOL   C36742005   6.244   7.452   4.962  0.4636  0.7568  0.6194
  110MOL   C36842006   6.303   7.574   4.885 -0.1743 -0.6081 -0.2444
  110MOL   C36942007   6.278   7.305   5.172  0.6088  0.2430  0.8156
  110MOL   H37042008   6.443   7.318   5.304  0.0740 -0.4430  0.6907
  110MOL   H37142009   6.230   7.504   5.391 -0.8861 -1.2410  0.6103
  110MOL   H37242010   6.404   7.515   5.404 -1.4273  1.0922  0.0189
  110MOL   H37342011   6.209   7.599   5.210 -0.2084 -0.5722 -0.7276
  110MOL   H37442012   6.386   7.621   5.200  0.4537  0.3619  1.1746
  110MOL   H37542013   6.418   7.429   5.082  0.1131  2.0842 -0.4867
  110MOL   H37642014   6.259   7.356   4.912 -0.8399  0.7667  0.1903
  110MOL   H37742015   6.136   7.460   4.974  0.1677 -0.5214 -1.0609
  110MOL   H37842016   6.271   7.576   4.781 -2.6047  1.7553  0.5014
  110MOL   H37942017   6.412   7.580   4.885 -0.0391 -2.6469 -1.0540
  110MOL   H38042018   6.171   7.292   5.191  0.4838  1.2651  0.8708
  110MOL   H38142019   6.312   7.217   5.118  1.1485  0.7529  0.3154
  110MOL   H38242020   6.276   0.024   4.926  0.1972 -0.2944 -0.7321
  111MOL     C142021   0.066   2.475   4.832  0.5501  0.2534  0.7363
  111MOL     C242022   0.152   2.449   4.950 -0.5389  0.4184  0.1363
  111MOL     C342023   0.101   2.310   5.012 -0.6705  0.1031 -0.0945
  111MOL     C442024   0.059   2.225   4.883 -0.5686 -0.2428  0.0287
  111MOL     C542025   7.578   2.134   4.897  0.2612  0.7118 -0.4541
  111MOL     C642026   7.550   2.037   4.785 -0.7360 -0.3413 -0.4151
  111MOL     C742027   0.033   2.332   4.778  0.3558  0.0481  0.2217
  111MOL     H842028   7.617   2.519   4.860 -0.0324  0.8857 -2.1627
  111MOL     H942029   0.141   2.519   5.033  0.5234  1.6832 -0.7760
  111MOL    H1042030   0.252   2.430   4.913 -0.7843  0.4135 -0.5344
  111MOL    H1142031   0.173   2.251   5.069 -0.7921  1.0836  1.0777
  111MOL    H1242032   0.012   2.329   5.070 -1.2978 -0.5143 -0.8473
  111MOL    H1342033   0.150   2.177   4.848 -0.8029 -0.6246 -0.0604
  111MOL    H1442034   7.579   2.074   4.988  0.5854  1.6596  0.1840
  111MOL    H1542035   7.487   2.186   4.926 -1.6454 -1.7686 -1.7788
  111MOL    H1642036   7.544   2.085   4.687 -1.0127 -1.0813 -0.7632
  111MOL    H1742037   7.627   1.961   4.768 -0.7185 -1.1606  3.0110
  111MOL    H1842038   0.083   2.306   4.685 -0.2542  0.3505 -0.1968
  111MOL    H1942039   7.575   2.326   4.748  1.2373 -0.2789 -2.9352
  111MOL    H2042040   0.118   2.542   4.765 -1.0396  1.1249  0.3475
  111MOL    C2142041   7.422   1.958   4.817  0.7131  0.3705 -0.1792
  111MOL    C2242042   7.287   2.041   4.814  0.9443  0.8997  0.2485
  111MOL    C2342043   7.173   1.951   4.757 -0.1491  1.5890  0.2850
  111MOL    C2442044   7.243   1.813   4.738 -0.2759  0.3937 -0.8049
  111MOL    C2542045   7.168   1.723   4.639  0.5514 -0.0480 -0.3783
  111MOL    C2642046   7.015   1.717   4.648 -0.5595 -0.7227  0.1263
  111MOL    C2742047   7.398   1.843   4.730 -0.2711  0.9354  0.0910
  111MOL    H2842048   7.439   1.909   4.913  1.5160 -2.7233 -1.8258
  111MOL    H2942049   7.264   2.074   4.915 -0.7031  1.1930 -0.2009
  111MOL    H3042050   7.293   2.122   4.741  0.0853  1.0245  0.3056
  111MOL    H3142051   7.080   1.941   4.814 -1.1988  0.0651 -1.6103
  111MOL    H3242052   7.135   1.992   4.664 -0.5210  0.0514 -0.2585
  111MOL    H3342053   7.239   1.771   4.838  1.3547  0.7909 -0.5534
  111MOL    H3442054   7.221   1.628   4.648  0.2840  0.0422  2.8386
  111MOL    H3542055   7.193   1.765   4.542 -2.0067 -1.1069 -1.5151
  111MOL    H3642056   6.990   1.819   4.619 -0.7090 -0.3087  1.6939
  111MOL    H3742057   6.970   1.701   4.746 -0.5843 -0.3209  0.1797
  111MOL    H3842058   7.463   1.764   4.766 -2.9365 -1.3014  0.1165
  111MOL    H3942059   7.429   1.881   4.632  2.0940  0.4542  0.6188
  111MOL    C4042060   6.959   1.626   4.542  0.0780 -0.0863 -0.3167
  111MOL    C4142061   6.973   1.475   4.576  0.0343  0.2755 -0.3982
  111MOL    C4242062   6.846   1.413   4.517  0.2737 -0.0378  0.6545
  111MOL    C4342063   6.739   1.525   4.499 -0.8873 -0.1823 -0.4011
  111MOL    C4442064   6.651   1.525   4.371 -0.1058  0.2289 -0.0374
  111MOL    C4542065   6.733   1.518   4.243 -0.2515  0.6034  0.0563
  111MOL    C4642066   6.820   1.660   4.510  0.5285  0.0659 -0.2644
  111MOL    H4742067   7.020   1.627   4.452 -2.7086 -2.3463 -2.2872
  111MOL    H4842068   6.963   1.463   4.684  1.3589 -0.2823 -0.3286
  111MOL    H4942069   7.064   1.421   4.552  1.0309 -0.5228  4.5731
  111MOL    H5042070   6.884   1.370   4.424 -1.0307 -1.1620  0.6260
  111MOL    H5142071   6.808   1.325   4.569 -3.2549  0.3722 -1.0379
  111MOL    H5242072   6.678   1.517   4.589 -2.2449 -1.4485 -1.4169
  111MOL    H5342073   6.578   1.444   4.377 -0.2778  0.2108 -2.1124
  111MOL    H5442074   6.601   1.621   4.386  0.6445  0.8111 -1.2177
  111MOL    H5542075   6.796   1.430   4.254  0.3702  0.8897 -1.1230
  111MOL    H5642076   6.795   1.608   4.237  0.3373  0.1179 -1.5215
  111MOL    H5742077   6.813   1.725   4.424 -2.1554  0.2542  0.0643
  111MOL    H5842078   6.781   1.712   4.598 -1.1229 -2.3297  0.4872
  111MOL    C5942079   6.657   1.504   4.117  0.7482 -0.2928 -0.2766
  111MOL    C6042080   6.745   1.496   3.995  0.6791 -0.1916 -0.2790
  111MOL    C6142081   6.664   1.450   3.878 -0.6420  0.3353  0.3338
  111MOL    C6242082   6.557   1.361   3.941 -0.0434  0.2408 -0.0292
  111MOL    C6342083   6.418   1.382   3.901  0.5280 -0.4470  0.2977
  111MOL    C6442084   6.393   1.372   3.748  0.0876 -0.3773  0.6305
  111MOL    C6542085   6.572   1.372   4.102 -0.7522 -0.4606 -0.4020
  111MOL    H6642086   6.588   1.589   4.114 -0.2604 -1.0257  1.2911
  111MOL    H6742087   6.787   1.596   3.981 -0.7396  0.5426  0.5831
  111MOL    H6842088   6.829   1.431   4.017  0.2956 -0.6205 -0.0755
  111MOL    H6942089   6.620   1.534   3.825 -3.0500 -1.8596 -1.2316
  111MOL    H7042090   6.726   1.407   3.799 -1.8025 -1.1151  0.1779
  111MOL    H7142091   6.583   1.259   3.912  0.5877 -0.0304  1.4126
  111MOL    H7242092   6.381   1.481   3.929 -1.2406 -0.9101 -0.3185
  111MOL    H7342093   6.357   1.306   3.949 -1.5638  0.3738 -0.9603
  111MOL    H7442094   6.299   1.420   3.721 -0.6443 -2.5304 -0.8153
  111MOL    H7542095   6.469   1.436   3.704  0.4491 -1.8801 -1.0117
  111MOL    H7642096   6.477   1.371   4.155 -0.7085  0.1391 -0.3103
  111MOL    H7742097   6.625   1.283   4.137 -1.4161 -0.9133 -0.5345
  111MOL    C7842098   6.398   1.232   3.683  1.1374 -1.0173 -0.5544
  111MOL    C7942099   6.277   1.154   3.713  0.1235 -0.0924 -0.1790
  111MOL    C8042100   6.202   1.140   3.585  0.6800  0.3223 -0.1135
  111MOL    C8142101   6.309   1.145   3.482  0.1819  0.4373 -0.2997
  111MOL    C8242102   6.267   1.173   3.336 -0.1025 -0.4105 -0.6243
  111MOL    C8342103   6.153   1.090   3.301  0.4309  0.2667 -0.2640
  111MOL    C8442104   6.403   1.260   3.530  0.5070  0.1127 -0.1140
  111MOL    H8542105   6.483   1.166   3.702  1.2198 -1.7213 -3.1462
  111MOL    H8642106   6.304   1.054   3.747 -0.5027  0.4899  2.1705
  111MOL    H8742107   6.207   1.194   3.787 -1.3632  2.5169 -2.8741
  111MOL    H8842108   6.158   1.041   3.582 -0.4127  0.7960  0.0943
  111MOL    H8942109   6.122   1.213   3.568 -0.6651 -0.9293  0.7094
  111MOL    H9042110   6.363   1.051   3.496  1.6974  1.0867 -1.5618
  111MOL    H9142111   6.353   1.162   3.270  1.0365  0.5028  0.6939
  111MOL    H9242112   6.238   1.277   3.327 -0.0703 -0.2386  1.0551
  111MOL    H9342113   6.068   1.146   3.340 -2.0003 -1.8604 -2.3190
  111MOL    H9442114   6.136   0.999   3.359  0.5591  0.4103 -0.0021
  111MOL    H9542115   6.368   1.357   3.495  3.0925  0.8467 -0.7773
  111MOL    H9642116   6.506   1.245   3.496  0.7109 -0.3075  0.6835
  111MOL    C9742117   6.125   1.069   3.153  0.0162  0.1194 -0.2382
  111MOL    C9842118   5.994   0.995   3.120 -0.0250  0.2152  0.2225
  111MOL    C9942119   6.025   0.892   3.011  0.4247 -0.5758 -0.3328
  111MOL   C10042120   6.164   0.927   2.966 -0.2430  0.5723  0.0464
  111MOL   C10142121   6.234   0.805   2.900  0.6684 -0.5930 -0.2280
  111MOL   C10242122   6.361   0.862   2.824 -0.4168  0.3006  0.6596
  111MOL   C10342123   6.238   0.988   3.089  0.1702 -0.0192 -0.0761
  111MOL   H10442124   6.112   1.161   3.096  3.1694  3.1192  3.5950
  111MOL   H10542125   5.964   0.930   3.203  0.6078 -0.3217  0.0423
  111MOL   H10642126   5.916   1.064   3.090 -1.2932 -0.6064  1.5578
  111MOL   H10742127   6.041   0.794   3.056  0.5275 -0.7605 -0.7697
  111MOL   H10842128   5.952   0.882   2.930 -0.6430 -0.0692  0.5577
  111MOL   H10942129   6.149   0.997   2.884  1.0419  0.1010 -0.5996
  111MOL   H11042130   6.267   0.729   2.970 -2.6613  1.5333  3.8899
  111MOL   H11142131   6.166   0.768   2.824  0.4623 -3.7318  1.4013
  111MOL   H11242132   6.325   0.916   2.737  0.7401  0.0763  0.0345
  111MOL   H11342133   6.426   0.934   2.874  0.2841  1.6869 -2.1641
  111MOL   H11442134   6.279   0.913   3.156  0.2263 -1.3698 -1.5970
  111MOL   H11542135   6.322   1.048   3.055 -0.9249  0.6934 -1.5965
  111MOL   C11642136   6.446   0.753   2.772  0.1906  0.0507  0.0887
  111MOL   C11742137   6.546   0.820   2.673  0.0724 -0.7799  0.4091
  111MOL   C11842138   6.679   0.770   2.727  0.0021  0.4575 -0.4361
  111MOL   C11942139   6.661   0.652   2.817  0.0420 -0.0154  0.1320
  111MOL   C12042140   6.770   0.632   2.931  0.1968  0.1024 -0.3471
  111MOL   C12142141   6.743   0.499   3.002  0.1311  0.0330 -0.8600
  111MOL   C12242142   6.527   0.686   2.880 -0.7091 -0.5598 -0.1552
  111MOL   H12342143   6.388   0.670   2.729 -0.7970  0.9948 -0.4154
  111MOL   H12442144   6.546   0.927   2.655 -0.0913 -0.8541 -0.0570
  111MOL   H12542145   6.534   0.786   2.570  2.9517 -1.9251  0.4026
  111MOL   H12642146   6.732   0.854   2.772  0.2519 -0.7800  1.6174
  111MOL   H12742147   6.749   0.742   2.648 -0.5836  0.8278 -1.1037
  111MOL   H12842148   6.655   0.567   2.749 -0.5074 -0.3132  0.5528
  111MOL   H12942149   6.765   0.715   3.003 -0.6312 -1.1733  1.0975
  111MOL   H13042150   6.867   0.639   2.883 -0.7595  1.4706 -2.1439
  111MOL   H13142151   6.739   0.420   2.926 -2.6471  0.0465 -0.7918
  111MOL   H13242152   6.644   0.489   3.045  0.0667 -1.1386 -1.2569
  111MOL   H13342153   6.472   0.595   2.903 -4.3811  1.7396  0.5413
  111MOL   H13442154   6.554   0.751   2.963 -0.7018  0.8258 -1.2193
  111MOL   C13542155   6.841   0.462   3.115 -0.1095 -0.1887  0.1449
  111MOL   C13642156   6.812   0.548   3.231 -0.0343  0.1344  0.1736
  111MOL   C13742157   6.842   0.481   3.365  0.4670  0.0964 -0.8803
  111MOL   C13842158   6.801   0.339   3.312  0.0811 -0.4255  0.4338
  111MOL   C13942159   6.844   0.221   3.396  0.2799  0.7244  0.0597
  111MOL   C14042160   6.779   0.217   3.533  0.8272  0.5884 -0.2132
  111MOL   C14142161   6.839   0.318   3.170 -0.3575 -0.0627  0.8051
  111MOL   H14242162   6.942   0.482   3.080 -0.7783  1.9222 -0.6727
  111MOL   H14342163   6.873   0.638   3.225 -0.6135  0.5285  0.2648
  111MOL   H14442164   6.708   0.579   3.233 -0.4262 -1.1070 -0.4144
  111MOL   H14542165   6.946   0.489   3.396  0.3290 -3.2933  0.6346
  111MOL   H14642166   6.786   0.507   3.454  0.8869 -0.9018 -0.3181
  111MOL   H14742167   6.692   0.346   3.313  0.1488  0.7579  0.4187
  111MOL   H14842168   6.951   0.210   3.414 -0.1139 -2.9877  0.5598
  111MOL   H14942169   6.814   0.125   3.354  1.7766  0.0532  0.4778
  111MOL   H15042170   6.818   0.299   3.595  1.7405  0.6552 -0.8718
  111MOL   H15142171   6.670   0.224   3.526  0.7580  0.6176  0.7216
  111MOL   H15242172   6.778   0.247   3.113  0.7928 -0.2041 -0.2562
  111MOL   H15342173   6.941   0.282   3.167 -0.4142 -0.2574  1.1981
  111MOL   C15442174   6.805   0.086   3.607  0.0420 -0.0625 -0.6863
  111MOL   C15542175   6.702   7.623   3.562  0.0679  0.1286 -0.1021
  111MOL   C15642176   6.633   7.586   3.690 -0.2329  0.2305 -0.9161
  111MOL   C15742177   6.719   7.629   3.808 -0.0676 -0.4023  0.1188
  111MOL   C15842178   6.638   7.637   3.938  0.0750 -0.2617  0.4521
  111MOL   C15942179   6.729   0.041   4.061  0.4185 -1.1713 -0.1033
  111MOL   C16042180   6.779   0.114   3.752 -0.3917 -0.6007  0.2847
  111MOL   H16142181   6.905   0.049   3.587  0.3782  1.1394 -1.2345
  111MOL   H16242182   6.625   0.008   3.492  1.4597  0.1160 -1.6691
  111MOL   H16342183   6.754   7.537   3.521 -0.2282 -0.6284  1.1041
  111MOL   H16442184   6.545   0.003   3.703 -1.6491 -2.2627  2.4923
  111MOL   H16542185   6.603   7.482   3.683 -0.9170 -0.0155  4.0761
  111MOL   H16642186   6.791   7.547   3.816  0.5867 -0.0202 -1.6992
  111MOL   H16742187   6.611   7.532   3.954  0.5103 -0.5066 -0.3778
  111MOL   H16842188   6.545   0.046   3.939  0.4883  0.5038 -2.0182
  111MOL   H16942189   6.769   0.137   4.027  0.7111 -0.9890  0.7235
  111MOL   H17042190   6.664   0.053   4.148  0.7891  0.7058 -0.0521
  111MOL   H17142191   6.870   0.139   3.805 -0.4951 -0.5257  0.4288
  111MOL   H17242192   6.712   0.199   3.770  2.7736  1.7570  1.4486
  111MOL   C17342193   6.847   7.602   4.102  0.4266 -0.1739  0.4050
  111MOL   C17442194   6.948   0.024   4.196  0.0641  0.7457  0.3635
  111MOL   C17542195   7.024   7.559   4.268 -0.4013  0.3096  0.0924
  111MOL   C17642196   6.941   7.426   4.236 -0.2204  1.0779  0.4749
  111MOL   C17742197   6.917   7.321   4.340 -0.1039  0.0453 -0.3589
  111MOL   C17842198   7.040   7.273   4.410 -0.3683  0.0263 -0.1482
  111MOL   C17942199   6.807   7.476   4.182 -0.5800 -0.0462  0.0336
  111MOL   H18042200   6.901   7.580   4.010 -2.0576  0.6291 -1.2899
  111MOL   H18142201   6.909   0.090   4.274 -1.1472  1.4145 -0.7800
  111MOL   H18242202   7.016   0.063   4.120  1.6260 -3.1783 -0.3906
  111MOL   H18342203   7.126   7.558   4.229 -0.1860 -0.4663  0.6435
  111MOL   H18442204   7.031   7.584   4.374 -0.3375  2.3816 -0.3809
  111MOL   H18542205   6.994   7.388   4.148 -2.6498  4.2896 -2.4832
  111MOL   H18642206   6.876   7.241   4.278 -1.5045 -1.7086  2.6750
  111MOL   H18742207   6.836   7.336   4.412 -0.0075  0.0742 -0.2588
  111MOL   H18842208   7.065   7.348   4.485 -0.9654  1.2789 -1.1984
  111MOL   H18942209   7.126   7.271   4.342 -0.4467  1.8062 -0.3263
  111MOL   H19042210   6.743   7.502   4.266  2.0925 -1.8614  2.7520
  111MOL   H19142211   6.765   7.415   4.102 -0.8280 -1.3864  1.1666
  111MOL   C19242212   7.035   7.145   4.482  0.3637 -0.3073 -0.5522
  111MOL   C19342213   6.929   7.133   4.594 -0.0946  0.0088 -0.1917
  111MOL   C19442214   6.976   7.012   4.672 -0.0306  0.4272  0.2360
  111MOL   C19542215   7.135   7.028   4.667 -0.2380  0.3729  0.2938
  111MOL   C19642216   7.217   6.897   4.687 -0.5985 -0.3582  0.1918
  111MOL   C19742217   7.189   6.836   4.825 -0.0823  0.2811 -0.8899
  111MOL   C19842218   7.170   7.104   4.543  0.1541  0.1410 -0.0993
  111MOL   H19942219   7.019   7.059   4.416 -1.2660 -2.5700  2.6296
  111MOL   H20042220   6.920   7.223   4.656 -0.6278  0.4331 -0.8811
  111MOL   H20142221   6.828   7.119   4.556 -0.2261 -2.9484  1.0418
  111MOL   H20242222   6.954   6.917   4.623 -0.1852  0.3527  0.4522
  111MOL   H20342223   6.934   7.003   4.772 -1.5069 -0.9799 -0.4988
  111MOL   H20442224   7.145   7.087   4.758 -1.5442  1.7838 -0.4254
  111MOL   H20542225   7.323   6.923   4.680 -0.5200  0.1947  2.6012
  111MOL   H20642226   7.203   6.824   4.608  0.8770 -0.7526  0.2854
  111MOL   H20742227   7.083   6.815   4.843  0.1919  0.6088  1.2002
  111MOL   H20842228   7.203   6.904   4.909 -2.0469 -0.6423  0.2241
  111MOL   H20942229   7.235   7.042   4.481  0.9073  0.6635  0.1510
  111MOL   H21042230   7.236   7.190   4.554  1.5418 -1.0726  1.4020
  111MOL   C21142231   7.257   6.707   4.860 -0.6866 -0.6051 -0.9467
  111MOL   C21242232   7.411   6.714   4.865 -0.8076 -0.4212 -0.1749
  111MOL   C21342233   7.459   6.641   4.741 -0.2157 -0.4728  0.8767
  111MOL   C21442234   7.365   6.524   4.734  0.6286  0.0279 -0.1096
  111MOL   C21542235   7.357   6.451   4.596 -0.5565  0.0034  0.1389
  111MOL   C21642236   7.503   6.394   4.566  0.0495 -0.6564 -0.5099
  111MOL   C21742237   7.230   6.593   4.766 -0.1024 -0.2487 -0.1671
  111MOL   H21842238   7.215   6.685   4.957 -0.2509  0.0114 -0.6110
  111MOL   H21942239   7.440   6.819   4.856  0.4934 -0.6588  1.0598
  111MOL   H22042240   7.463   6.670   4.950 -0.6005  0.9631  0.4219
  111MOL   H22142241   7.442   6.708   4.656 -0.6365 -0.0269  1.3079
  111MOL   H22242242   7.565   6.619   4.735 -0.1540 -0.8591  3.2272
  111MOL   H22342243   7.380   6.446   4.809  1.0115  1.7772  1.6800
  111MOL   H22442244   7.322   6.519   4.518 -1.3997  1.5961  1.8692
  111MOL   H22542245   7.282   6.372   4.600  1.1316 -1.8883 -3.3100
  111MOL   H22642246   7.570   6.474   4.535 -0.9392 -0.3966 -2.0145
  111MOL   H22742247   7.554   6.342   4.648 -1.2551  0.5910  1.1260
  111MOL   H22842248   7.164   6.514   4.804  0.7701 -0.3562  1.1479
  111MOL   H22942249   7.176   6.624   4.677  1.0879 -1.2469 -1.2541
  111MOL   C23042250   7.486   6.299   4.446 -0.2124  0.1864 -0.4585
  111MOL   C23142251   7.396   6.175   4.478 -0.3317  0.1969  0.1523
  111MOL   C23242252   7.446   6.074   4.377  0.1055  0.1713 -0.1049
  111MOL   C23342253   7.588   6.090   4.361 -0.3282  0.3485  0.1770
  111MOL   C23442254   0.003   6.026   4.233  0.3311  0.5477  0.4746
  111MOL   C23542255   0.151   6.036   4.221 -0.9996 -0.1856 -0.7173
  111MOL   C23642256   7.620   6.237   4.391  0.3970  0.1787  0.5592
  111MOL   H23742257   7.452   6.349   4.355  0.9500 -0.6082 -1.3553
  111MOL   H23842258   7.411   6.133   4.577  0.2310  4.1857  1.8628
  111MOL   H23942259   7.290   6.193   4.458 -0.3580  0.2209  0.3123
  111MOL   H24042260   7.392   6.085   4.283  0.6703  2.2955 -0.2044
  111MOL   H24142261   7.433   5.971   4.410 -0.1219 -0.4244 -1.9825
  111MOL   H24242262   7.628   6.037   4.448 -0.9345 -1.5487 -0.6821
  111MOL   H24342263   7.613   6.087   4.151  1.3330 -1.2760 -1.3936
  111MOL   H24442264   7.616   5.926   4.206 -0.3097  0.3709  1.8771
  111MOL   H24542265   0.170   6.041   4.114  1.1312  1.6305 -0.2923
  111MOL   H24642266   0.182   6.135   4.253 -1.1236 -0.6260  0.8210
  111MOL   H24742267   0.018   6.288   4.306 -1.5766 -3.1855 -2.6196
  111MOL   H24842268   0.058   6.245   4.458  2.0420  0.3579 -1.5174
  111MOL   C24942269   0.236   5.925   4.291  0.2918 -0.1893  0.9024
  111MOL   C25042270   0.255   5.799   4.202  0.7137  0.1793 -0.6012
  111MOL   C25142271   0.366   5.725   4.273  0.0890 -0.5419  1.2756
  111MOL   C25242272   0.465   5.843   4.306  0.8245  0.0908 -0.0624
  111MOL   C25342273   0.574   5.809   4.413 -0.0530  0.7345 -0.4329
  111MOL   C25442274   0.678   5.697   4.367 -0.3312  0.2526  0.1050
  111MOL   C25542275   0.373   5.963   4.327  0.9400 -0.8012 -0.0041
  111MOL   H25642276   0.174   5.899   4.376 -2.2701 -2.2705 -1.5335
  111MOL   H25742277   0.170   5.732   4.187  1.6662 -0.5693 -2.9394
  111MOL   H25842278   0.291   5.826   4.102 -1.0460  1.7708 -0.8395
  111MOL   H25942279   0.408   5.655   4.201  0.8839  0.9117  0.2784
  111MOL   H26042280   0.335   5.680   4.367 -0.2379 -0.0776  1.3927
  111MOL   H26142281   0.514   5.865   4.211  1.4854 -0.9399  0.0173
  111MOL   H26242282   0.530   5.775   4.506 -0.3582  1.6701 -0.2381
  111MOL   H26342283   0.629   5.902   4.428 -0.2491  1.0686 -1.6890
  111MOL   H26442284   0.725   5.735   4.277 -1.8126  1.2027 -0.2921
  111MOL   H26542285   0.622   5.607   4.342 -0.4735  0.5056 -0.4998
  111MOL   H26642286   0.411   6.041   4.261 -1.0390  1.9267  1.9705
  111MOL   H26742287   0.376   6.008   4.426 -1.1734 -0.9336  0.1491
  111MOL   C26842288   0.795   5.660   4.463 -0.5198 -0.6416 -0.0023
  111MOL   C26942289   0.878   5.786   4.478  0.1482  0.0402 -0.8333
  111MOL   C27042290   1.019   5.729   4.505  0.5726 -0.3292  0.1787
  111MOL   C27142291   1.004   5.577   4.518  0.3631  0.5175  1.1941
  111MOL   C27242292   1.135   5.497   4.491 -0.0516 -0.2733  0.3825
  111MOL   C27342293   1.253   5.548   4.574 -0.1858 -0.2679 -0.4308
  111MOL   C27442294   0.887   5.546   4.431 -1.1330  0.2513 -0.7854
  111MOL   H27542295   0.766   5.647   4.567 -1.9108  1.3910 -0.0905
  111MOL   H27642296   0.867   5.848   4.389  1.1704 -0.6369 -1.4467
  111MOL   H27742297   0.847   5.846   4.564  3.0069 -0.0174  0.3136
  111MOL   H27842298   1.087   5.756   4.423 -0.5356  0.9650 -0.3276
  111MOL   H27942299   1.070   5.768   4.593  0.2764  1.9067 -0.6011
  111MOL   H28042300   0.970   5.558   4.619  0.3414  1.1452  1.3110
  111MOL   H28142301   1.165   5.497   4.387 -1.7037 -0.3055 -0.1198
  111MOL   H28242302   1.117   5.392   4.518 -0.0509 -0.5787 -0.7932
  111MOL   H28342303   1.255   5.657   4.566 -2.1439 -0.1122  0.8762
  111MOL   H28442304   1.247   5.526   4.680  2.3725 -0.7649 -0.3612
  111MOL   H28542305   0.918   5.550   4.327 -0.8484  0.4327 -0.6941
  111MOL   H28642306   0.834   5.456   4.461  0.5594 -0.4878  0.0439
  111MOL   C28742307   1.393   5.504   4.532 -0.1651 -0.0995  0.0604
  111MOL   C28842308   1.493   5.608   4.575 -0.8678 -0.2435  0.0968
  111MOL   C28942309   1.633   5.541   4.567  0.4818  0.6473 -0.5972
  111MOL   C29042310   1.602   5.393   4.603 -0.5405 -0.0840  0.9708
  111MOL   C29142311   1.678   5.342   4.728 -0.4263  0.3678  0.4807
  111MOL   C29242312   1.823   5.313   4.693  0.4640 -0.3765  0.0361
  111MOL   C29342313   1.449   5.383   4.606 -0.1925 -0.0225 -0.2441
  111MOL   H29442314   1.397   5.495   4.423  1.1788  0.6467  0.0353
  111MOL   H29542315   1.495   5.685   4.498  1.0055 -3.3500 -3.0748
  111MOL   H29642316   1.459   5.656   4.667 -2.4790 -2.1730  0.5513
  111MOL   H29742317   1.710   5.580   4.633 -0.8621  1.1744  0.6985
  111MOL   H29842318   1.679   5.551   4.469  0.8541 -1.0194 -0.6077
  111MOL   H29942319   1.634   5.324   4.525  1.8026  1.0934  0.8701
  111MOL   H30042320   1.643   5.244   4.762  1.8582 -1.5668 -2.5081
  111MOL   H30142321   1.668   5.417   4.806 -0.6269 -0.0110  0.8225
  111MOL   H30242322   1.862   5.383   4.619  1.5955 -1.4660 -0.4175
  111MOL   H30342323   1.839   5.216   4.646  2.2865  1.6149 -3.6473
  111MOL   H30442324   1.421   5.374   4.711  2.4105 -0.6461  0.4380
  111MOL   H30542325   1.413   5.289   4.565 -1.4940 -0.2533  1.3602
  111MOL   C30642326   1.919   5.300   4.812 -0.1745  0.3852  0.4548
  111MOL   C30742327   2.063   5.262   4.770  0.5616  0.3836  0.4544
  111MOL   C30842328   2.149   5.324   4.880  0.2268 -0.3024  0.4089
  111MOL   C30942329   2.064   5.410   4.977 -0.2475  0.1046  1.0547
  111MOL   C31042330   2.133   5.547   5.002  0.1281 -0.0291 -0.0122
  111MOL   C31142331   2.056   5.633   5.100  0.6732  0.3368  0.5177
  111MOL   C31242332   1.930   5.429   4.896 -0.6290 -0.5626  0.1570
  111MOL   H31342333   1.878   5.221   4.874 -1.5027  1.2885  0.7529
  111MOL   H31442334   2.075   5.154   4.771 -0.0202  0.3152  2.2450
  111MOL   H31542335   2.094   5.305   4.674  0.8128  0.7685  0.7083
  111MOL   H31642336   2.209   5.246   4.925  0.9452 -0.5832 -1.0136
  111MOL   H31742337   2.224   5.392   4.839 -0.5857 -0.0010 -0.6089
  111MOL   H31842338   2.036   5.360   5.070 -0.1924  0.4215  1.2429
  111MOL   H31942339   2.233   5.545   5.046 -0.4843 -0.4435  1.4091
  111MOL   H32042340   2.143   5.595   4.905 -1.6988  1.5500  0.5432
  111MOL   H32142341   2.047   5.574   5.191 -0.3066  0.7599  0.6951
  111MOL   H32242342   1.958   5.650   5.056 -0.1598 -1.6229  1.5633
  111MOL   H32342343   1.933   5.514   4.829  2.4323 -1.3903 -0.8224
  111MOL   H32442344   1.847   5.430   4.967 -1.5014 -3.0574 -0.7417
  111MOL   C32542345   2.112   5.770   5.146  0.0881  0.3590 -0.1278
  111MOL   C32642346   2.131   5.878   5.045 -0.2815 -0.5432  0.3865
  111MOL   C32742347   2.133   6.006   5.134  0.3002 -0.0931 -0.6781
  111MOL   C32842348   2.035   5.979   5.243  0.6699 -0.2856  0.0224
  111MOL   C32942349   2.078   6.045   5.377 -0.0105 -0.1536 -0.0256
  111MOL   C33042350   1.957   6.064   5.476 -0.3012  0.4074 -0.4183
  111MOL   C33142351   2.017   5.828   5.256  0.2656 -0.5162 -0.0207
  111MOL   H33242352   2.209   5.749   5.192 -0.2506 -0.5110  0.1871
  111MOL   H33342353   2.048   5.875   4.974  0.2126  1.6425 -0.3103
  111MOL   H33442354   2.230   5.875   5.000 -1.1697 -0.3891 -1.6368
  111MOL   H33542355   2.228   6.046   5.169  0.1869 -0.1069 -0.3505
  111MOL   H33642356   2.094   6.085   5.070 -0.5208 -0.0108 -0.0910
  111MOL   H33742357   1.944   6.028   5.210 -1.1401 -2.8940  0.9420
  111MOL   H33842358   2.162   5.991   5.420  0.8266  1.3397  0.2766
  111MOL   H33942359   2.116   6.147   5.365  2.8555 -0.7303  3.2323
  111MOL   H34042360   1.862   6.087   5.428 -0.7792 -0.1496  0.2407
  111MOL   H34142361   1.933   5.982   5.544 -0.7917  0.4851 -0.4946
  111MOL   H34242362   1.914   5.798   5.237  0.4439 -1.7303  0.8343
  111MOL   H34342363   2.054   5.780   5.347  0.6531  0.0456  0.1200
  111MOL   C34442364   1.971   6.198   5.548  0.3418 -0.6914 -0.3401
  111MOL   C34542365   2.104   6.208   5.633  0.1492 -0.0552 -1.0408
  111MOL   C34642366   2.063   6.209   5.779 -0.4986  0.5198  0.2236
  111MOL   C34742367   1.917   6.188   5.786  0.3208 -0.6331  0.0709
  111MOL   C34842368   1.857   6.264   5.902 -0.2834  0.4910  0.0476
  111MOL   C34942369   1.906   6.213   6.043  0.0654  0.1136 -1.1768
  111MOL   C35042370   1.868   6.234   5.650  0.7750  0.5417  0.7273
  111MOL   H35142371   1.975   6.276   5.472  2.2244 -0.1477  0.2914
  111MOL   H35242372   2.138   6.310   5.617  0.9578 -0.3737 -1.3713
  111MOL   H35342373   2.187   6.140   5.612  0.5071  0.1807 -0.4001
  111MOL   H35442374   2.122   6.142   5.841 -0.9423 -0.3468 -0.2750
  111MOL   H35542375   2.089   6.305   5.824  1.6461  1.2041 -2.3528
  111MOL   H35642376   1.899   6.081   5.796 -0.6827 -0.7148 -2.2475
  111MOL   H35742377   1.890   6.367   5.890 -0.6609  1.0236  3.2200
  111MOL   H35842378   1.749   6.274   5.891 -0.1553  0.7247 -1.0333
  111MOL   H35942379   1.885   6.288   6.119  2.7195  2.1486 -2.3682
  111MOL   H36042380   2.014   6.201   6.036  0.0539 -0.4795 -0.3661
  111MOL   H36142381   1.770   6.188   5.632  0.5236  1.5572 -0.5804
  111MOL   H36242382   1.844   6.340   5.656  2.7438  0.9244  2.2839
  111MOL   C36342383   1.857   6.075   6.082 -0.0541 -0.5959  0.6465
  111MOL   C36442384   1.699   6.053   6.073  0.1948 -0.2950 -0.0640
  111MOL   C36542385   1.651   5.965   6.184 -0.9545 -0.3763 -0.0348
  111MOL   C36642386   1.777   5.915   6.249 -0.0732  0.2080 -1.5226
  111MOL   C36742387   1.747   5.897   6.397 -0.1144 -0.3999 -0.5936
  111MOL   C36842388   1.644   5.793   6.430  0.4086  0.4472  0.6873
  111MOL   C36942389   1.878   6.022   6.227 -0.1218  0.2038  0.5371
  111MOL   H37042390   1.910   5.998   6.026 -1.1210  0.3348 -1.7052
  111MOL   H37142391   1.649   6.149   6.073  2.9241  1.1818 -1.6506
  111MOL   H37242392   1.675   6.015   5.974 -1.1748  1.8385 -0.5623
  111MOL   H37342393   1.591   6.037   6.241 -1.4551  0.3670 -1.4816
  111MOL   H37442394   1.597   5.874   6.157  0.9236 -0.6766 -2.9198
  111MOL   H37542395   1.813   5.819   6.211 -3.3170 -2.0392  0.8269
  111MOL   H37642396   1.836   5.865   6.452 -0.8865  1.2263  1.7042
  111MOL   H37742397   1.720   5.994   6.440 -1.4410 -1.5785  1.2987
  111MOL   H37842398   1.553   5.798   6.371 -0.0882  1.9400  1.5543
  111MOL   H37942399   1.599   5.805   6.529  0.6929 -1.1429  1.0291
  111MOL   H38042400   1.866   6.103   6.299  0.5998 -0.3965  1.3566
  111MOL   H38142401   1.980   5.991   6.254 -0.1952 -0.9808 -0.4940
  111MOL   H38242402   1.681   5.693   6.408 -1.3532 -0.2652  0.8572
  112MOL     C142403   3.941   6.148   0.159 -0.8158  0.0374  0.0374
  112MOL     C242404   3.962   6.298   0.121  0.3099  0.7441  0.4803
  112MOL     C342405   3.822   6.361   0.107 -0.0862  0.2004 -0.0936
  112MOL     C442406   3.719   6.262   0.167 -0.1523 -0.7282  0.4975
  112MOL     C542407   3.634   6.186   0.068  0.2431  0.3512  0.1987
  112MOL     C642408   3.542   6.277   7.627  0.2160 -0.2498  0.2626
  112MOL     C742409   3.809   6.160   0.238  0.2345  0.4219 -1.0036
  112MOL     H842410   3.910   6.090   0.072 -2.2198  1.4188 -0.3984
  112MOL     H942411   4.013   6.292   0.025  1.2169 -0.7432  1.0362
  112MOL    H1042412   4.012   6.354   0.201  2.5024 -0.8635  0.2764
  112MOL    H1142413   3.820   6.449   0.171 -2.3521  0.2529 -0.1923
  112MOL    H1242414   3.804   6.392   0.004  2.1032  1.5330 -0.1107
  112MOL    H1342415   3.659   6.318   0.239 -1.1390  2.2818 -2.5665
  112MOL    H1442416   3.693   6.129   7.643 -0.7702 -0.5061  0.0391
  112MOL    H1542417   3.574   6.111   0.119 -0.2451  0.6578  0.0840
  112MOL    H1642418   3.480   6.345   0.037 -0.0956  0.8046 -1.2812
  112MOL    H1742419   3.611   6.326   7.558  0.9112 -1.1735  0.2840
  112MOL    H1842420   3.838   6.197   0.336  0.8906  0.4633 -1.2052
  112MOL    H1942421   3.769   6.060   0.251 -0.9026  0.7410 -1.9852
  112MOL    H2042422   4.025   6.099   0.208 -0.0962  2.0046  0.8474
  112MOL    C2142423   3.448   6.196   7.540  0.4442  0.4200 -0.2870
  112MOL    C2242424   3.333   6.134   7.617  0.7398  0.6617  0.1871
  112MOL    C2342425   3.204   6.138   7.536 -0.2683 -0.3936  0.3386
  112MOL    C2442426   3.237   6.216   7.410 -0.4827 -0.4329  0.6313
  112MOL    C2542427   3.123   6.309   7.370 -0.2350 -0.1335 -1.0298
  112MOL    C2642428   3.152   6.366   7.235 -0.9592  0.2905  0.4144
  112MOL    C2742429   3.372   6.272   7.432  0.2288 -0.0158 -0.0931
  112MOL    H2842430   3.502   6.117   7.488  0.9197  0.0012  0.8139
  112MOL    H2942431   3.354   6.035   0.011 -0.1228  1.4790  2.6241
  112MOL    H3042432   3.317   6.192   0.060  0.7374  1.0467 -0.0614
  112MOL    H3142433   3.164   6.039   7.513 -0.8714 -0.0348 -0.1683
  112MOL    H3242434   3.122   6.192   7.582  0.1519  1.3584 -0.9366
  112MOL    H3342435   3.263   6.149   7.328 -2.2558 -0.2958 -0.0518
  112MOL    H3442436   3.103   6.385   7.446 -0.5944  0.0083 -1.2651
  112MOL    H3542437   3.037   6.247   7.348 -1.2688  1.0092 -0.2824
  112MOL    H3642438   3.165   6.274   7.179  0.5205 -0.0131  1.2506
  112MOL    H3742439   3.231   6.440   7.228  0.9535 -1.8382 -1.0499
  112MOL    H3842440   3.426   6.299   7.342 -0.2910  2.1313  0.2061
  112MOL    H3942441   3.355   6.369   7.479 -1.1271 -0.1871 -0.2051
  112MOL    C4042442   3.027   6.448   7.189  0.1676  0.8110 -0.2080
  112MOL    C4142443   2.975   6.570   7.276 -0.1575  1.0121 -0.5646
  112MOL    C4242444   2.898   6.649   7.175 -0.5553  0.1424 -0.3923
  112MOL    C4342445   2.951   6.618   7.033 -0.2583  0.2637 -0.0425
  112MOL    C4442446   2.834   6.571   6.945 -0.2660 -0.0567 -0.0165
  112MOL    C4542447   2.880   6.548   6.796  0.1277  0.2060  0.0675
  112MOL    C4642448   3.048   6.508   7.054 -0.0823 -0.2846 -0.2871
  112MOL    H4742449   2.937   6.387   7.177  0.8646 -0.9523  3.0513
  112MOL    H4842450   3.054   6.634   7.317  1.3005 -0.4820 -1.0109
  112MOL    H4942451   2.920   6.537   7.364  1.5748  0.5751  0.3748
  112MOL    H5042452   2.793   6.633   7.198 -0.5049 -0.8564 -0.8152
  112MOL    H5142453   2.908   6.752   7.210 -2.2161  0.7519 -1.6685
  112MOL    H5242454   3.010   6.697   6.987  1.0330 -1.2032 -0.9383
  112MOL    H5342455   2.791   6.480   6.985  0.9088 -1.1887 -1.2659
  112MOL    H5442456   2.748   6.638   6.948 -0.0854  0.1415  0.7758
  112MOL    H5542457   2.969   6.488   6.778 -0.9170 -1.0525 -1.0516
  112MOL    H5642458   2.915   6.646   6.763 -0.2335 -0.0017 -0.9423
  112MOL    H5742459   3.030   6.422   6.990 -1.8792  0.1203 -0.3528
  112MOL    H5842460   3.149   6.547   7.043 -0.6518  0.7165 -2.0791
  112MOL    C5942461   2.773   6.492   6.698 -0.3896  0.0614  0.8407
  112MOL    C6042462   2.674   6.592   6.644 -0.1796  0.1624  0.4489
  112MOL    C6142463   2.617   6.536   6.519 -0.4401  0.2678  0.6278
  112MOL    C6242464   2.745   6.488   6.452  0.1367  0.9528  0.3929
  112MOL    C6342465   2.719   6.385   6.345  0.0837 -0.9078  0.2943
  112MOL    C6442466   2.854   6.336   6.282 -0.0790  1.0796 -0.6356
  112MOL    C6542467   2.834   6.438   6.569  0.4473 -0.1118  0.4294
  112MOL    H6642468   2.712   6.414   6.743 -1.5292  0.9442  0.8629
  112MOL    H6742469   2.593   6.619   6.712  0.2147 -2.4415  2.0510
  112MOL    H6842470   2.716   6.691   6.625 -2.0024  1.4882  3.0469
  112MOL    H6942471   2.544   6.456   6.531 -1.2019  0.6685 -1.1127
  112MOL    H7042472   2.569   6.614   6.460  2.3104  1.2540 -0.3578
  112MOL    H7142473   2.794   6.580   6.419  2.9383  0.2325  2.3471
  112MOL    H7242474   2.644   6.415   6.271 -0.0273  0.6923  1.0275
  112MOL    H7342475   2.662   6.301   6.383 -1.0267 -0.1137  0.4152
  112MOL    H7442476   2.896   6.414   6.219  0.3354  1.6061  0.2953
  112MOL    H7542477   2.929   6.319   6.359 -0.1225  1.0419 -0.6014
  112MOL    H7642478   2.847   6.330   6.575  1.6681  0.0739  1.2788
  112MOL    H7742479   2.933   6.481   6.551  0.1200  0.7834  0.7249
  112MOL    C7842480   2.851   6.198   6.209  0.4364  0.1947 -1.0314
  112MOL    C7942481   2.981   6.150   6.149  0.3166 -0.1475  0.9280
  112MOL    C8042482   3.022   6.022   6.235  0.1412  0.5054  0.1058
  112MOL    C8142483   2.884   5.962   6.271 -0.3417  0.0697 -0.1073
  112MOL    C8242484   2.876   5.853   6.380  0.0881  0.2174  0.4853
  112MOL    C8342485   2.969   5.742   6.346 -0.1212  0.1531  0.0277
  112MOL    C8442486   2.797   6.080   6.291  0.0351  0.4632 -0.3970
  112MOL    H8542487   2.783   6.198   6.123  0.0547 -0.9907 -0.7435
  112MOL    H8642488   2.963   6.123   6.046  1.2286 -1.8593  1.1997
  112MOL    H8742489   3.056   6.229   6.157 -0.6231  0.7936  0.6068
  112MOL    H8842490   3.082   5.952   6.178  0.8540 -0.6959  2.3006
  112MOL    H8942491   3.069   6.045   6.331  0.9919 -4.4032  0.9626
  112MOL    H9042492   2.852   5.909   6.181  0.2418  0.6202 -0.6442
  112MOL    H9142493   2.775   5.812   6.384  0.0054  0.3028 -0.5041
  112MOL    H9242494   2.893   5.903   6.475 -2.3893 -0.6234  1.4015
  112MOL    H9342495   3.074   5.773   6.351 -0.1772  0.6034 -1.4970
  112MOL    H9442496   2.938   5.704   6.249  0.3304 -1.2192  0.4079
  112MOL    H9542497   2.787   6.100   6.398 -0.8019 -2.4366  0.1176
  112MOL    H9642498   2.699   6.043   6.259  0.4031 -0.8238 -0.0721
  112MOL    C9742499   2.971   5.624   6.443  0.0145 -0.0866  0.2066
  112MOL    C9842500   3.015   5.675   6.576  0.2628  0.0318  0.6421
  112MOL    C9942501   3.088   5.560   6.652 -0.1212  0.5066 -0.6881
  112MOL   C10042502   3.117   5.450   6.548  0.8134 -0.3702  0.1306
  112MOL   C10142503   3.261   5.401   6.547  0.7454  0.4618 -0.2289
  112MOL   C10242504   3.283   5.299   6.438 -0.2882 -0.1553  0.1450
  112MOL   C10342505   3.066   5.505   6.414  0.0740 -0.0884  0.1139
  112MOL   H10442506   2.870   5.585   6.443  0.7881 -2.2492 -2.7207
  112MOL   H10542507   3.099   5.743   6.556  1.2492 -1.0202  1.1513
  112MOL   H10642508   2.930   5.716   6.630 -0.7045 -1.3043  0.1594
  112MOL   H10742509   3.173   5.587   6.715 -0.9665  0.9419  0.2833
  112MOL   H10842510   3.013   5.530   6.725 -0.9107  0.3620 -1.5534
  112MOL   H10942511   3.058   5.366   6.582  1.2734 -1.6947 -2.2393
  112MOL   H11042512   3.331   5.484   6.542  0.2835  0.8550 -0.1143
  112MOL   H11142513   3.285   5.350   6.640 -0.5623  0.7020  0.2424
  112MOL   H11242514   3.217   5.212   6.439 -3.7568  2.4099  1.4157
  112MOL   H11342515   3.276   5.345   6.339 -0.8179  0.2426  0.3688
  112MOL   H11442516   3.144   5.540   6.347 -0.0526  0.9462  0.4939
  112MOL   H11542517   3.019   5.430   6.350 -2.8149 -0.0116  2.0400
  112MOL   C11642518   3.425   5.242   6.428 -0.1116 -0.0334  0.7640
  112MOL   C11742519   3.442   5.150   6.298  0.0411  0.0338 -0.4396
  112MOL   C11842520   3.574   5.201   6.232 -0.4011  0.1187 -0.1655
  112MOL   C11942521   3.646   5.277   6.342 -0.3732  0.4766  0.1020
  112MOL   C12042522   3.758   5.368   6.303  0.0185  0.3824  0.1117
  112MOL   C12142523   3.831   5.439   6.418 -0.5076 -0.2133 -0.0583
  112MOL   C12242524   3.535   5.340   6.423 -0.2934  0.8041 -0.8400
  112MOL   H12342525   3.443   5.181   6.516 -1.6922  1.4443  2.1340
  112MOL   H12442526   3.358   5.142   6.229 -1.0280  3.0012  0.4581
  112MOL   H12542527   3.449   5.046   6.331  0.4511  0.6374  1.4400
  112MOL   H12642528   3.545   5.272   6.154 -3.3094 -1.5994 -0.6887
  112MOL   H12742529   3.641   5.130   6.184  1.2677  2.0584 -0.8132
  112MOL   H12842530   3.704   5.199   6.393 -0.8739  1.0802  1.6294
  112MOL   H12942531   3.718   5.442   6.234  1.4126  1.2489  0.2159
  112MOL   H13042532   3.828   5.306   6.246  2.0023  1.0285  1.7610
  112MOL   H13142533   3.855   5.355   6.483 -0.2115 -0.6942 -0.7884
  112MOL   H13242534   3.762   5.502   6.473 -2.8480 -0.7560 -2.3159
  112MOL   H13342535   3.572   5.379   6.518  2.0055 -1.1303 -0.8989
  112MOL   H13442536   3.498   5.432   6.378  2.1384  2.2482  0.0436
  112MOL   C13542537   3.952   5.532   6.378 -0.1680 -0.7566  0.4763
  112MOL   C13642538   4.063   5.460   6.299 -0.5441  0.2933  0.4953
  112MOL   C13742539   4.036   5.498   6.148  0.2061 -0.4957  0.1609
  112MOL   C13842540   3.929   5.611   6.144 -0.2766  0.3605  0.2040
  112MOL   C13942541   3.985   5.725   6.049  1.1101 -0.7907 -0.3368
  112MOL   C14042542   3.905   5.864   6.051 -0.6504  0.2855 -0.1838
  112MOL   C14142543   3.914   5.655   6.292 -0.2891 -0.2385  0.1197
  112MOL   H14242544   3.987   5.557   6.478 -0.0613 -0.2782  0.3216
  112MOL   H14342545   4.156   5.510   6.328 -0.8699  2.3950 -1.9372
  112MOL   H14442546   4.072   5.352   6.305 -2.6519 -0.0731 -2.2523
  112MOL   H14542547   4.124   5.535   6.095  0.9700 -1.5309  0.6824
  112MOL   H14642548   4.005   5.409   6.093 -0.4099 -0.9611  1.2437
  112MOL   H14742549   3.841   5.560   6.105 -1.6268  0.7324  2.6719
  112MOL   H14842550   3.981   5.673   5.953 -0.5879  1.1166 -1.3336
  112MOL   H14942551   4.089   5.751   6.068  0.9689 -0.5268  0.0965
  112MOL   H15042552   3.799   5.845   6.028 -1.2513 -0.8202  3.2110
  112MOL   H15142553   3.917   5.913   6.147  0.1908 -1.1604  0.4723
  112MOL   H15242554   3.829   5.714   6.324  0.9617  2.0813 -0.7508
  112MOL   H15342555   3.997   5.722   6.318  1.1903 -2.3912  1.1354
  112MOL   C15442556   3.951   5.961   5.937  0.0144  0.3821  1.2895
  112MOL   C15542557   3.877   6.092   5.925 -0.5807 -0.0728  0.2611
  112MOL   C15642558   3.844   6.106   5.774 -0.4526 -0.0945 -0.0035
  112MOL   C15742559   3.932   6.011   5.696 -0.5419 -0.6485  0.1200
  112MOL   C15842560   3.893   5.973   5.553 -0.0280 -0.3263 -1.1165
  112MOL   C15942561   3.994   5.871   5.489 -0.1390  0.3296  0.9756
  112MOL   C16042562   3.939   5.897   5.792 -0.0201  0.0145  0.5224
  112MOL   H16142563   4.056   5.979   5.957 -0.3113  3.4353  0.5247
  112MOL   H16242564   3.774   6.084   5.961  0.1499  0.6720  2.6516
  112MOL   H16342565   3.911   6.185   5.971 -0.2176  0.8258 -1.7658
  112MOL   H16442566   3.742   6.078   5.747  0.1195 -2.6062  0.3801
  112MOL   H16542567   3.873   6.203   5.731 -0.5694 -0.4572 -0.9069
  112MOL   H16642568   4.028   6.062   5.690 -0.8232 -0.0155  0.9707
  112MOL   H16742569   3.903   6.059   5.487 -0.7936  0.1145 -0.6812
  112MOL   H16842570   3.791   5.934   5.546 -0.8064  1.6656 -1.3978
  112MOL   H16942571   4.097   5.906   5.498  0.5266 -1.0372 -1.0310
  112MOL   H17042572   4.001   5.780   5.549 -1.4415  0.6352  1.6133
  112MOL   H17142573   4.027   5.832   5.788  0.3097  0.3757  1.6830
  112MOL   H17242574   3.848   5.838   5.793  0.5551 -0.8978  2.1029
  112MOL   C17342575   3.945   5.833   5.346 -0.8817 -0.4255 -0.2996
  112MOL   C17442576   3.961   5.942   5.243 -0.3368 -0.1128 -0.5311
  112MOL   C17542577   4.015   5.866   5.118  0.7877  0.7390  0.1484
  112MOL   C17642578   3.983   5.719   5.145 -0.5675  0.5549  0.7904
  112MOL   C17742579   4.077   5.631   5.065 -0.1513 -0.1212 -0.0128
  112MOL   C17842580   4.056   5.477   5.076  0.0013 -0.6530  0.0951
  112MOL   C17942581   4.001   5.705   5.290 -0.2536 -0.5062 -0.4108
  112MOL   H18042582   3.838   5.816   5.359 -0.7475 -0.8352  0.2680
  112MOL   H18142583   4.044   6.008   5.269  1.1696 -2.1169 -0.0939
  112MOL   H18242584   3.867   5.990   5.216  0.6408  0.6562 -2.7247
  112MOL   H18342585   3.968   5.906   5.029  0.4281  0.7256  0.3323
  112MOL   H18442586   4.123   5.884   5.110  0.7697  0.9250  0.3311
  112MOL   H18542587   3.877   5.714   5.119 -0.6356  0.6649  1.0458
  112MOL   H18642588   4.180   5.656   5.093  0.1661 -2.1552  0.6902
  112MOL   H18742589   4.068   5.663   4.961  1.8276 -1.1343 -0.5289
  112MOL   H18842590   4.065   5.450   5.181 -2.7835 -1.0054  0.2645
  112MOL   H18942591   4.141   5.426   5.029 -1.4023 -1.4852 -1.5873
  112MOL   H19042592   4.103   5.686   5.324  0.7827  3.6143 -0.9919
  112MOL   H19142593   3.940   5.622   5.325 -0.0059 -0.6702 -0.3658
  112MOL   C19242594   3.921   5.429   5.013  0.1851 -0.6058  0.1648
  112MOL   C19342595   3.906   5.277   5.051  0.3800  0.3229 -0.0586
  112MOL   C19442596   3.861   5.211   4.914 -0.0994 -0.2169 -0.0595
  112MOL   C19542597   3.929   5.287   4.805  0.0044  0.5638 -0.3425
  112MOL   C19642598   3.857   5.256   4.669 -0.1693 -0.3377  0.2308
  112MOL   C19742599   3.958   5.250   4.555  0.4392 -0.5873  0.5964
  112MOL   C19842600   3.921   5.431   4.854 -0.0927  0.5566 -0.6605
  112MOL   H19942601   3.838   5.486   5.055 -0.2519 -0.0567 -1.3781
  112MOL   H20042602   4.003   5.230   5.071 -1.0395 -1.7274  2.2047
  112MOL   H20142603   3.835   5.251   5.129 -1.4460  1.6527 -1.2322
  112MOL   H20242604   3.753   5.220   4.900 -0.6806 -3.5142  1.7058
  112MOL   H20342605   3.888   5.106   4.900  0.8844  0.2244 -1.4866
  112MOL   H20442606   4.030   5.246   4.811 -1.0734 -2.2560 -0.5302
  112MOL   H20542607   3.768   5.320   4.661  0.1427  0.2436  1.3575
  112MOL   H20642608   3.802   5.162   4.676 -0.5359 -0.2196 -0.8386
  112MOL   H20742609   4.021   5.161   4.562  0.8551 -0.4768 -1.2854
  112MOL   H20842610   4.024   5.336   4.553  0.0522 -0.2993 -1.8943
  112MOL   H20942611   3.825   5.467   4.818  0.0221  0.6441 -0.8842
  112MOL   H21042612   3.974   5.508   4.797  0.5727  0.1057 -0.6648
  112MOL   C21142613   3.888   5.246   4.419  0.0903 -0.4821  0.0364
  112MOL   C21242614   3.958   5.181   4.298 -0.5238 -0.2533  0.7056
  112MOL   C21342615   3.875   5.230   4.182 -1.0101  0.5232 -0.1569
  112MOL   C21442616   3.805   5.362   4.227  0.1191 -0.1499 -0.0867
  112MOL   C21542617   3.821   5.480   4.131 -0.3453 -0.5354  0.0780
  112MOL   C21642618   3.724   5.467   4.018  0.2903  0.1343  0.6160
  112MOL   C21742619   3.850   5.385   4.368  0.0418 -0.3223  0.0762
  112MOL   H21842620   3.791   5.195   4.424 -1.0032  1.2416 -2.3456
  112MOL   H21942621   4.055   5.231   4.297  0.6999 -2.6043 -0.6181
  112MOL   H22042622   3.976   5.075   4.312 -2.5021 -0.7108 -0.0676
  112MOL   H22142623   3.936   5.251   4.095 -0.4395 -2.0110 -0.4255
  112MOL   H22242624   3.794   5.162   4.155 -0.4932  0.0140 -0.4136
  112MOL   H22342625   3.699   5.339   4.234  0.6100 -2.6556 -0.2878
  112MOL   H22442626   3.926   5.487   4.101 -0.1641  1.2971  1.0693
  112MOL   H22542627   3.798   5.574   4.181  0.9796 -0.4087  0.4782
  112MOL   H22642628   3.751   5.374   3.969 -1.4445  0.3160 -0.7284
  112MOL   H22742629   3.623   5.457   4.057 -0.3651  0.4511 -0.9781
  112MOL   H22842630   3.768   5.434   4.421  1.6784  0.1678  2.2304
  112MOL   H22942631   3.931   5.458   4.366  2.1628 -2.4744  3.1620
  112MOL   C23042632   3.725   5.598   3.929 -0.1436 -0.0090  0.4611
  112MOL   C23142633   3.620   5.599   3.811  0.2366 -1.0206 -0.6003
  112MOL   C23242634   3.693   5.661   3.694 -0.1584 -0.3077 -0.3704
  112MOL   C23342635   3.837   5.626   3.704  0.2780 -0.2483 -0.8465
  112MOL   C23442636   3.924   5.720   3.628  0.2095 -0.6837 -0.2209
  112MOL   C23542637   3.901   5.721   3.481 -0.7104 -0.1492 -0.2535
  112MOL   C23642638   3.862   5.623   3.854  0.4538  0.0767 -0.0718
  112MOL   H23742639   3.701   5.688   3.984 -2.4533  1.1992 -2.3870
  112MOL   H23842640   3.604   5.499   3.771 -0.8752 -0.0224 -2.7321
  112MOL   H23942641   3.523   5.643   3.838 -0.7641 -3.0390 -0.7771
  112MOL   H24042642   3.688   5.768   3.713 -0.6466 -0.2177 -1.0096
  112MOL   H24142643   3.652   5.648   3.594 -1.1145 -0.4582  0.0310
  112MOL   H24242644   3.850   5.528   3.659  1.3037 -0.2660 -0.5201
  112MOL   H24342645   4.027   5.692   3.650 -0.2234 -2.0949  0.0529
  112MOL   H24442646   3.910   5.824   3.657 -0.2687 -1.0287  0.8227
  112MOL   H24542647   3.902   5.616   3.455  0.3363  0.6778 -3.9359
  112MOL   H24642648   3.803   5.763   3.457 -1.2489 -0.5165  1.2585
  112MOL   H24742649   3.905   5.715   3.893 -1.3827  1.5828 -1.5058
  112MOL   H24842650   3.938   5.545   3.866 -0.8456 -1.0100  1.2463
  112MOL   C24942651   4.008   5.803   3.397  0.1090  0.1071 -0.4823
  112MOL   C25042652   4.156   5.794   3.447 -0.2503  0.0811 -0.0568
  112MOL   C25142653   4.243   5.823   3.320  0.6666  0.1446 -0.0695
  112MOL   C25242654   4.164   5.752   3.209  0.2663 -0.6420 -0.4759
  112MOL   C25342655   4.208   5.796   3.067  0.0439  0.9146 -0.3495
  112MOL   C25442656   4.361   5.781   3.027 -0.4294  0.2876 -0.7573
  112MOL   C25542657   4.012   5.772   3.246 -0.0852  0.1903  0.0728
  112MOL   H25642658   3.974   5.906   3.391 -0.7520 -0.0491  1.3361
  112MOL   H25742659   4.171   5.870   3.523  0.9882 -2.8471  2.7149
  112MOL   H25842660   4.189   5.698   3.487  2.1218  0.9145  0.1164
  112MOL   H25942661   4.347   5.792   3.336 -0.1701 -2.1218  1.2119
  112MOL   H26042662   4.243   5.927   3.287 -0.8308 -0.0193 -0.5944
  112MOL   H26142663   4.192   5.648   3.225 -2.4210 -1.4091 -0.5568
  112MOL   H26242664   4.159   5.892   3.050  1.6646  1.7964 -0.0277
  112MOL   H26342665   4.155   5.726   3.002 -1.1389  2.2447 -0.8486
  112MOL   H26442666   4.387   5.675   3.021 -0.2851  0.1964  1.2617
  112MOL   H26542667   4.432   5.825   3.096 -0.5354  1.3709 -1.3213
  112MOL   H26642668   3.965   5.675   3.232  2.0057 -0.7957 -0.3207
  112MOL   H26742669   3.961   5.852   3.193 -2.6743 -0.2333  1.8092
  112MOL   C26842670   4.382   5.830   2.882 -0.2537 -0.0073  0.6312
  112MOL   C26942671   4.536   5.836   2.845 -0.7313 -0.1609  0.6805
  112MOL   C27042672   4.547   5.924   2.720  0.4083 -0.1429 -0.1322
  112MOL   C27142673   4.411   5.996   2.715  0.5314  0.5031  0.2729
  112MOL   C27242674   4.413   6.150   2.690  0.1377  0.2888  0.1745
  112MOL   C27342675   4.269   6.213   2.652 -0.6693  0.0198  0.3400
  112MOL   C27442676   4.330   5.968   2.841 -0.2921  0.4263 -0.2117
  112MOL   H27542677   4.334   5.759   2.814  0.5699  1.4071 -1.4889
  112MOL   H27642678   4.592   5.883   2.925 -0.1285 -1.7871  1.2446
  112MOL   H27742679   4.572   5.737   2.817 -1.1341  0.1580 -1.0141
  112MOL   H27842680   4.636   5.987   2.718 -0.3241  0.9581 -4.6590
  112MOL   H27942681   4.559   5.861   2.632 -0.9940 -1.9084  0.8929
  112MOL   H28042682   4.353   5.942   2.641 -0.9894  0.2640  1.6098
  112MOL   H28142683   4.472   6.163   2.599 -2.6218  0.9099 -1.6060
  112MOL   H28242684   4.452   6.205   2.776  1.2302  0.8513 -0.6784
  112MOL   H28342685   4.228   6.155   2.569  0.4490  0.3222 -0.4214
  112MOL   H28442686   4.209   6.180   2.738 -0.7043 -1.2532 -0.1611
  112MOL   H28542687   4.363   6.036   2.920 -2.2553 -0.4386  1.4145
  112MOL   H28642688   4.222   5.975   2.828 -0.2878  0.2082 -0.3669
  112MOL   C28742689   4.267   6.363   2.629 -0.8645 -0.4414  0.9781
  112MOL   C28842690   4.371   6.404   2.528  0.1890  0.0033  0.2891
  112MOL   C28942691   4.319   6.546   2.479  0.0961  0.2549  0.1541
  112MOL   C29042692   4.169   6.547   2.494 -0.1809  0.2307  0.5634
  112MOL   C29142693   4.104   6.556   2.354 -0.1208 -0.6796  0.3192
  112MOL   C29242694   4.134   6.686   2.284 -0.2459 -0.1764 -0.3104
  112MOL   C29342695   4.136   6.408   2.558  0.6580 -0.8366 -0.1268
  112MOL   H29442696   4.278   6.412   2.725  1.1812 -1.8867  1.5039
  112MOL   H29542697   4.473   6.397   2.566  0.2283  1.8459  0.5627
  112MOL   H29642698   4.361   6.330   2.449  1.4488  2.2878 -2.0853
  112MOL   H29742699   4.363   6.576   2.384  1.5876 -1.8809  0.1386
  112MOL   H29842700   4.358   6.613   2.556  1.5774  0.0145 -0.3636
  112MOL   H29942701   4.130   6.626   2.559 -0.2744 -0.0933  0.8996
  112MOL   H30042702   3.997   6.546   2.373 -0.0398 -0.0882  1.1138
  112MOL   H30142703   4.132   6.477   2.284  0.4188  2.1086 -2.7266
  112MOL   H30242704   4.239   6.712   2.270 -0.3921 -1.4258 -4.0701
  112MOL   H30342705   4.107   6.766   2.353 -3.2944 -0.2470 -1.3885
  112MOL   H30442706   4.115   6.336   2.478 -0.5871 -1.4238  0.7046
  112MOL   H30542707   4.059   6.404   2.636 -0.1101  1.4488 -0.7254
  112MOL   C30642708   4.056   6.698   2.156  0.1354  0.2010  0.4443
  112MOL   C30742709   4.062   6.840   2.097 -0.0807  0.4450  0.7407
  112MOL   C30842710   4.123   6.826   1.958 -0.1904  0.1561  0.5270
  112MOL   C30942711   4.087   6.679   1.910 -0.1318 -0.0365  0.4675
  112MOL   C31042712   4.166   6.615   1.799 -0.0344 -0.2702 -0.4176
  112MOL   C31142713   4.124   6.473   1.760  1.4405 -0.7578 -0.2645
  112MOL   C31242714   4.112   6.607   2.046 -0.4678 -0.4057  0.2951
  112MOL   H31342715   3.951   6.670   2.152  0.4763 -0.9386 -1.4468
  112MOL   H31442716   3.959   6.878   2.097  0.6633  2.5269  0.1268
  112MOL   H31542717   4.132   6.902   2.153  0.0374  3.4092 -2.4909
  112MOL   H31642718   4.105   6.907   1.887  0.1555 -0.2843 -0.0674
  112MOL   H31742719   4.232   6.827   1.962 -0.2477  0.2867  2.3889
  112MOL   H31842720   3.982   6.668   1.879 -0.0157 -0.0683  0.0795
  112MOL   H31942721   4.163   6.676   1.709  0.1609  1.2824  0.6060
  112MOL   H32042722   4.269   6.605   1.831  0.6318  0.1295 -2.3883
  112MOL   H32142723   4.017   6.457   1.759  1.4637 -0.9118 -1.2925
  112MOL   H32242724   4.158   6.405   1.837 -0.3558 -0.5146  0.7570
  112MOL   H32342725   4.218   6.591   2.066 -0.9167 -1.8529  1.6314
  112MOL   H32442726   4.059   6.513   2.059  1.7239 -1.6686  0.3732
  112MOL   C32542727   4.183   6.436   1.619 -0.2456  0.1447  0.7262
  112MOL   C32642728   4.185   6.287   1.607  0.0084  0.5450  0.3951
  112MOL   C32742729   4.181   6.256   1.456 -0.5232 -0.3545  0.1557
  112MOL   C32842730   4.138   6.390   1.381 -0.3336 -0.1921 -0.3208
  112MOL   C32942731   4.259   6.440   1.298 -0.0527 -0.0204  0.4065
  112MOL   C33042732   4.213   6.531   1.180 -0.0081  0.0026 -0.1851
  112MOL   C33142733   4.108   6.484   1.499 -0.5416 -0.3530  0.7248
  112MOL   H33242734   4.285   6.472   1.613 -0.2331 -0.0216 -0.1341
  112MOL   H33342735   4.099   6.253   1.664 -0.9542  1.7825 -0.2853
  112MOL   H33442736   4.277   6.244   1.645 -0.5332  0.3965  1.5572
  112MOL   H33542737   4.280   6.220   1.428  0.4261  0.8318  1.8964
  112MOL   H33642738   4.102   6.185   1.432 -1.4020  0.7439 -0.2457
  112MOL   H33742739   4.053   6.368   1.316 -1.3833 -0.5308  1.1649
  112MOL   H33842740   4.325   6.492   1.369  0.9508 -1.8880  0.8612
  112MOL   H33942741   4.317   6.355   1.265  3.8918  3.3683 -1.8133
  112MOL   H34042742   4.139   6.478   1.121 -1.5110  1.2839  0.5206
  112MOL   H34142743   4.166   6.620   1.221 -1.9288 -0.2637 -1.7462
  112MOL   H34242744   4.000   6.470   1.502 -0.5991 -1.3350 -3.0102
  112MOL   H34342745   4.120   6.589   1.474  1.0235 -0.1500  2.2524
  112MOL   C34442746   4.333   6.570   1.094 -0.2460  0.6392 -0.0955
  112MOL   C34542747   4.439   6.649   1.174  0.6495 -0.3899 -0.5885
  112MOL   C34642748   4.529   6.705   1.067 -0.1754  0.1676 -0.0259
  112MOL   C34742749   4.441   6.715   0.945 -0.6047 -0.7491  0.6877
  112MOL   C34842750   4.510   6.640   0.826 -0.3172  0.4073 -0.1575
  112MOL   C34942751   4.650   6.707   0.802  0.5083  0.0838  0.1927
  112MOL   C35042752   4.308   6.655   0.976 -0.4581  0.0403  0.3106
  112MOL   H35142753   4.383   6.482   1.054 -0.6542  1.4396 -2.4394
  112MOL   H35242754   4.499   6.599   1.250  0.6395  0.4286 -0.0397
  112MOL   H35342755   4.380   6.731   1.215 -0.3495 -2.4469  2.1707
  112MOL   H35442756   4.578   6.797   1.098  0.6345 -0.1365 -0.3901
  112MOL   H35542757   4.603   6.625   1.059  0.7118  1.2104 -2.5566
  112MOL   H35642758   4.417   6.818   0.921 -0.6498 -0.3000  2.5893
  112MOL   H35742759   4.514   6.535   0.856 -2.3073  0.8329  1.6991
  112MOL   H35842760   4.447   6.647   0.737 -1.4524  0.0464  0.6052
  112MOL   H35942761   4.710   6.707   0.894  0.5050  1.5910  0.2042
  112MOL   H36042762   4.635   6.815   0.798 -1.4313 -0.1479  0.6393
  112MOL   H36142763   4.240   6.738   0.995  1.4174  1.8292 -0.5364
  112MOL   H36242764   4.270   6.588   0.898 -1.1462 -0.8686  1.4208
  112MOL   C36342765   4.727   6.657   0.676  0.2023  0.4755  0.1175
  112MOL   C36442766   4.775   6.511   0.692  0.5588 -0.1481 -0.4535
  112MOL   C36542767   4.895   6.496   0.589 -0.2889  0.3681 -0.5582
  112MOL   C36642768   4.930   6.637   0.544 -0.1522 -0.2094 -0.5384
  112MOL   C36742769   5.081   6.672   0.539  0.0654 -0.2994 -0.8484
  112MOL   C36842770   5.166   6.571   0.453 -0.0178 -0.1673 -0.3089
  112MOL   C36942771   4.855   6.732   0.639 -0.1830  0.7755 -0.3225
  112MOL   H37042772   4.662   6.658   0.589 -1.9099 -3.0733  1.5369
  112MOL   H37142773   4.807   6.482   0.792 -1.3931  0.5606  0.3999
  112MOL   H37242774   4.699   6.438   0.666 -0.6264  1.2069 -0.8438
  112MOL   H37342775   4.977   6.457   0.648 -1.1592  0.8040  0.9579
  112MOL   H37442776   4.875   6.428   0.506 -1.9076 -0.3606  0.3985
  112MOL   H37542777   4.898   6.651   0.441 -2.3165  1.1929  0.3034
  112MOL   H37642778   5.108   6.774   0.512  1.2335 -0.0337  1.2171
  112MOL   H37742779   5.116   6.664   0.642 -0.3562  3.0052 -0.3950
  112MOL   H37842780   5.099   6.493   0.416  0.4048 -0.9521  0.5823
  112MOL   H37942781   5.232   6.506   0.510 -1.1446 -2.3090 -1.3979
  112MOL   H38042782   4.908   6.746   0.733 -1.3728 -0.8306  0.6084
  112MOL   H38142783   4.840   6.834   0.604 -1.3181  0.1318 -1.7650
  112MOL   H38242784   5.207   6.612   0.360  1.3286 -0.9373 -0.0580
  113MOL     C142785   2.212   2.409   2.502 -0.0585  0.4109 -0.0944
  113MOL     C242786   2.143   2.269   2.512  0.5252 -0.5749 -0.5456
  113MOL     C342787   2.016   2.282   2.590 -0.1269  0.7234 -0.1774
  113MOL     C442788   1.979   2.429   2.589 -0.5178 -0.0158  0.2084
  113MOL     C542789   1.915   2.478   2.719 -0.5795  0.1025  0.4045
  113MOL     C642790   1.773   2.439   2.728  1.2282 -0.5065 -0.2561
  113MOL     C742791   2.110   2.500   2.570 -0.4345 -0.1477 -1.0719
  113MOL     H842792   2.308   2.406   2.554 -0.0656  3.0967  0.1379
  113MOL     H942793   2.203   2.184   2.545  0.2726 -0.3603  0.4762
  113MOL    H1042794   2.108   2.255   2.410  1.6380 -0.7352 -0.9105
  113MOL    H1142795   1.930   2.222   2.559  0.0147 -0.7012  2.0639
  113MOL    H1242796   2.033   2.256   2.694  1.6192  0.4126 -0.5211
  113MOL    H1342797   1.922   2.452   2.499 -2.4784 -1.0589  1.1522
  113MOL    H1442798   1.972   2.441   2.804 -0.2550 -0.3565 -0.0084
  113MOL    H1542799   1.927   2.585   2.731 -0.8441  0.2168 -0.3005
  113MOL    H1642800   1.721   2.489   2.646 -2.3508  0.7201  2.5855
  113MOL    H1742801   1.763   2.336   2.693  0.2897 -1.3725  2.4069
  113MOL    H1842802   2.097   2.591   2.511 -0.0971  0.8046  0.2976
  113MOL    H1942803   2.131   2.539   2.670 -1.0953 -1.4167 -0.4318
  113MOL    H2042804   2.236   2.435   2.399  2.6091 -1.9059 -0.1325
  113MOL    C2142805   1.688   2.480   2.860 -0.2120 -0.6421  0.0966
  113MOL    C2242806   1.542   2.441   2.847  0.2504  0.0292 -0.7738
  113MOL    C2342807   1.494   2.419   2.989  0.3161 -0.2582 -0.0623
  113MOL    C2442808   1.619   2.428   3.083  0.2403  0.2054  0.2822
  113MOL    C2542809   1.609   2.326   3.203  0.4999  0.8897  0.2512
  113MOL    C2642810   1.743   2.320   3.284  0.0774  0.5459 -0.0385
  113MOL    C2742811   1.741   2.417   2.990 -0.3365  0.8231 -0.4268
  113MOL    H2842812   1.705   2.586   2.879  3.5076 -1.2285  0.4943
  113MOL    H2942813   1.475   2.514   2.803 -1.4266 -1.4796 -0.7729
  113MOL    H3042814   1.528   2.350   2.789 -0.6642 -0.0351 -0.4517
  113MOL    H3142815   1.426   2.499   3.021  1.5514 -0.5437  3.5119
  113MOL    H3242816   1.441   2.324   2.994 -0.6304  0.2223 -0.6813
  113MOL    H3342817   1.615   2.531   3.119  0.1011  0.6256 -0.9128
  113MOL    H3442818   1.591   2.223   3.172 -1.5162  1.1055  0.6354
  113MOL    H3542819   1.522   2.339   3.267 -1.0948  1.7532 -2.0261
  113MOL    H3642820   1.753   2.416   3.334  1.5111 -0.3620  1.5147
  113MOL    H3742821   1.836   2.325   3.227 -0.4239  0.5407 -0.8579
  113MOL    H3842822   1.837   2.452   3.027  1.0469 -2.7933 -0.4167
  113MOL    H3942823   1.764   2.314   2.961  2.6762  0.9862  1.2317
  113MOL    C4042824   1.744   2.215   3.397  0.1926  0.9056  0.7991
  113MOL    C4142825   1.882   2.208   3.466 -0.4847  0.6904  0.1629
  113MOL    C4242826   1.847   2.184   3.615  0.2993  0.2158 -0.1820
  113MOL    C4342827   1.708   2.257   3.635  0.0484 -0.1978  0.1904
  113MOL    C4442828   1.629   2.220   3.761 -0.3443  0.5489  0.0156
  113MOL    C4542829   1.490   2.291   3.757 -0.5379  0.6845 -0.2440
  113MOL    C4642830   1.639   2.230   3.510  0.6590 -0.3912  0.1650
  113MOL    H4742831   1.716   2.118   3.355 -2.4774  1.4299  1.2505
  113MOL    H4842832   1.926   2.307   3.455 -0.1492  0.8127  2.3632
  113MOL    H4942833   1.943   2.125   3.431 -0.6383 -0.1892  1.9270
  113MOL    H5042834   1.823   2.078   3.621  0.4961  0.0876 -1.4072
  113MOL    H5142835   1.921   2.229   3.682 -0.9025  0.8219  0.7723
  113MOL    H5242836   1.719   2.365   3.639  2.4035 -0.3366 -1.1152
  113MOL    H5342837   1.618   2.113   3.772 -0.6701  0.4962 -0.8078
  113MOL    H5442838   1.687   2.253   3.848  0.7267  0.8975 -0.8078
  113MOL    H5542839   1.438   2.252   3.670  1.0527 -1.8106 -0.1178
  113MOL    H5642840   1.507   2.399   3.750 -0.7356  0.6755 -0.8593
  113MOL    H5742841   1.582   2.137   3.515 -0.9956  0.6923  2.2079
  113MOL    H5842842   1.567   2.308   3.485 -0.4327 -1.2083  0.6910
  113MOL    C5942843   1.409   2.264   3.884  0.8424  0.4921  0.7220
  113MOL    C6042844   1.476   2.308   4.010 -0.2352 -0.1898  0.0393
  113MOL    C6142845   1.363   2.290   4.102  0.0862 -0.3820 -0.1511
  113MOL    C6242846   1.235   2.331   4.038 -0.8579  0.2430  0.2804
  113MOL    C6342847   1.112   2.245   4.065  0.7044  0.2208  0.0933
  113MOL    C6442848   1.057   2.231   4.205 -0.9098 -0.0842  0.2896
  113MOL    C6542849   1.274   2.336   3.889  0.0849 -1.0534 -0.6424
  113MOL    H6642850   1.390   2.157   3.892  1.7096  0.2437 -0.3447
  113MOL    H6742851   1.551   2.241   4.051  0.0940 -0.0841 -0.3968
  113MOL    H6842852   1.504   2.413   4.003 -0.4984 -0.2265 -1.5415
  113MOL    H6942853   1.363   2.186   4.134  1.5975  0.1389  1.6687
  113MOL    H7042854   1.378   2.336   4.200  2.1599 -0.3078 -0.4616
  113MOL    H7142855   1.215   2.434   4.067 -1.2563  0.3917 -0.5064
  113MOL    H7242856   1.120   2.146   4.022  3.3989  0.9875 -1.2664
  113MOL    H7342857   1.041   2.301   4.005  3.5429  3.1865 -0.6747
  113MOL    H7442858   0.966   2.172   4.201 -0.3024 -1.0665  0.7536
  113MOL    H7542859   1.113   2.158   4.263 -1.7969 -0.6192  0.4834
  113MOL    H7642860   1.202   2.287   3.822  0.5755 -2.9804  0.2217
  113MOL    H7742861   1.280   2.443   3.870  2.7166 -0.9522  0.5477
  113MOL    C7842862   1.039   2.364   4.287  0.2355 -0.4752  0.3444
  113MOL    C7942863   0.893   2.421   4.278 -0.2280  0.3048  0.3745
  113MOL    C8042864   0.843   2.446   4.419 -0.5992  0.6601 -0.7677
  113MOL    C8142865   0.976   2.445   4.504 -0.1040 -0.0748  0.3522
  113MOL    C8242866   0.964   2.441   4.656 -0.0750 -0.2903 -0.1862
  113MOL    C8342867   1.093   2.388   4.722 -1.0400  0.1213  0.1745
  113MOL    C8442868   1.056   2.330   4.436  0.1697 -0.5004 -0.9588
  113MOL    H8542869   1.095   2.451   4.253  0.0924 -0.5664 -0.1284
  113MOL    H8642870   0.892   2.502   4.206  0.6496 -0.3634 -0.3980
  113MOL    H8742871   0.830   2.346   4.230  0.8825  1.4679 -3.0111
  113MOL    H8842872   0.778   2.532   4.434 -1.9426 -0.4831  0.1848
  113MOL    H8942873   0.796   2.354   4.454 -0.7941  1.4037  1.0050
  113MOL    H9042874   1.025   2.539   4.478  1.4390 -0.7977  0.5879
  113MOL    H9142875   0.878   2.382   4.689 -0.3809  0.6957  0.8334
  113MOL    H9242876   0.945   2.541   4.695 -1.5095  0.0757 -1.7496
  113MOL    H9342877   1.182   2.443   4.694 -2.5736  1.9326 -1.2563
  113MOL    H9442878   1.115   2.287   4.687  0.7219  0.4370  0.3319
  113MOL    H9542879   1.017   2.229   4.450 -2.0729  0.2666 -1.4446
  113MOL    H9642880   1.160   2.332   4.468  0.8718  1.0440 -3.1918
  113MOL    C9742881   1.078   2.382   4.876 -0.0567 -0.2443  0.1427
  113MOL    C9842882   1.040   2.514   4.950 -0.1337 -0.1347 -0.4836
  113MOL    C9942883   1.095   2.491   5.094 -0.3855 -0.2378 -0.4192
  113MOL   C10042884   1.205   2.377   5.089 -0.3506  0.0704 -0.3653
  113MOL   C10142885   1.344   2.430   5.122 -0.4219  0.1716  0.7351
  113MOL   C10242886   1.450   2.317   5.133 -0.4383  0.6135  0.6227
  113MOL   C10342887   1.206   2.335   4.945 -0.0122 -0.1249  1.4005
  113MOL   H10442888   1.001   2.309   4.903  0.5114 -0.1985  2.0101
  113MOL   H10542889   1.098   2.598   4.911 -1.3098  0.5681 -0.7383
  113MOL   H10642890   0.935   2.526   4.925  0.0224  0.3908 -0.9056
  113MOL   H10742891   1.134   2.578   5.145  4.2708 -2.3352 -0.1493
  113MOL   H10842892   1.019   2.452   5.162  0.0902 -1.1137 -0.3839
  113MOL   H10942893   1.165   2.294   5.147  1.8470  0.3173  1.5603
  113MOL   H11042894   1.373   2.510   5.055  0.8159  0.0485  1.1147
  113MOL   H11142895   1.341   2.473   5.222 -0.7527  1.0548  0.3480
  113MOL   H11242896   1.409   2.226   5.177 -2.2022  0.9405 -0.2968
  113MOL   H11342897   1.470   2.298   5.027 -2.9336  1.6289 -0.0687
  113MOL   H11442898   1.288   2.379   4.888 -1.8828 -1.0361 -2.1179
  113MOL   H11542899   1.215   2.226   4.941  0.3616 -0.0788  0.9729
  113MOL   C11642900   1.578   2.359   5.204 -0.3085  0.2469 -0.1714
  113MOL   C11742901   1.691   2.256   5.191 -0.0624  0.0861 -0.7567
  113MOL   C11842902   1.824   2.326   5.212  0.0305  0.2965  0.0136
  113MOL   C11942903   1.783   2.480   5.195  0.6649  0.4468 -0.0182
  113MOL   C12042904   1.869   2.567   5.110  0.6417  0.4207  0.2353
  113MOL   C12142905   2.017   2.591   5.156 -0.2008  0.4805  0.1138
  113MOL   C12242906   1.640   2.477   5.142 -0.2782  0.5374 -0.8838
  113MOL   H12342907   1.554   2.378   5.308 -0.6831  0.5030 -0.3055
  113MOL   H12442908   1.681   2.214   5.091  0.5703 -0.5040 -0.5769
  113MOL   H12542909   1.695   2.173   5.262 -3.8414  0.5433  0.0934
  113MOL   H12642910   1.889   2.290   5.132  0.8818 -1.4073  1.4326
  113MOL   H12742911   1.876   2.313   5.307 -1.5332 -0.8011  0.7528
  113MOL   H12842912   1.788   2.532   5.291 -1.4382 -0.9754  0.9054
  113MOL   H12942913   1.832   2.669   5.099  0.4427  0.5525  1.9801
  113MOL   H13042914   1.880   2.523   5.011 -0.9738 -1.1811  0.7244
  113MOL   H13142915   2.067   2.496   5.172  0.8935  1.2963  1.6529
  113MOL   H13242916   2.021   2.638   5.255  0.7978 -0.2187  0.4095
  113MOL   H13342917   1.585   2.565   5.175  1.1580  0.7578  1.0153
  113MOL   H13442918   1.651   2.466   5.034 -0.0045  0.3953 -0.8399
  113MOL   C13542919   2.098   2.670   5.054 -0.3318 -0.0436  0.0638
  113MOL   C13642920   2.038   2.816   5.040 -0.7943  0.5560  0.3743
  113MOL   C13742921   2.167   2.904   5.032 -0.0650  0.1832  0.1008
  113MOL   C13842922   2.275   2.830   5.121 -0.6480  0.1971  0.1645
  113MOL   C13942923   2.419   2.873   5.073 -0.3637  0.2928 -0.7565
  113MOL   C14042924   2.535   2.805   5.141  0.0700 -0.5139 -0.5372
  113MOL   C14142925   2.247   2.683   5.093  0.5314  0.7039  1.0173
  113MOL   H14242926   2.091   2.623   4.956  0.6941 -0.0128 -0.0278
  113MOL   H14342927   1.980   2.821   4.948 -0.2855 -1.4210 -0.0600
  113MOL   H14442928   1.984   2.851   5.127  1.0703 -0.6150  2.0485
  113MOL   H14542929   2.210   2.906   4.932 -1.5230  1.3001 -0.5289
  113MOL   H14642930   2.160   3.007   5.065  2.0044  0.5710 -0.6091
  113MOL   H14742931   2.266   2.853   5.227 -0.9045 -1.1881  0.4478
  113MOL   H14842932   2.435   2.977   5.099  1.1988 -0.0631 -0.1896
  113MOL   H14942933   2.437   2.862   4.966 -2.0086 -2.4696 -0.7892
  113MOL   H15042934   2.512   2.789   5.247 -0.8235  0.3363 -0.5970
  113MOL   H15142935   2.539   2.713   5.083 -2.1212 -1.0986  0.1814
  113MOL   H15242936   2.283   2.616   5.171  3.4021 -1.3272 -1.9594
  113MOL   H15342937   2.298   2.654   5.002 -1.4363  0.6686 -0.1215
  113MOL   C15442938   2.670   2.882   5.143 -0.3706  0.0384 -0.0149
  113MOL   C15542939   2.778   2.778   5.177  0.2569 -0.1237  0.0064
  113MOL   C15642940   2.896   2.856   5.224  0.9154  0.2937 -0.1987
  113MOL   C15742941   2.835   2.987   5.283 -0.7003  0.5076  0.1676
  113MOL   C15842942   2.848   2.993   5.439 -0.2028  0.4397 -1.1796
  113MOL   C15942943   2.800   3.139   5.479  0.4137  0.3664 -0.1517
  113MOL   C16042944   2.682   2.992   5.247 -0.8286  0.3650 -0.0315
  113MOL   H16142945   2.695   2.920   5.044  0.7847  1.2718  0.7399
  113MOL   H16242946   2.738   2.716   5.258 -0.8624  0.2441 -0.2609
  113MOL   H16342947   2.805   2.722   5.088  0.3548  1.4466 -0.9677
  113MOL   H16442948   2.961   2.802   5.293 -0.7634  0.3949  1.4978
  113MOL   H16542949   2.966   2.883   5.145  1.5950 -1.1987 -0.1255
  113MOL   H16642950   2.894   3.069   5.242 -2.1979  1.0014 -1.0437
  113MOL   H16742951   2.953   2.976   5.463  0.1192  1.4446 -1.8699
  113MOL   H16842952   2.788   2.917   5.489  1.5128  0.8231  1.5888
  113MOL   H16942953   2.841   3.217   5.415 -0.1492  1.0534  0.3219
  113MOL   H17042954   2.696   3.153   5.451 -0.0900 -1.4160  0.7313
  113MOL   H17142955   2.652   3.084   5.198  2.6346  0.9419 -1.2490
  113MOL   H17242956   2.615   2.956   5.325 -0.6847 -1.4838 -0.7425
  113MOL   C17342957   2.818   3.178   5.626  0.0600  0.6636 -0.2658
  113MOL   C17442958   2.795   3.326   5.663 -0.7569  0.0691  0.7486
  113MOL   C17542959   2.700   3.317   5.786 -0.3603  0.0450 -0.9771
  113MOL   C17642960   2.717   3.183   5.855 -0.5263 -0.2131  0.2674
  113MOL   C17742961   2.610   3.129   5.947 -0.0106 -0.1888 -0.1232
  113MOL   C17842962   2.565   3.222   6.056  0.4725 -0.8391 -0.5688
  113MOL   C17942963   2.749   3.097   5.735 -0.1429  0.0299  0.2460
  113MOL   H18042964   2.924   3.158   5.641  0.4422  1.6216 -1.6341
  113MOL   H18142965   2.755   3.378   5.575 -0.9938  3.3875  2.7295
  113MOL   H18242966   2.897   3.365   5.672 -0.9334  0.5874  0.5331
  113MOL   H18342967   2.740   3.388   5.858 -1.3278 -1.0415  0.6660
  113MOL   H18442968   2.599   3.336   5.748 -1.0920 -2.4365 -0.4077
  113MOL   H18542969   2.810   3.205   5.907 -0.9702 -0.1575  1.0396
  113MOL   H18642970   2.649   3.043   6.001 -0.6564 -1.1657 -1.2057
  113MOL   H18742971   2.533   3.097   5.877 -0.3940  0.9272 -0.2173
  113MOL   H18842972   2.478   3.186   6.110 -1.1253  1.0777 -1.8103
  113MOL   H18942973   2.537   3.313   6.004  4.1800  0.5571 -0.2766
  113MOL   H19042974   2.655   3.056   5.700  0.0331  0.1104 -0.3277
  113MOL   H19142975   2.792   3.000   5.760 -0.6708 -1.4044 -3.9496
  113MOL   C19242976   2.684   3.261   6.150  0.4730  0.2089  0.2413
  113MOL   C19342977   2.727   3.156   6.248  0.2982  0.0779 -0.0911
  113MOL   C19442978   2.786   3.231   6.364 -0.5891 -0.0993  0.0678
  113MOL   C19542979   2.697   3.357   6.374  0.4607 -0.1594  0.3096
  113MOL   C19642980   2.750   3.472   6.459  0.0212  0.1442 -0.0355
  113MOL   C19742981   2.684   3.610   6.462 -0.2852  0.0096  0.6723
  113MOL   C19842982   2.659   3.389   6.232  0.2440  0.1728  0.0376
  113MOL   H19942983   2.768   3.288   6.086 -0.0012  3.0249  0.7440
  113MOL   H20042984   2.638   3.109   6.290 -0.3358  1.9442  0.7321
  113MOL   H20142985   2.797   3.088   6.200 -0.8515 -1.6046  0.5791
  113MOL   H20242986   2.888   3.259   6.337 -1.3332  2.3152 -0.3402
  113MOL   H20342987   2.795   3.171   6.454 -0.3911 -0.1232  0.0341
  113MOL   H20442988   2.609   3.323   6.429  0.2021 -1.3029 -0.8005
  113MOL   H20542989   2.851   3.479   6.418 -0.5618  0.2228 -1.5071
  113MOL   H20642990   2.753   3.436   6.561  1.1658  3.9900  1.3782
  113MOL   H20742991   2.580   3.595   6.490 -0.2662 -0.1991  0.6315
  113MOL   H20842992   2.689   3.657   6.364  1.5972 -2.5545 -0.5335
  113MOL   H20942993   2.714   3.475   6.193  1.1456  0.0880  1.0961
  113MOL   H21042994   2.558   3.427   6.219  0.9963  1.6327 -1.8688
  113MOL   C21142995   2.750   3.700   6.563  0.4740 -0.1073 -0.1423
  113MOL   C21242996   2.742   3.654   6.713 -0.1937 -0.3803 -0.0931
  113MOL   C21342997   2.657   3.748   6.793 -0.1381  0.4186 -0.1704
  113MOL   C21442998   2.664   3.885   6.716  0.2098  0.4379  0.3194
  113MOL   C21542999   2.545   3.986   6.733  0.2807 -0.4011 -0.2617
  113MOL   C21643000   2.544   4.069   6.859  0.3132  0.2049  0.0394
  113MOL   C21743001   2.682   3.842   6.570 -0.2922  0.6879 -0.6448
  113MOL   H21843002   2.855   3.723   6.545  0.9198  1.6788  4.1138
  113MOL   H21943003   2.704   3.554   6.732 -2.0678  0.4115  0.4958
  113MOL   H22043004   2.842   3.656   6.755 -1.1576  1.3564  2.2262
  113MOL   H22143005   2.551   3.723   6.798 -0.1191 -0.0568 -1.6928
  113MOL   H22243006   2.694   3.756   6.895  1.9467 -3.4530 -0.5235
  113MOL   H22343007   2.762   3.920   6.750  0.8641 -1.5469  0.5796
  113MOL   H22443008   2.454   3.928   6.718 -1.1555  1.8527 -0.5114
  113MOL   H22543009   2.540   4.053   6.648 -0.4170 -1.4419 -1.0543
  113MOL   H22643010   2.545   3.998   6.942 -0.6347  0.8362  0.6113
  113MOL   H22743011   2.632   4.133   6.857 -1.0652  2.1261 -1.0696
  113MOL   H22843012   2.732   3.923   6.517 -0.6406  0.8967 -0.6561
  113MOL   H22943013   2.586   3.834   6.518  0.2883  0.9845 -1.7895
  113MOL   C23043014   2.425   4.158   6.867 -0.1325  0.6749  0.5330
  113MOL   C23143015   2.430   4.257   6.986  0.2050  0.2133 -0.4282
  113MOL   C23243016   2.294   4.259   7.041  0.0138 -0.0830 -0.2854
  113MOL   C23343017   2.247   4.109   7.025  0.5952  0.0452 -0.4697
  113MOL   C23443018   2.096   4.085   7.049  0.5646  0.3871 -0.0257
  113MOL   C23543019   2.002   4.120   6.935 -0.3546  0.0393  0.3806
  113MOL   C23643020   2.298   4.075   6.888  0.0844  0.3986 -0.2312
  113MOL   H23743021   2.435   4.214   6.774  0.4197  0.9454  0.7529
  113MOL   H23843022   2.508   4.230   7.057 -1.7162 -0.5664  1.4482
  113MOL   H23943023   2.473   4.345   6.938  3.5209 -1.7507 -1.2270
  113MOL   H24043024   2.233   4.327   6.980 -1.1358  0.0079  0.9302
  113MOL   H24143025   2.296   4.296   7.144  1.5112 -1.9658  0.3810
  113MOL   H24243026   2.302   4.060   7.106 -2.1063 -0.5845  1.0506
  113MOL   H24343027   2.074   4.152   7.132  0.3234  1.0548 -0.6176
  113MOL   H24443028   2.080   3.981   7.079  0.0868  0.6394  0.6016
  113MOL   H24543029   2.044   4.203   6.879 -2.4724  0.6841 -0.3063
  113MOL   H24643030   1.993   4.036   6.865 -2.1289 -1.1024  1.9065
  113MOL   H24743031   2.222   4.084   6.810  0.6151  2.0011 -0.5948
  113MOL   H24843032   2.312   3.968   6.878  0.1501  0.3524  0.3730
  113MOL   C24943033   1.870   4.187   6.974 -0.4219 -0.3149  0.0864
  113MOL   C25043034   1.792   4.260   6.875  0.0234  0.0148  0.1009
  113MOL   C25143035   1.653   4.279   6.941 -0.4859 -0.0644  0.3886
  113MOL   C25243036   1.623   4.141   7.004 -0.5990  0.2388 -0.3681
  113MOL   C25343037   1.549   4.143   7.139 -0.2045 -0.7413  1.5294
  113MOL   C25443038   1.470   4.017   7.173  0.5807  0.1997  0.1587
  113MOL   C25543039   1.766   4.084   7.015 -0.2990  0.4167  0.5015
  113MOL   H25643040   1.890   4.253   7.058  0.4926 -0.4605 -0.0072
  113MOL   H25743041   1.843   4.355   6.860  2.1778 -0.9248  1.2169
  113MOL   H25843042   1.788   4.210   6.778 -2.0326  0.3513  0.0003
  113MOL   H25943043   1.578   4.317   6.871 -1.7095  0.7417  2.0993
  113MOL   H26043044   1.654   4.358   7.015 -1.5337 -0.3701  0.7403
  113MOL   H26143045   1.557   4.089   6.935  0.1401  0.1828 -1.0345
  113MOL   H26243046   1.481   4.229   7.143  0.3746 -0.1300 -0.6925
  113MOL   H26343047   1.604   4.166   7.230 -0.1344 -1.5309  1.6880
  113MOL   H26443048   1.376   3.998   7.120  0.7042 -2.0598  0.6881
  113MOL   H26543049   1.436   4.024   7.276  0.0467  1.5747 -0.1001
  113MOL   H26643050   1.768   3.996   6.951  2.8397 -0.4471  1.6895
  113MOL   H26743051   1.789   4.052   7.116  3.4423  0.7067 -0.1998
  113MOL   C26843052   1.557   3.887   7.165  1.0019 -0.0229  0.4563
  113MOL   C26943053   1.468   3.756   7.177 -0.5162 -0.1286 -0.2633
  113MOL   C27043054   1.554   3.652   7.250  0.4283  0.1567 -0.0960
  113MOL   C27143055   1.683   3.727   7.300  0.8256 -0.1000 -0.2380
  113MOL   C27243056   1.734   3.683   7.444  0.2002 -0.5949  0.3071
  113MOL   C27343057   1.872   3.750   7.473  0.0247 -0.7807  0.1328
  113MOL   C27443058   1.648   3.875   7.287  0.0021 -1.1405  0.0077
  113MOL   H27543059   1.618   3.877   7.075 -0.8488  1.0671 -0.9451
  113MOL   H27643060   1.382   3.781   7.240 -0.4271  1.0219 -0.5758
  113MOL   H27743061   1.426   3.721   7.083 -0.7704 -1.4224  0.3255
  113MOL   H27843062   1.487   3.621   7.331  0.2184  0.7196 -0.0516
  113MOL   H27943063   1.578   3.563   7.191 -0.8939  0.5418 -1.2285
  113MOL   H28043064   1.770   3.705   7.238  1.0737 -2.8627  1.0065
  113MOL   H28143065   1.720   3.577   7.465 -1.0866 -0.2938  1.0578
  113MOL   H28243066   1.666   3.723   7.519  2.1800  3.6616  0.0083
  113MOL   H28343067   1.947   3.719   7.400  0.5913 -0.4659  0.5757
  113MOL   H28443068   1.857   3.855   7.449 -0.3498 -1.3295 -2.2251
  113MOL   H28543069   1.614   3.907   7.385  2.1771  3.7124 -0.7030
  113MOL   H28643070   1.741   3.929   7.272 -0.3775 -0.1973  0.9878
  113MOL   C28743071   1.922   3.718   7.615 -0.7223 -0.5301 -0.0232
  113MOL   C28843072   2.072   3.739   7.639  0.2679 -0.3390 -0.4289
  113MOL   C28943073   2.087   3.760   0.139  0.4505 -0.0492 -0.0371
  113MOL   C29043074   1.949   3.758   0.209  0.5787  0.1087  0.6414
  113MOL   C29143075   1.927   3.838   0.332 -0.1963 -0.6347 -0.3253
  113MOL   C29243076   2.032   3.813   0.437 -0.0500 -0.3707  0.1308
  113MOL   C29343077   1.862   3.804   0.085  0.2222 -0.2771 -0.2478
  113MOL   H29443078   1.893   3.615   7.635  0.7300 -1.5388 -2.9313
  113MOL   H29543079   2.125   3.649   7.608  0.1210 -0.4134 -0.4643
  113MOL   H29643080   2.104   3.822   7.577 -0.4759  0.2948  0.0147
  113MOL   H29743081   2.136   3.855   0.159 -0.1313  0.0826  0.7729
  113MOL   H29843082   2.148   3.684   0.189  2.7277  2.5475  1.2769
  113MOL   H29943083   1.931   3.654   0.233 -1.1224 -0.6557 -3.4778
  113MOL   H30043084   1.834   3.804   0.378 -0.2691  0.1220  0.1142
  113MOL   H30143085   1.917   3.947   0.323  1.3997 -0.2097  2.4328
  113MOL   H30243086   2.128   3.852   0.402  0.6589 -0.7048  1.6398
  113MOL   H30343087   2.051   3.706   0.443  0.5258 -0.3270 -0.8156
  113MOL   H30443088   1.869   3.912   0.068 -0.7242 -0.0748  0.6386
  113MOL   H30543089   1.759   3.780   0.111  0.6208 -1.1262  0.5840
  113MOL   C30643090   1.997   3.867   0.571  0.1037 -0.1327 -0.2277
  113MOL   C30743091   1.875   3.821   0.654  0.5365  0.7062 -0.0046
  113MOL   C30843092   1.904   3.840   0.805  0.4887  0.0953  0.2246
  113MOL   C30943093   2.052   3.862   0.817  0.6691 -0.0729  0.0399
  113MOL   C31043094   2.117   3.764   0.918  0.0055  0.7680 -0.2516
  113MOL   C31143095   2.273   3.772   0.911 -0.1016 -0.4132  0.2773
  113MOL   C31243096   2.111   3.845   0.670 -0.6213 -0.1681 -0.0223
  113MOL   H31343097   1.998   3.975   0.557  0.0788 -0.3027 -1.5393
  113MOL   H31443098   1.779   3.859   0.618  1.7101  1.5876 -2.3319
  113MOL   H31543099   1.863   3.713   0.649  1.9104  0.4303  1.9863
  113MOL   H31643100   1.845   3.920   0.851 -0.1689  0.6608 -1.5474
  113MOL   H31743101   1.875   3.743   0.843 -1.0399 -1.1430 -3.8676
  113MOL   H31843102   2.075   3.957   0.866 -0.7071 -0.1649  0.8803
  113MOL   H31943103   2.091   3.776   1.023 -2.3192 -1.3108 -0.5641
  113MOL   H32043104   2.090   3.663   0.887 -1.2211  1.4638 -1.4869
  113MOL   H32143105   2.290   3.879   0.902  0.4200 -0.5310 -0.1915
  113MOL   H32243106   2.310   3.733   0.816  2.1297  0.9815  0.5307
  113MOL   H32343107   2.146   3.743   0.656 -1.5249 -0.7969  2.0985
  113MOL   H32443108   2.201   3.906   0.656  1.2967 -3.2610 -1.7092
  113MOL   C32543109   2.358   3.711   1.021 -0.1383  0.0380  0.1172
  113MOL   C32643110   2.513   3.698   0.997  0.3934 -0.4128  0.0561
  113MOL   C32743111   2.571   3.702   1.141 -0.2641  0.2488  0.1690
  113MOL   C32843112   2.490   3.805   1.216 -0.5267  0.8260  0.0626
  113MOL   C32943113   2.485   3.803   1.366  0.1959 -0.5082  0.0669
  113MOL   C33043114   2.413   3.924   1.430 -0.2055 -0.6750 -0.8369
  113MOL   C33143115   2.347   3.795   1.150  0.1383  1.0142 -0.6087
  113MOL   H33243116   2.317   3.610   1.032  2.5581 -0.7176  4.0371
  113MOL   H33343117   2.542   3.787   0.941  0.0984 -0.2591  0.1509
  113MOL   H33443118   2.545   3.611   0.939 -0.7429 -0.8072  0.0193
  113MOL   H33543119   2.549   3.609   1.194 -1.0527  0.0539 -0.4820
  113MOL   H33643120   2.679   3.717   1.137  0.2202 -3.2497 -2.3515
  113MOL   H33743121   2.520   3.907   1.193 -1.4933  1.9249  3.3594
  113MOL   H33843122   2.432   3.711   1.390 -0.1571 -0.3427 -0.0587
  113MOL   H33943123   2.585   3.797   1.408  0.7735  1.4081 -0.9541
  113MOL   H34043124   2.478   4.011   1.438  1.1304 -1.8475  1.5607
  113MOL   H34143125   2.334   3.968   1.369  0.3781  1.3366 -0.1693
  113MOL   H34243126   2.314   3.898   1.135 -1.9848  0.2468 -1.3648
  113MOL   H34343127   2.282   3.760   1.230 -0.3641  0.1012 -1.4121
  113MOL   C34443128   2.361   3.916   1.573 -0.4366  0.3282  0.9175
  113MOL   C34543129   2.268   3.802   1.586  0.3493 -0.2852  0.5907
  113MOL   C34643130   2.182   3.841   1.710  0.1152  0.4023 -0.1724
  113MOL   C34743131   2.178   3.992   1.724  0.4899  0.5385  0.3650
  113MOL   C34843132   2.198   4.014   1.869 -0.3689  0.9405 -0.8546
  113MOL   C34943133   2.203   4.163   1.922 -0.0401 -0.3341 -0.3239
  113MOL   C35043134   2.289   4.043   1.627 -0.3076 -0.1159  0.2206
  113MOL   H35143135   2.450   3.891   1.630  0.7542 -0.6756 -1.3258
  113MOL   H35243136   2.318   3.710   1.616  1.0423 -0.3795 -0.7978
  113MOL   H35343137   2.205   3.779   1.500 -0.7625  1.4470  0.9284
  113MOL   H35443138   2.089   3.784   1.713  0.2671  0.1940  0.5054
  113MOL   H35543139   2.242   3.798   1.790 -1.9614  0.3290  1.3618
  113MOL   H35643140   2.078   4.027   1.700 -0.7175 -1.5858  2.1275
  113MOL   H35743141   2.113   3.968   1.919 -0.0339  0.2120 -0.9520
  113MOL   H35843142   2.289   3.959   1.894 -0.2798  0.7366 -1.6085
  113MOL   H35943143   2.106   4.210   1.915  0.4598  0.5462 -1.5795
  113MOL   H36043144   2.268   4.227   1.862 -2.8434  1.9626 -1.0212
  113MOL   H36143145   2.246   4.107   1.551 -1.2759  0.4592  1.2348
  113MOL   H36243146   2.368   4.098   1.678 -0.8216  0.0885  0.8041
  113MOL   C36343147   2.254   4.184   2.069  0.1640 -0.5429 -0.0556
  113MOL   C36443148   2.164   4.136   2.176  0.6528  0.3385 -0.6453
  113MOL   C36543149   2.203   4.204   2.309 -0.9838 -0.0488 -0.0424
  113MOL   C36643150   2.291   4.319   2.265  0.4414  0.4300  0.0915
  113MOL   C36743151   2.275   4.447   2.350 -0.6946 -0.9267  0.0085
  113MOL   C36843152   2.321   4.421   2.498 -0.6141  0.1923 -0.3946
  113MOL   C36943153   2.272   4.335   2.113  0.0402  0.3437  1.0428
  113MOL   H37043154   2.349   4.133   2.083  0.0021 -0.9955 -0.6044
  113MOL   H37143155   2.059   4.156   2.159  0.5030  1.3528  1.2777
  113MOL   H37243156   2.176   4.027   2.176 -2.1662 -0.0608  2.4672
  113MOL   H37343157   2.115   4.246   2.357  0.7903  1.9737  1.5493
  113MOL   H37443158   2.256   4.132   2.372 -1.5994 -0.0455  0.4784
  113MOL   H37543159   2.396   4.292   2.278 -0.2977 -2.1985  0.8728
  113MOL   H37643160   2.333   4.524   2.299  1.4221 -1.7939  1.0237
  113MOL   H37743161   2.171   4.479   2.348 -0.2197  0.7863  1.0231
  113MOL   H37843162   2.312   4.517   2.549  0.2051  1.2067 -2.1211
  113MOL   H37943163   2.422   4.383   2.504 -1.3305 -1.7851 -0.5611
  113MOL   H38043164   2.180   4.391   2.095  1.1667  1.7540 -0.3580
  113MOL   H38143165   2.356   4.386   2.067  1.0636 -3.1111 -1.0881
  113MOL   H38243166   2.256   4.346   2.543 -3.1672  1.8972 -1.1114
  114MOL     C143167   5.124   0.245   0.697  0.4494 -0.0558  0.1985
  114MOL     C243168   5.209   0.256   0.824  0.6927  0.7670  0.3598
  114MOL     C343169   5.128   0.345   0.916  0.2911  0.0214 -0.7424
  114MOL     C443170   4.986   0.310   0.886  1.1540  0.5597  0.4044
  114MOL     C543171   4.880   0.412   0.943  0.2904  0.3513 -0.6366
  114MOL     C643172   4.736   0.378   0.928 -0.7315  0.2647 -0.0165
  114MOL     C743173   4.986   0.299   0.734 -0.1000 -0.0444  0.6007
  114MOL     H843174   5.165   0.307   0.617 -0.1214  1.3067  0.9533
  114MOL     H943175   5.308   0.294   0.801  0.4319  0.9949 -0.3936
  114MOL    H1043176   5.225   0.161   0.875  1.0631  0.2848 -0.6281
  114MOL    H1143177   5.157   0.330   1.020 -1.0001 -3.0602 -0.7652
  114MOL    H1243178   5.145   0.452   0.901  2.0038  0.0077  0.9653
  114MOL    H1343179   4.958   0.215   0.932 -1.5282  0.8998 -0.4197
  114MOL    H1443180   4.905   0.413   1.049  0.2940 -0.1634 -0.6317
  114MOL    H1543181   4.904   0.510   0.901 -1.4014  0.7866 -0.6124
  114MOL    H1643182   4.709   0.372   0.823  0.6717  1.3026 -0.4634
  114MOL    H1743183   4.721   0.275   0.958  0.8577 -0.3535 -1.2761
  114MOL    H1843184   4.923   0.216   0.702  0.9273 -0.4971 -0.2883
  114MOL    H1943185   4.961   0.396   0.691 -0.4277 -0.3946 -0.0038
  114MOL    H2043186   5.113   0.144   0.655 -3.7151  0.1186  0.6042
  114MOL    C2143187   4.631   0.472   1.006  0.3235  0.3310 -0.2845
  114MOL    C2243188   4.487   0.418   1.009 -0.6012 -0.3212  0.5985
  114MOL    C2343189   4.443   0.406   1.152  0.3146  0.4646 -0.6538
  114MOL    C2443190   4.532   0.508   1.226  0.4060  0.1862 -0.0251
  114MOL    C2543191   4.536   0.486   1.373  0.3388  0.4966  0.3609
  114MOL    C2643192   4.619   0.595   1.444 -0.0962 -0.1254  0.1460
  114MOL    C2743193   4.668   0.505   1.150 -0.1345  0.3933  0.6953
  114MOL    H2843194   4.625   0.571   0.959  0.3239  0.9631  1.0339
  114MOL    H2943195   4.419   0.477   0.948  1.4954  2.5949  0.9704
  114MOL    H3043196   4.486   0.318   0.966 -0.6350  0.5686 -1.5292
  114MOL    H3143197   4.337   0.422   1.171  0.0336 -2.0686 -0.0091
  114MOL    H3243198   4.471   0.307   1.185  0.6823  0.6667 -0.3548
  114MOL    H3343199   4.497   0.611   1.214 -0.2721  0.2466  2.2015
  114MOL    H3443200   4.587   0.391   1.379  1.9909  1.4328  1.4926
  114MOL    H3543201   4.444   0.471   1.430  1.5873  0.7967  2.5206
  114MOL    H3643202   4.559   0.683   1.467  0.9192  0.5123  0.3924
  114MOL    H3743203   4.679   0.645   1.368 -0.6965  1.0300  0.4157
  114MOL    H3843204   4.712   0.604   1.154  0.0956  0.2475  2.8015
  114MOL    H3943205   4.737   0.428   1.186  1.8102  0.8404 -1.9796
  114MOL    C4043206   4.705   0.549   1.562  0.4282  0.1634 -0.8529
  114MOL    C4143207   4.806   0.433   1.522  0.3069  0.5157 -0.1168
  114MOL    C4243208   4.923   0.459   1.619  0.4112  0.3137  0.3482
  114MOL    C4343209   4.931   0.612   1.626 -0.0602  0.4349  0.6891
  114MOL    C4443210   5.011   0.678   1.747 -0.2058 -0.6321  0.0118
  114MOL    C4543211   5.164   0.650   1.733  0.4583 -0.0005  0.3163
  114MOL    C4643212   4.791   0.657   1.622  0.4626  0.3890  0.2897
  114MOL    H4743213   4.654   0.510   1.651  1.0791  0.7503 -0.2156
  114MOL    H4843214   4.832   0.448   1.418  1.8838 -0.5589  0.1121
  114MOL    H4943215   4.764   0.336   1.550 -0.2146  0.4059 -1.2570
  114MOL    H5043216   4.898   0.417   1.717  0.8101 -2.3744 -0.6726
  114MOL    H5143217   5.022   0.418   1.597  0.6642  0.2068  1.6346
  114MOL    H5243218   4.972   0.648   1.531  0.2283 -0.3559  0.5106
  114MOL    H5343219   4.989   0.784   1.748  1.8900 -0.1301 -2.6102
  114MOL    H5443220   4.973   0.642   1.843 -2.0085  2.1144  0.3609
  114MOL    H5543221   5.203   0.711   1.652 -0.3621  1.2287  0.8269
  114MOL    H5643222   5.173   0.544   1.708  0.5202  0.6954 -2.7013
  114MOL    H5743223   4.755   0.682   1.722 -0.3682 -1.5491  0.4842
  114MOL    H5843224   4.789   0.754   1.571  1.3793  0.6560  0.7468
  114MOL    C5943225   5.233   0.689   1.860  0.3774 -0.4931 -0.7729
  114MOL    C6043226   5.218   0.583   1.971 -0.7674 -0.0944  0.3713
  114MOL    C6143227   5.333   0.615   2.065 -0.4825 -0.2057  0.6462
  114MOL    C6243228   5.439   0.697   1.984  0.4080 -0.1703  0.1483
  114MOL    C6343229   5.464   0.834   2.043 -0.0337 -0.1163 -0.1393
  114MOL    C6443230   5.538   0.835   2.177 -0.1727  0.3329 -0.4008
  114MOL    C6543231   5.380   0.714   1.844 -0.4077 -0.0843 -0.0299
  114MOL    H6643232   5.191   0.784   1.895  1.1094  0.3050 -2.0345
  114MOL    H6743233   5.117   0.573   2.012 -1.3751 -2.2253 -1.5076
  114MOL    H6843234   5.240   0.488   1.923 -2.3932  0.7165 -2.1136
  114MOL    H6943235   5.304   0.674   2.152 -0.1375 -0.5145  0.9728
  114MOL    H7043236   5.364   0.523   2.113 -1.2495 -1.8560 -1.9414
  114MOL    H7143237   5.527   0.633   1.980 -1.6293 -3.0588  0.5240
  114MOL    H7243238   5.369   0.883   2.065 -1.1932 -1.0733 -2.7883
  114MOL    H7343239   5.508   0.908   1.976  0.2024  0.3084  0.4860
  114MOL    H7443240   5.468   0.824   2.259  0.2891 -0.7665 -0.1475
  114MOL    H7543241   5.604   0.749   2.188  2.5517  2.4033  0.3539
  114MOL    H7643242   5.405   0.810   1.800  0.3262 -0.7731 -1.1476
  114MOL    H7743243   5.425   0.635   1.784 -0.8714  0.4974 -1.1598
  114MOL    C7843244   5.607   0.968   2.202  0.2996  0.0057  0.1168
  114MOL    C7943245   5.515   1.092   2.217 -0.6055 -0.1451 -0.2470
  114MOL    C8043246   5.565   1.165   2.343  0.5118  0.1152  0.2034
  114MOL    C8143247   5.708   1.106   2.371  0.4183  0.7625  0.1763
  114MOL    C8243248   5.733   1.130   2.515  0.0717  0.4533  0.4803
  114MOL    C8343249   5.865   1.060   2.576 -0.4055 -0.3282 -0.7404
  114MOL    C8443250   5.693   0.967   2.325  0.0173  0.3111  0.2060
  114MOL    H8543251   5.687   0.982   2.129  0.4563  1.4263  0.5478
  114MOL    H8643252   5.523   1.161   2.133  3.9058 -0.8111 -0.4840
  114MOL    H8743253   5.411   1.061   2.224 -0.8051  0.9340  1.9235
  114MOL    H8843254   5.565   1.273   2.329 -0.4772 -0.3327 -4.0176
  114MOL    H8943255   5.493   1.129   2.416 -0.5478 -0.6068 -1.1529
  114MOL    H9043256   5.785   1.157   2.314 -0.4955  1.2123 -0.6595
  114MOL    H9143257   5.650   1.085   2.571  0.4331 -2.1731 -1.0490
  114MOL    H9243258   5.733   1.236   2.539  0.5517  0.4179  0.6385
  114MOL    H9343259   5.940   1.040   2.500  0.0500 -2.7718  0.3250
  114MOL    H9443260   5.841   0.962   2.618  2.5574 -0.0902  1.6535
  114MOL    H9543261   5.642   0.902   2.397  0.7783 -1.1445 -0.5515
  114MOL    H9643262   5.791   0.924   2.310 -0.3985 -0.9283  0.9674
  114MOL    C9743263   5.928   1.139   2.691 -0.5773  0.2445 -0.0117
  114MOL    C9843264   5.836   1.171   2.809 -0.2502  0.2777  0.2934
  114MOL    C9943265   5.894   1.290   2.877 -0.0677  0.3205  0.0017
  114MOL   C10043266   6.012   1.345   2.786  0.5299  0.0627 -0.6247
  114MOL   C10143267   6.019   1.493   2.784 -0.6637  0.7247 -0.1442
  114MOL   C10243268   6.070   1.546   2.915  0.0405 -0.3122 -0.5231
  114MOL   C10343269   5.994   1.273   2.649  0.3048  0.0814 -0.0722
  114MOL   H10443270   6.010   1.079   2.730 -0.3348  0.6926  0.1783
  114MOL   H10543271   5.735   1.179   2.769  0.8316 -1.2867 -2.9213
  114MOL   H10643272   5.831   1.092   2.884  1.9982  0.9793  1.2311
  114MOL   H10743273   5.815   1.366   2.876  0.1829  0.5629 -1.1848
  114MOL   H10843274   5.921   1.268   2.980  1.6011 -1.0813 -0.7254
  114MOL   H10943275   6.105   1.315   2.833 -0.6490  0.9880  2.4244
  114MOL   H11043276   6.087   1.523   2.704  1.7243 -0.7977  1.2290
  114MOL   H11143277   5.921   1.537   2.771 -1.1603  0.0476  1.2095
  114MOL   H11243278   6.031   1.489   2.999 -0.8475  0.0074 -0.7200
  114MOL   H11343279   6.177   1.521   2.912  0.2414  0.4546  0.1755
  114MOL   H11443280   5.929   1.331   2.583  1.0416 -1.6580 -2.4027
  114MOL   H11543281   6.091   1.259   2.602  1.2071 -0.2608  1.8223
  114MOL   C11643282   6.057   1.701   2.931 -0.3847  0.0941  0.2119
  114MOL   C11743283   6.093   1.725   3.074 -0.2660  0.3945  0.6844
  114MOL   C11843284   6.154   1.866   3.073  0.7047 -0.5375  0.6554
  114MOL   C11943285   6.171   1.914   2.929 -0.3383 -0.9023  0.2376
  114MOL   C12043286   6.300   1.993   2.899 -0.6127  0.0176 -0.1979
  114MOL   C12143287   6.314   2.045   2.759 -0.1389 -0.1552  0.1541
  114MOL   C12243288   6.138   1.795   2.846  0.0476 -1.2529 -0.2558
  114MOL   H12343289   5.951   1.724   2.927 -0.8454 -1.8504  0.5966
  114MOL   H12443290   6.171   1.664   3.119  0.5805 -0.9894 -2.4553
  114MOL   H12543291   6.008   1.723   3.142 -1.3981 -2.4074 -0.7248
  114MOL   H12643292   6.250   1.866   3.124  0.0559 -1.5770  1.9021
  114MOL   H12743293   6.078   1.930   3.118  0.9401 -0.6096  1.1486
  114MOL   H12843294   6.088   1.984   2.917  0.2051 -0.5735 -1.8176
  114MOL   H12943295   6.389   1.936   2.923 -0.5424  0.1857 -0.0550
  114MOL   H13043296   6.294   2.080   2.965 -1.4152  1.2802 -1.8860
  114MOL   H13143297   6.228   2.088   2.709  0.5632 -0.7738 -1.6060
  114MOL   H13243298   6.342   1.959   2.698 -0.5004  1.1045 -1.8391
  114MOL   H13343299   6.090   1.830   2.754  1.5394  1.1699 -0.1502
  114MOL   H13443300   6.234   1.750   2.821  0.4010 -1.4240  1.3733
  114MOL   C13543301   6.425   2.153   2.755  0.1004 -0.2949  0.3611
  114MOL   C13643302   6.569   2.103   2.786  0.3749 -0.4055 -0.2794
  114MOL   C13743303   6.649   2.192   2.691 -0.1640  1.1401 -0.2025
  114MOL   C13843304   6.566   2.190   2.556 -0.2585 -0.9787 -0.3591
  114MOL   C13943305   6.609   2.296   2.455 -0.1498 -0.9601  0.3350
  114MOL   C14043306   6.754   2.304   2.406  0.1600  0.4491  0.2180
  114MOL   C14143307   6.424   2.216   2.616 -0.3878  0.6199  0.5735
  114MOL   H14243308   6.395   2.235   2.821 -0.7232 -0.8357  0.6672
  114MOL   H14343309   6.610   2.105   2.887 -0.1457  1.2602 -0.0843
  114MOL   H14443310   6.570   2.000   2.750 -1.6771 -0.0254 -1.4821
  114MOL   H14543311   6.670   2.295   2.722  3.3831  0.6069 -0.5600
  114MOL   H14643312   6.749   2.149   2.687 -0.4955  0.3222  0.3443
  114MOL   H14743313   6.569   2.090   2.514 -0.4137 -0.4494 -1.6539
  114MOL   H14843314   6.593   2.396   2.496 -1.2499 -0.6812 -0.7579
  114MOL   H14943315   6.546   2.287   2.367  1.1756  0.1772 -0.7673
  114MOL   H15043316   6.824   2.331   2.485 -0.0408 -0.4535  0.7166
  114MOL   H15143317   6.794   2.203   2.398 -0.2330  0.1966  1.2266
  114MOL   H15243318   6.352   2.167   2.552  1.3442 -2.7014  1.0854
  114MOL   H15343319   6.404   2.323   2.623  0.2343  0.7999 -0.3348
  114MOL   C15443320   6.780   2.397   2.283  0.1777  0.8488 -0.0992
  114MOL   C15543321   6.930   2.409   2.248  0.3296 -0.0429  0.7186
  114MOL   C15643322   6.953   2.553   2.204  0.3882 -0.3856 -0.4045
  114MOL   C15743323   6.813   2.627   2.203  0.2633 -0.0413 -0.5118
  114MOL   C15843324   6.825   2.774   2.265 -0.2641  0.0254 -0.0817
  114MOL   C15943325   6.687   2.844   2.255  0.0643 -0.5361 -0.5862
  114MOL   C16043326   6.728   2.539   2.307  0.5814  0.6068 -0.0482
  114MOL   H16143327   6.728   2.350   2.200 -0.1664 -1.6638  1.4898
  114MOL   H16243328   7.007   2.393   2.324  1.0142  0.2668  0.1060
  114MOL   H16343329   6.960   2.335   2.173  0.2440  1.8569 -1.2341
  114MOL   H16443330   7.020   2.605   2.272 -0.0772  0.1733 -0.3682
  114MOL   H16543331   7.003   2.552   2.107  0.4575 -0.6210 -0.3654
  114MOL   H16643332   6.767   2.635   2.104  1.0363  0.1762 -0.8558
  114MOL   H16743333   6.893   2.827   2.198  0.0606  0.9644  0.9697
  114MOL   H16843334   6.868   2.767   2.365 -2.3158  0.3658  0.8505
  114MOL   H16943335   6.663   2.859   2.150  0.9358  1.6671 -0.5086
  114MOL   H17043336   6.613   2.774   2.294  1.0377 -0.8762  0.6923
  114MOL   H17143337   6.619   2.539   2.299  0.6682 -0.7625 -1.6016
  114MOL   H17243338   6.756   2.571   2.407  1.1273 -0.5848  0.1860
  114MOL   C17343339   6.694   2.977   2.332 -0.5540 -0.3744 -1.3128
  114MOL   C17443340   6.576   3.070   2.326 -0.0351 -0.1351  0.3167
  114MOL   C17543341   6.542   3.111   2.470 -0.7393  0.3202  0.1149
  114MOL   C17643342   6.683   3.095   2.550  0.5212 -0.0881  0.2922
  114MOL   C17743343   6.671   3.089   2.700  0.0086  0.4769 -0.1716
  114MOL   C17843344   6.624   3.222   2.761 -0.1030  0.0689 -0.0429
  114MOL   C17943345   6.741   2.967   2.481 -0.2524  0.3255 -0.0022
  114MOL   H18043346   6.774   3.033   2.282 -0.2995  0.2804 -0.1922
  114MOL   H18143347   6.491   3.024   2.275 -0.1467  0.0874  0.3019
  114MOL   H18243348   6.599   3.159   2.266  0.5369 -1.6949 -1.8398
  114MOL   H18343349   6.490   3.206   2.483 -0.1480  0.4074  2.0437
  114MOL   H18443350   6.468   3.038   2.502  0.0793 -0.4970  0.1626
  114MOL   H18543351   6.756   3.172   2.527 -0.0418  0.7384  1.2450
  114MOL   H18643352   6.767   3.066   2.745 -0.5602  0.1027  0.8772
  114MOL   H18743353   6.595   3.013   2.720 -0.3087 -0.0328 -3.1177
  114MOL   H18843354   6.529   3.258   2.722 -0.3442 -0.3330  0.1744
  114MOL   H18943355   6.707   3.290   2.742 -0.9038  1.7187  2.1962
  114MOL   H19043356   6.714   2.875   2.532 -0.1093 -1.0998 -2.4249
  114MOL   H19143357   6.850   2.968   2.478 -0.2761  0.3681 -3.1803
  114MOL   C19243358   6.585   3.210   2.910 -0.2020 -0.6333 -0.1178
  114MOL   C19343359   6.541   3.349   2.962  0.2092  0.2037  0.5152
  114MOL   C19443360   6.596   3.361   3.101 -0.1817  0.0198  0.2446
  114MOL   C19543361   6.718   3.280   3.103  0.1853 -0.1748 -0.1021
  114MOL   C19643362   6.742   3.242   3.247 -0.5455 -0.0476  0.2988
  114MOL   C19743363   6.779   3.350   3.352  0.0790  0.2098 -1.4611
  114MOL   C19843364   6.699   3.162   3.008  0.4204 -0.6788 -0.8425
  114MOL   H19943365   6.499   3.142   2.912 -1.0171  0.3454 -1.6009
  114MOL   H20043366   6.589   3.428   2.904  0.8839 -0.3771  0.2687
  114MOL   H20143367   6.434   3.367   2.957  0.0587 -0.5555  0.9834
  114MOL   H20243368   6.525   3.317   3.170 -0.5715 -2.4444 -1.6558
  114MOL   H20343369   6.612   3.465   3.131  2.0436  0.0620 -0.9581
  114MOL   H20443370   6.794   3.350   3.069 -0.2834  0.2340 -0.3164
  114MOL   H20543371   6.835   3.187   3.245 -1.6359 -1.9127 -0.8760
  114MOL   H20643372   6.665   3.178   3.290 -1.2740 -0.4397 -1.5278
  114MOL   H20743373   6.692   3.409   3.381  0.3126 -0.1211 -0.0672
  114MOL   H20843374   6.842   3.422   3.301  3.3889 -1.5954 -0.1157
  114MOL   H20943375   6.648   3.084   3.063 -1.9685  0.6444 -1.1072
  114MOL   H21043376   6.790   3.125   2.962  1.5149  0.5554  0.2853
  114MOL   C21143377   6.849   3.287   3.472  0.4315  1.0158  0.9793
  114MOL   C21243378   6.765   3.176   3.547  0.4720  0.3280 -0.5559
  114MOL   C21343379   6.833   3.175   3.683  0.2728 -0.1171 -0.7509
  114MOL   C21443380   6.902   3.312   3.710 -0.0575  0.1369  0.6991
  114MOL   C21543381   6.882   3.368   3.853  0.0449 -0.5820 -0.7810
  114MOL   C21643382   6.910   3.520   3.870 -0.1071 -0.0810  0.0654
  114MOL   C21743383   6.860   3.391   3.586 -0.1271 -0.2882  0.9178
  114MOL   H21843384   6.943   3.236   3.448 -0.1119 -0.2921  1.5503
  114MOL   H21943385   6.658   3.196   3.552  0.0971 -1.7991  0.7146
  114MOL   H22043386   6.794   3.086   3.494  1.6680  1.0429 -1.1575
  114MOL   H22143387   6.759   3.162   3.761 -0.5019 -0.2819 -1.5017
  114MOL   H22243388   6.914   3.103   3.699 -0.0448 -0.5393 -1.0241
  114MOL   H22343389   7.006   3.285   3.693 -0.4990 -1.5842  0.6421
  114MOL   H22443390   6.935   3.298   3.918  0.9209  0.3502 -0.4765
  114MOL   H22543391   6.780   3.351   3.887  1.0919 -0.0582  2.8450
  114MOL   H22643392   7.017   3.530   3.856  0.1349 -0.3698  1.5980
  114MOL   H22743393   6.852   3.577   3.798 -1.9482 -0.0465  1.5303
  114MOL   H22843394   6.938   3.464   3.564 -0.2448 -0.9033 -1.7226
  114MOL   H22943395   6.763   3.441   3.598 -0.5632 -1.6824  3.5383
  114MOL   C23043396   6.874   3.570   4.014  0.0557 -0.6407 -0.2827
  114MOL   C23143397   6.744   3.535   4.073  0.4702  0.2483 -0.1299
  114MOL   C23243398   6.690   3.657   4.151 -0.1921 -0.7014  0.7482
  114MOL   C23343399   6.736   3.770   4.056  0.2464  0.1015  0.0287
  114MOL   C23443400   6.745   3.909   4.121  0.4868  0.5695 -0.1634
  114MOL   C23543401   6.609   3.960   4.177  0.0338 -0.4291 -0.0524
  114MOL   C23643402   6.872   3.721   4.005 -0.3917 -0.0719 -0.0212
  114MOL   H23743403   6.951   3.531   4.080 -0.9905 -1.0849  0.7029
  114MOL   H23843404   6.667   3.512   4.000  0.0402  0.2728  0.3119
  114MOL   H23943405   6.753   3.449   4.140 -1.1560 -0.1341 -0.3865
  114MOL   H24043406   6.724   3.665   4.254 -1.6050  1.4335  1.0664
  114MOL   H24143407   6.582   3.665   4.153 -0.1847 -0.0097 -0.9378
  114MOL   H24243408   6.677   3.774   3.965 -0.4919 -0.0362  0.4983
  114MOL   H24343409   6.778   3.968   4.035  0.3914  2.0234  0.7779
  114MOL   H24443410   6.826   3.918   4.193  1.0474 -0.6454 -0.6395
  114MOL   H24543411   6.522   3.910   4.133  0.1881 -1.0631  0.3479
  114MOL   H24643412   6.609   3.949   4.286 -0.0984 -2.0700 -0.2075
  114MOL   H24743413   6.950   3.758   4.072 -1.2222  2.0676 -0.2021
  114MOL   H24843414   6.890   3.761   3.906 -1.4105  0.5398  0.0403
  114MOL   C24943415   6.578   4.109   4.153 -0.5530 -0.0676 -0.6047
  114MOL   C25043416   6.585   4.163   4.005 -0.0818 -1.1882  0.5657
  114MOL   C25143417   6.505   4.296   4.019 -0.1575  0.6968 -0.0321
  114MOL   C25243418   6.423   4.301   4.152  0.4308 -0.1927  0.2027
  114MOL   C25343419   6.462   4.421   4.242 -0.2978  0.1227  0.6641
  114MOL   C25443420   6.370   4.438   4.368  0.7888 -0.1993 -0.2635
  114MOL   C25543421   6.451   4.157   4.210  0.2594  0.1775  1.1127
  114MOL   H25643422   6.643   4.177   4.208 -1.1968  1.1992 -1.3802
  114MOL   H25743423   6.687   4.181   3.971 -0.4733  2.3385  1.0298
  114MOL   H25843424   6.533   4.099   3.934  0.3189 -0.8156 -0.0703
  114MOL   H25943425   6.432   4.313   3.940 -1.3042 -1.7185  0.4433
  114MOL   H26043426   6.571   4.381   4.008  0.0369  0.5589  0.0748
  114MOL   H26143427   6.317   4.306   4.131  0.5030  0.6841  0.0417
  114MOL   H26243428   6.466   4.514   4.186 -1.1709 -1.0618 -1.4504
  114MOL   H26343429   6.563   4.391   4.273 -1.2035 -2.7239  1.0646
  114MOL   H26443430   6.383   4.349   4.430 -1.0861 -2.9647 -3.6669
  114MOL   H26543431   6.270   4.468   4.337  1.0605  2.7030  1.5063
  114MOL   H26643432   6.372   4.093   4.171 -1.3464  2.7089  0.1603
  114MOL   H26743433   6.455   4.158   4.319  1.0715  0.1810  1.0869
  114MOL   C26843434   6.404   4.565   4.447  0.1764 -0.1131 -0.4845
  114MOL   C26943435   6.556   4.575   4.490  0.4106 -0.9043 -0.2874
  114MOL   C27043436   6.550   4.679   4.595 -0.6961 -0.1684 -0.5170
  114MOL   C27143437   6.412   4.679   4.666  0.2732  0.1058 -0.6725
  114MOL   C27243438   6.428   4.628   4.807 -0.0634  0.0217  0.0813
  114MOL   C27343439   6.291   4.628   4.881  0.1499 -0.0543 -0.5616
  114MOL   C27443440   6.324   4.588   4.576 -0.3761 -0.3822 -0.4429
  114MOL   H27543441   6.379   4.645   4.377 -0.9489  0.1328  0.1769
  114MOL   H27643442   6.588   4.474   4.518 -0.4730 -0.6982  1.4834
  114MOL   H27743443   6.616   4.609   4.405  0.7884 -1.6870 -0.3432
  114MOL   H27843444   6.640   4.670   4.656 -0.2032 -1.2624 -1.3918
  114MOL   H27943445   6.568   4.777   4.550 -1.4000 -0.7295 -2.0598
  114MOL   H28043446   6.369   4.780   4.662 -0.1702 -0.1023 -1.3447
  114MOL   H28143447   6.486   4.709   4.850 -0.9772  2.1134 -2.4183
  114MOL   H28243448   6.472   4.529   4.812 -3.2413 -1.4244  0.9243
  114MOL   H28343449   6.242   4.723   4.864 -0.6584 -0.5006 -0.7170
  114MOL   H28443450   6.217   4.556   4.848 -0.6853  0.0333  1.0438
  114MOL   H28543451   6.295   4.498   4.630  0.4834  0.0288  0.7309
  114MOL   H28643452   6.230   4.642   4.570 -0.0201  1.2840  5.5757
  114MOL   C28743453   6.319   4.612   5.036  0.9601 -0.0722  0.4252
  114MOL   C28843454   6.196   4.642   5.122 -0.2113 -0.3075  0.2512
  114MOL   C28943455   6.175   4.524   5.218  0.9514 -0.2188 -0.1977
  114MOL   C29043456   6.304   4.446   5.222 -0.2628 -0.1496 -0.3305
  114MOL   C29143457   6.283   4.294   5.248  0.1237 -0.6210 -0.1604
  114MOL   C29243458   6.243   4.277   5.393  0.2114  0.4374 -0.2865
  114MOL   C29343459   6.358   4.473   5.082 -0.3722  0.8528  0.3808
  114MOL   H29443460   6.399   4.681   5.063  1.1599  0.1277 -0.6545
  114MOL   H29543461   6.220   4.738   5.168 -2.1417  0.7033 -0.7938
  114MOL   H29643462   6.104   4.659   5.065  0.2408 -2.4331 -1.1787
  114MOL   H29743463   6.091   4.460   5.189  1.2707 -1.1422  0.8939
  114MOL   H29843464   6.159   4.565   5.318  2.1226  0.2525 -0.1999
  114MOL   H29943465   6.383   4.497   5.278 -1.4039 -0.0312  1.2169
  114MOL   H30043466   6.364   4.229   5.217  0.7679  0.5400 -0.9122
  114MOL   H30143467   6.198   4.245   5.199 -0.1823 -1.0622  0.7837
  114MOL   H30243468   6.162   4.347   5.414  0.6032  0.4458  1.2560
  114MOL   H30343469   6.316   4.307   5.469  0.2040 -0.6369  0.1558
  114MOL   H30443470   6.314   4.410   5.005  2.6025 -0.7588 -0.0578
  114MOL   H30543471   6.465   4.451   5.076 -0.3324  1.2749 -0.5355
  114MOL   C30643472   6.200   4.131   5.434 -0.4618  0.2849 -0.2180
  114MOL   C30743473   6.172   4.120   5.588  0.4334  0.5553 -0.9854
  114MOL   C30843474   6.043   4.043   5.613 -0.6149  0.0065 -0.6267
  114MOL   C30943475   6.010   3.981   5.473 -0.1350  0.0370  0.0407
  114MOL   C31043476   5.854   3.962   5.452  0.5852  0.7103 -0.3985
  114MOL   C31143477   5.815   3.855   5.347 -0.2137 -0.5711  0.2200
  114MOL   C31243478   6.068   4.091   5.369  0.2738  0.3575  1.3935
  114MOL   H31343479   6.271   4.053   5.405 -0.7053  0.3702 -1.0420
  114MOL   H31443480   6.256   4.085   5.647  0.2107  0.6430 -0.6158
  114MOL   H31543481   6.152   4.222   5.622 -1.6834 -0.0141 -0.4889
  114MOL   H31643482   6.059   3.968   5.690  2.3813  0.6943 -0.4745
  114MOL   H31743483   5.968   4.113   5.649 -1.7473 -0.8371 -1.3353
  114MOL   H31843484   6.063   3.887   5.457 -0.9123 -0.3944 -0.0146
  114MOL   H31943485   5.816   3.943   5.553  0.1221 -0.8306 -0.8420
  114MOL   H32043486   5.809   4.059   5.432  1.8565  1.6952  1.4126
  114MOL   H32143487   5.889   3.776   5.338  0.6683  0.3608 -0.7570
  114MOL   H32243488   5.803   3.886   5.243 -1.7253  2.1320  1.1556
  114MOL   H32343489   6.002   4.178   5.355 -0.6405 -0.7088 -1.3865
  114MOL   H32443490   6.093   4.053   5.270  0.0147 -0.2561  1.5602
  114MOL   C32543491   5.670   3.799   5.372  0.3206 -0.3319  0.1822
  114MOL   C32643492   5.615   3.718   5.261 -0.1688 -0.0936  0.5631
  114MOL   C32743493   5.516   3.622   5.314  0.3405  0.5542  0.0338
  114MOL   C32843494   5.599   3.570   5.438  0.3873  0.4031  0.1013
  114MOL   C32943495   5.506   3.497   5.540  0.3906 -0.5224 -0.2110
  114MOL   C33043496   5.581   3.433   5.652  0.8780  0.0732  0.3440
  114MOL   C33143497   5.665   3.711   5.489  1.2745  0.4530  0.1920
  114MOL   H33243498   5.598   3.879   5.391 -0.9197 -1.9282  2.3520
  114MOL   H33343499   5.698   3.661   5.221 -0.0126  0.7569 -0.3441
  114MOL   H33443500   5.583   3.776   5.175 -0.8032 -1.0195  0.1559
  114MOL   H33543501   5.432   3.680   5.352 -1.1511 -1.6600  0.2771
  114MOL   H33643502   5.495   3.551   5.234 -3.3581  0.8707  0.6228
  114MOL   H33743503   5.682   3.504   5.417 -0.2930 -0.9257  1.5211
  114MOL   H33843504   5.435   3.569   5.582  1.5706  0.0704  0.8315
  114MOL   H33943505   5.455   3.420   5.482 -1.5490 -1.0931  2.1575
  114MOL   H34043506   5.658   3.368   5.611 -1.6704 -2.1408 -1.0702
  114MOL   H34143507   5.638   3.503   5.713  2.7960 -2.1851  1.2566
  114MOL   H34243508   5.764   3.695   5.530  2.2293 -1.2105 -2.6598
  114MOL   H34343509   5.605   3.751   5.572 -0.3395 -2.1091  0.3398
  114MOL   C34443510   5.496   3.351   5.744  0.0298  0.0411  0.1512
  114MOL   C34543511   5.408   3.440   5.835  0.0775 -0.1503 -0.3410
  114MOL   C34643512   5.415   3.375   5.975 -0.0513  0.1202 -0.6362
  114MOL   C34743513   5.555   3.311   5.988  0.6704  0.3296 -0.3072
  114MOL   C34843514   5.548   3.197   6.090 -1.2239 -0.2270 -0.0853
  114MOL   C34943515   5.684   3.167   6.153 -0.2659  1.1764  0.0259
  114MOL   C35043516   5.582   3.266   5.840 -0.3383  0.0094  0.1986
  114MOL   H35143517   5.420   3.296   5.688 -0.7230  0.3458  0.8547
  114MOL   H35243518   5.305   3.446   5.799 -0.3270  0.3109  0.8572
  114MOL   H35343519   5.452   3.539   5.840  1.6462 -0.8962  0.8553
  114MOL   H35443520   5.415   3.455   6.050  2.2262  1.6682 -2.2228
  114MOL   H35543521   5.334   3.305   5.995  0.7935 -0.4605  0.8716
  114MOL   H35643522   5.618   3.395   6.018  1.0079 -0.8711  2.4337
  114MOL   H35743523   5.482   3.219   6.173 -0.6197 -0.3835  0.4352
  114MOL   H35843524   5.506   3.108   6.043 -1.7597  0.0268 -0.0915
  114MOL   H35943525   5.676   3.091   6.231 -0.7694 -0.2495 -1.3717
  114MOL   H36043526   5.709   3.254   6.213 -0.9849 -0.2702  2.4832
  114MOL   H36143527   5.687   3.282   5.818  0.2320 -2.2621  1.1297
  114MOL   H36243528   5.552   3.165   5.811  0.1302  0.6251 -2.5056
  114MOL   C36343529   5.806   3.137   6.064  0.3349 -0.3335 -0.3474
  114MOL   C36443530   5.800   3.000   5.985  0.1708  0.1752 -0.4494
  114MOL   C36543531   5.942   2.943   5.989  0.0383  1.1269 -0.0605
  114MOL   C36643532   6.029   3.051   6.050  0.4430 -0.6673  0.6290
  114MOL   C36743533   6.158   2.998   6.122  0.1178  0.3844  0.6403
  114MOL   C36843534   6.255   3.109   6.175 -0.8562 -0.0672  0.1135
  114MOL   C36943535   5.938   3.128   6.145  0.9315 -0.0874 -0.3853
  114MOL   H37043536   5.824   3.211   5.986  0.5092  2.0243  1.8499
  114MOL   H37143537   5.727   2.935   6.032 -0.2277  1.0452  0.1654
  114MOL   H37243538   5.789   3.018   5.878  2.0188 -0.9574 -0.8568
  114MOL   H37343539   5.952   2.849   6.043  1.0181  1.3601  0.1772
  114MOL   H37443540   5.993   2.915   5.896 -0.7572  1.5579 -0.6265
  114MOL   H37543541   6.059   3.121   5.973 -1.9677  0.2023  0.4422
  114MOL   H37643542   6.116   2.935   6.201 -0.5178 -0.5584 -0.4307
  114MOL   H37743543   6.213   2.936   6.052 -2.3682  1.3168 -2.2299
  114MOL   H37843544   6.222   3.170   6.260  0.2232  0.2676  0.2927
  114MOL   H37943545   6.284   3.175   6.093 -1.7585 -3.3999 -3.0094
  114MOL   H38043546   5.908   3.070   6.232 -1.4918  0.3342 -0.8967
  114MOL   H38143547   5.965   3.228   6.180  2.2588 -1.3010  2.2309
  114MOL   H38243548   6.351   3.068   6.205 -0.2771 -0.5307 -2.2828
  115MOL     C143549   6.290   5.407   5.246  0.3268 -0.8228 -0.1803
  115MOL     C243550   6.218   5.538   5.234 -0.1311  0.9133  0.5082
  115MOL     C343551   6.310   5.634   5.153 -0.9070  0.3101  0.5311
  115MOL     C443552   6.441   5.556   5.125  0.1060  0.2983 -0.3728
  115MOL     C543553   6.573   5.640   5.129 -0.0614  0.1125 -0.3780
  115MOL     C643554   6.701   5.552   5.111  0.2527 -0.1123  0.3270
  115MOL     C743555   6.436   5.455   5.241 -0.1979 -0.2667 -0.3462
  115MOL     H843556   6.266   5.353   5.337 -0.4368  1.2056  0.8526
  115MOL     H943557   6.186   5.584   5.327 -1.6913 -3.3013  2.1979
  115MOL    H1043558   6.131   5.513   5.174  0.0851 -0.7083  0.8403
  115MOL    H1143559   6.259   5.659   5.060  0.5136  1.3599  0.0352
  115MOL    H1243560   6.318   5.721   5.218 -0.6645  0.0788  0.8137
  115MOL    H1343561   6.444   5.514   5.024 -2.0189  1.9975 -1.1652
  115MOL    H1443562   6.564   5.699   5.038  3.7367  0.2927 -0.7432
  115MOL    H1543563   6.583   5.696   5.223  1.2019 -2.8460  1.3113
  115MOL    H1643564   6.708   5.489   5.200 -0.0674 -1.1878 -0.4018
  115MOL    H1743565   6.701   5.489   5.022 -0.7216 -1.5942  1.3403
  115MOL    H1843566   6.498   5.367   5.224  2.5206  1.0665  2.1849
  115MOL    H1943567   6.461   5.500   5.337  1.1968 -2.8416  0.5512
  115MOL    H2043568   6.274   5.340   5.161 -0.2958 -0.1810 -0.5683
  115MOL    C2143569   6.821   5.648   5.104  0.0870 -0.0702  0.0121
  115MOL    C2243570   6.850   5.733   5.229  0.4337  0.5129  0.4453
  115MOL    C2343571   6.996   5.779   5.223  0.5460 -0.2155 -0.0592
  115MOL    C2443572   7.060   5.697   5.105  0.4596 -0.5881  0.2910
  115MOL    C2543573   7.196   5.642   5.141 -0.0586  0.0269  0.0481
  115MOL    C2643574   7.268   5.565   5.032  0.2281  0.6837 -0.2707
  115MOL    C2743575   6.960   5.578   5.082  0.4545 -0.7563  0.0290
  115MOL    H2843576   6.810   5.719   5.022 -1.8648 -1.1026 -0.6533
  115MOL    H2943577   6.778   5.815   5.226  0.5951  0.6651  0.6707
  115MOL    H3043578   6.828   5.674   5.318 -0.5622  0.0917 -0.0771
  115MOL    H3143579   6.998   5.883   5.191  1.7136 -0.3516 -0.4323
  115MOL    H3243580   7.047   5.786   5.319  1.2243 -1.5270 -0.3175
  115MOL    H3343581   7.069   5.770   5.024 -0.8073 -0.8961 -0.1363
  115MOL    H3443582   7.189   5.594   5.239  1.9744  2.2225  1.3047
  115MOL    H3543583   7.253   5.731   5.165 -0.6983  0.1988  0.9380
  115MOL    H3643584   7.261   5.617   4.936 -1.6378 -0.8103 -0.9568
  115MOL    H3743585   7.212   5.475   5.007 -1.1854  1.0562  1.4464
  115MOL    H3843586   6.972   5.560   4.975 -2.3902 -0.3901 -0.4014
  115MOL    H3943587   6.991   5.499   5.150  1.0590 -0.1878  0.4125
  115MOL    C4043588   7.410   5.518   5.074  0.0052 -1.4674 -0.1220
  115MOL    C4143589   7.456   5.394   5.000  0.3854  0.2655 -0.1201
  115MOL    C4243590   7.609   5.386   5.016 -0.5148 -0.8041 -0.7345
  115MOL    C4343591   0.002   5.540   5.022 -0.0263  0.5990 -0.4274
  115MOL    C4443592   0.116   5.567   5.128 -0.1780 -0.0622 -0.1395
  115MOL    C4543593   0.197   5.692   5.087  0.0860  0.0936 -0.4005
  115MOL    C4643594   7.520   5.623   5.057 -0.4967  0.5892  0.1583
  115MOL    H4743595   7.411   5.496   5.181  3.6457 -0.7619  0.0685
  115MOL    H4843596   7.452   5.398   4.892  0.8621  2.1279 -0.0793
  115MOL    H4943597   7.410   5.300   5.031 -1.1195  0.9434 -0.2894
  115MOL    H5043598   7.625   5.351   5.118 -3.8106  0.0321  0.1109
  115MOL    H5143599   0.009   5.325   4.939  0.7902 -0.5183 -0.1859
  115MOL    H5243600   0.044   5.566   4.925 -2.2832 -1.3400 -1.9693
  115MOL    H5343601   0.074   5.570   5.229  0.0205 -0.7273 -0.0323
  115MOL    H5443602   0.189   5.486   5.120  1.6547  1.7204 -1.8806
  115MOL    H5543603   0.126   5.772   5.065  0.2957  0.1282 -0.9715
  115MOL    H5643604   0.258   5.672   4.999 -0.1128  2.3116 -1.0746
  115MOL    H5743605   7.537   5.679   5.149 -0.2229  1.5215 -0.4567
  115MOL    H5843606   7.495   5.694   4.979 -0.8917  0.1580 -0.1048
  115MOL    C5943607   0.294   5.738   5.206  0.4331  0.2959  0.5776
  115MOL    C6043608   0.420   5.833   5.179  0.3052 -0.2578  0.6409
  115MOL    C6143609   0.381   5.967   5.250 -0.7439  0.8457 -0.1933
  115MOL    C6243610   0.242   5.963   5.318  0.4494 -0.4211  0.2646
  115MOL    C6343611   0.237   6.017   5.468  0.0986 -0.1866 -0.1029
  115MOL    C6443612   0.095   6.009   5.533 -0.5837 -0.1087  0.3933
  115MOL    C6543613   0.210   5.805   5.314  0.3949  0.5624 -0.3891
  115MOL    H6643614   0.334   5.645   5.248  1.1729  0.5254  0.3826
  115MOL    H6743615   0.506   5.791   5.231 -0.6295 -2.4966  0.4351
  115MOL    H6843616   0.434   5.850   5.073 -2.5985  1.2299  0.4375
  115MOL    H6943617   0.459   5.996   5.320 -1.2786 -0.9776  1.2195
  115MOL    H7043618   0.377   6.046   5.176  1.3854 -0.8243 -2.1707
  115MOL    H7143619   0.171   6.026   5.265  1.5127 -0.0542 -0.7348
  115MOL    H7243620   0.257   6.123   5.454  3.0470 -0.8449 -1.2836
  115MOL    H7343621   0.325   5.982   5.523  1.6831  0.3595 -2.2316
  115MOL    H7443622   0.033   6.063   5.462 -2.6648 -0.7938  1.6747
  115MOL    H7543623   0.053   5.908   5.532  0.2984 -0.5109 -2.1289
  115MOL    H7643624   0.240   5.750   5.403  1.8389 -0.6257 -1.5898
  115MOL    H7743625   0.104   5.777   5.313  0.5953 -0.1954 -0.2926
  115MOL    C7843626   0.084   6.071   5.670  0.8686  0.1784 -0.7312
  115MOL    C7943627   0.079   6.221   5.677  0.3525  0.7478  0.0977
  115MOL    C8043628   0.006   6.253   5.814 -0.4833  0.4557 -0.0492
  115MOL    C8143629   7.588   6.117   5.864  0.4390 -0.4945 -0.3896
  115MOL    C8243630   7.441   6.142   5.915  0.1554  0.8662 -0.6493
  115MOL    C8343631   7.398   6.026   6.004  0.5572  0.0029 -0.3586
  115MOL    C8443632   7.595   6.021   5.737  0.2814  0.3742 -0.3362
  115MOL    H8543633   0.160   6.035   5.738  0.1473  0.3145  0.1531
  115MOL    H8643634   0.172   6.278   5.675  1.6097 -1.2693 -0.0412
  115MOL    H8743635   0.019   6.262   5.595  0.2915  2.6754  1.0639
  115MOL    H8843636   0.072   6.302   5.885 -1.6774  1.0134  0.6937
  115MOL    H8943637   7.571   6.321   5.792 -1.0460  0.1248  0.9768
  115MOL    H9043638   7.636   6.069   5.949 -0.6936  2.7604  2.1839
  115MOL    H9143639   7.381   6.148   5.824  1.4201 -1.2849 -1.6784
  115MOL    H9243640   7.441   6.234   5.974  1.5940  0.0935  0.6068
  115MOL    H9343641   7.459   6.009   6.093  0.0449  0.1734  0.0260
  115MOL    H9443642   7.407   5.930   5.954 -1.8102  0.7454 -2.2737
  115MOL    H9543643   7.511   6.038   5.670  2.3628  1.6243 -2.7287
  115MOL    H9643644   7.599   5.915   5.761 -1.1633  0.2357 -0.6537
  115MOL    C9743645   7.244   6.040   6.022  0.7739 -0.1956 -0.1354
  115MOL    C9843646   7.192   5.970   6.148 -0.2531 -0.2987 -0.3158
  115MOL    C9943647   7.038   5.947   6.113 -0.1269 -0.8462 -0.0677
  115MOL   C10043648   7.015   5.985   5.966  0.5728  0.3039 -0.3456
  115MOL   C10143649   6.912   5.881   5.913  0.8780 -0.6239  0.0666
  115MOL   C10243650   6.920   5.882   5.759  0.5352 -1.1256  0.0440
  115MOL   C10343651   7.159   5.980   5.908  0.3818  0.0533 -0.2577
  115MOL   H10443652   7.216   6.145   6.028  0.7797 -0.1367 -1.0549
  115MOL   H10543653   7.246   5.875   6.155 -0.5820 -0.3864  1.3337
  115MOL   H10643654   7.214   6.042   6.226 -1.4663 -0.7704  0.4773
  115MOL   H10743655   7.006   5.844   6.129  1.6771 -1.1096  2.0997
  115MOL   H10843656   6.976   6.013   6.174  1.7627  0.3818  0.5734
  115MOL   H10943657   6.980   6.087   5.954 -0.0004  0.5795  3.1669
  115MOL   H11043658   6.932   5.777   5.937  1.0613 -0.6216 -0.0757
  115MOL   H11143659   6.808   5.909   5.931  1.0743 -0.2065  0.5669
  115MOL   H11243660   7.024   5.863   5.734  0.6054 -1.2319  0.4197
  115MOL   H11343661   6.866   5.795   5.721 -0.7626 -0.4592  0.3531
  115MOL   H11443662   7.204   5.883   5.887 -0.1660 -0.2430 -0.0619
  115MOL   H11543663   7.183   6.041   5.821  2.4291  2.7791  2.1219
  115MOL   C11643664   6.865   5.997   5.676 -0.3357  0.1182  0.4167
  115MOL   C11743665   6.910   6.002   5.528  0.6454 -0.5501  0.2887
  115MOL   C11843666   6.789   6.055   5.445  0.1729  0.1809  0.3141
  115MOL   C11943667   6.686   6.097   5.554  0.8362  0.4928  0.9695
  115MOL   C12043668   6.535   6.098   5.501 -0.4018 -0.3203  0.0595
  115MOL   C12143669   6.495   6.200   5.391 -0.0719 -0.2021 -0.0411
  115MOL   C12243670   6.717   6.009   5.672  0.0329 -0.1722 -0.3049
  115MOL   H12343671   6.910   6.091   5.710 -1.2552  0.0545  1.8329
  115MOL   H12443672   6.943   5.900   5.509 -1.2755 -0.9425 -0.9921
  115MOL   H12543673   6.991   6.071   5.502 -2.0695  3.8395  2.8501
  115MOL   H12643674   6.760   5.975   5.377 -0.4548 -0.3012  1.1531
  115MOL   H12743675   6.811   6.140   5.379 -0.0517 -0.5871 -0.7686
  115MOL   H12843676   6.716   6.196   5.589  1.6761  0.1665  1.1833
  115MOL   H12943677   6.471   6.123   5.586  0.6102 -0.4001  0.8497
  115MOL   H13043678   6.499   6.000   5.470 -2.2865  0.4590 -0.2867
  115MOL   H13143679   6.530   6.301   5.415 -0.3301  0.0309 -0.6391
  115MOL   H13243680   6.386   6.208   5.386  0.1283  3.2909 -0.5625
  115MOL   H13343681   6.685   6.052   5.767  1.9593 -1.8199  1.1477
  115MOL   H13443682   6.669   5.915   5.645 -1.5033  1.4724 -3.4606
  115MOL   C13543683   6.540   6.163   5.255  0.3941  0.2454  0.4726
  115MOL   C13643684   6.491   6.029   5.202 -0.0008 -0.2602  0.4678
  115MOL   C13743685   6.525   6.036   5.050  0.1745 -0.5073 -0.2929
  115MOL   C13843686   6.491   6.184   5.016 -0.0491  0.0026  0.1389
  115MOL   C13943687   6.588   6.239   4.912 -0.1961  0.0211  1.2477
  115MOL   C14043688   6.538   6.366   4.846 -0.3873 -0.0860  0.1655
  115MOL   C14143689   6.488   6.264   5.149 -0.1739  0.3946 -0.1660
  115MOL   H14243690   6.648   6.177   5.253  0.5575 -0.6577  2.4174
  115MOL   H14343691   6.548   5.946   5.243 -0.2346  0.4509  2.2803
  115MOL   H14443692   6.386   6.014   5.226 -0.3373  1.2744  0.0399
  115MOL   H14543693   6.628   6.002   5.045 -0.0606 -1.6294  1.7054
  115MOL   H14643694   6.468   5.966   4.989 -0.4992  0.7157 -1.1064
  115MOL   H14743695   6.388   6.198   4.982  0.1748 -0.0756 -0.5818
  115MOL   H14843696   6.585   6.167   4.830  0.6813  1.6759 -0.2694
  115MOL   H14943697   6.693   6.242   4.942  0.3458  0.5098 -0.6602
  115MOL   H15043698   6.444   6.337   4.798 -0.2389 -0.0469 -0.1458
  115MOL   H15143699   6.517   6.449   4.913  0.1244  1.1217 -1.1496
  115MOL   H15243700   6.383   6.282   5.174 -0.1675  0.5647 -0.2586
  115MOL   H15343701   6.536   6.362   5.148  0.7294  0.0383  2.6669
  115MOL   C15443702   6.643   6.421   4.742  0.1019 -0.3934 -0.8073
  115MOL   C15543703   6.762   6.500   4.799 -0.4279  0.1356  0.3558
  115MOL   C15643704   6.824   6.597   4.699 -0.2340 -0.3398 -0.1040
  115MOL   C15743705   6.707   6.614   4.592 -0.5520 -0.7616  0.6933
  115MOL   C15843706   6.669   6.759   4.568 -0.9806  0.5533  0.0112
  115MOL   C15943707   6.624   6.786   4.423 -0.2863 -0.2755 -0.2928
  115MOL   C16043708   6.589   6.533   4.651 -0.2356 -0.3269  0.3085
  115MOL   H16143709   6.680   6.340   4.680  0.1803 -2.1008  1.4267
  115MOL   H16243710   6.712   6.558   4.877 -1.1097 -0.4580  0.3776
  115MOL   H16343711   6.832   6.440   4.857  1.7905  1.8814 -0.4746
  115MOL   H16443712   6.857   6.692   4.742  1.8162 -0.8629 -0.4833
  115MOL   H16543713   6.910   6.555   4.647  1.3494  1.1962  1.2138
  115MOL   H16643714   6.732   6.574   4.494 -0.9145  1.0185 -0.1354
  115MOL   H16743715   6.747   6.826   4.605 -0.6556  0.7967 -1.1262
  115MOL   H16843716   6.593   6.793   4.638 -0.9558 -0.9538  0.7907
  115MOL   H16943717   6.688   6.734   4.353 -0.6481  0.8317 -1.4816
  115MOL   H17043718   6.522   6.752   4.401 -0.5918  0.7165 -0.4579
  115MOL   H17143719   6.536   6.492   4.565  2.5017  0.3473 -1.7736
  115MOL   H17243720   6.515   6.592   4.705 -0.4811 -0.0088 -0.3713
  115MOL   C17343721   6.654   6.935   4.384 -0.2220 -0.0397  0.3133
  115MOL   C17443722   6.628   6.964   4.238  0.4034  0.2181 -0.0064
  115MOL   C17543723   6.592   7.115   4.226  0.3729 -0.8825 -0.4351
  115MOL   C17643724   6.575   7.162   4.376  0.0088  0.9363 -0.5981
  115MOL   C17743725   6.451   7.255   4.393 -0.9014 -0.4206 -0.1824
  115MOL   C17843726   6.484   7.393   4.343  0.6803  1.1222  0.3979
  115MOL   C17943727   6.562   7.027   4.461 -0.8051 -0.0747 -0.0077
  115MOL   H18043728   6.753   6.972   4.413  0.1720 -0.6974 -0.1924
  115MOL   H18143729   6.553   6.894   4.203 -0.4562 -0.8980  3.7571
  115MOL   H18243730   6.720   6.951   4.181  0.7379  1.2543  0.2815
  115MOL   H18343731   6.654   7.184   4.170  1.1377 -0.9498  0.3189
  115MOL   H18443732   6.497   7.116   4.173  0.3161 -1.5242 -0.3434
  115MOL   H18543733   6.666   7.213   4.407 -0.5802  1.7864 -0.2516
  115MOL   H18643734   6.440   7.252   4.501  1.3334 -1.2456  0.0448
  115MOL   H18743735   6.361   7.206   4.356 -0.4687 -0.1090 -1.6623
  115MOL   H18843736   6.531   7.386   4.245 -0.1635  0.9368 -0.0026
  115MOL   H18943737   6.552   7.443   4.411  0.8504  2.0139 -0.4089
  115MOL   H19043738   6.458   6.996   4.470 -0.0859 -2.4640  0.5284
  115MOL   H19143739   6.601   7.040   4.562 -1.3491 -0.8864  0.3145
  115MOL   C19243740   6.357   7.481   4.339 -0.3078 -0.9101 -1.1280
  115MOL   C19343741   6.379   7.622   4.282  0.1577 -1.0772  0.4012
  115MOL   C19443742   6.246   0.046   4.321 -0.2573  0.8451 -0.5202
  115MOL   C19543743   6.211   7.639   4.462  0.1390 -0.3514 -0.6667
  115MOL   C19643744   6.052   7.628   4.498 -0.5271 -0.1048 -0.0577
  115MOL   C19743745   6.013   7.631   4.650  0.2116 -0.0473  0.5047
  115MOL   C19843746   6.286   7.505   4.473 -0.2300 -0.3668 -0.7264
  115MOL   H19943747   6.289   7.426   4.273 -1.6098  1.5806 -1.9345
  115MOL   H20043748   6.466   0.023   4.327 -0.4285  2.5661 -2.1105
  115MOL   H20143749   6.382   7.618   4.173 -1.5932 -1.2080  0.3447
  115MOL   H20243750   6.167   0.013   4.254 -1.1474 -2.3111  1.9122
  115MOL   H20343751   6.253   0.154   4.321 -0.8910  0.8936 -2.5331
  115MOL   H20443752   6.253   0.063   4.533 -0.0741 -1.2568  0.3647
  115MOL   H20543753   6.022   7.533   4.452 -0.0431 -0.3749  0.1808
  115MOL   H20643754   5.998   0.062   4.449  3.1405  1.9975 -0.7742
  115MOL   H20743755   6.065   0.068   4.694 -1.0546  2.9684 -3.4807
  115MOL   H20843756   6.063   7.540   4.683 -0.3963 -1.3595 -2.0167
  115MOL   H20943757   6.235   7.412   4.497 -3.2237  1.0474 -1.3206
  115MOL   H21043758   6.352   7.512   4.559 -0.2756  0.6585 -0.7641
  115MOL   C21143759   5.863   7.623   4.670  0.7396  0.3260 -0.8467
  115MOL   C21243760   5.812   7.610   4.820 -0.1251  0.7043  0.0602
  115MOL   C21343761   5.689   7.517   4.814  0.6231 -0.5724  0.2732
  115MOL   C21443762   5.657   7.487   4.672  0.3397  0.2246  0.0830
  115MOL   C21543763   5.585   7.353   4.648 -0.2742 -0.3115  0.2738
  115MOL   C21643764   5.549   7.332   4.493 -0.5398  0.3631  0.3787
  115MOL   C21743765   5.789   7.513   4.592  0.1070 -0.0842  0.1434
  115MOL   H21843766   5.819   0.067   4.631  0.2554 -0.0048 -1.0683
  115MOL   H21943767   5.888   7.581   4.891  0.1564  0.0751 -0.4931
  115MOL   H22043768   5.780   0.064   4.844  0.1693  1.1724 -1.4421
  115MOL   H22143769   5.715   7.426   4.869 -1.4793 -1.3374  0.0610
  115MOL   H22243770   5.607   7.557   4.874 -0.4998 -0.3655 -1.3809
  115MOL   H22343771   5.593   7.567   4.634  1.4586  0.7359 -0.7616
  115MOL   H22443772   5.493   7.359   4.706 -1.1797  0.8173 -1.2489
  115MOL   H22543773   5.636   7.268   4.693  2.0403 -0.0433 -1.6904
  115MOL   H22643774   5.472   7.406   4.472  0.1935  0.5555 -1.7314
  115MOL   H22743775   5.644   7.351   4.442 -1.3501  2.9638 -0.2705
  115MOL   H22843776   5.780   7.546   4.489  1.2089  0.5918  0.2474
  115MOL   H22943777   5.839   7.417   4.586 -0.3759 -0.3253 -0.0200
  115MOL   C23043778   5.490   7.190   4.474 -0.1915 -0.3648  0.2184
  115MOL   C23143779   5.592   7.076   4.478  0.5906  0.5859  0.2538
  115MOL   C23243780   5.586   7.008   4.334  0.6866  0.6519  0.3135
  115MOL   C23343781   5.534   7.123   4.249 -0.6519 -0.5727 -0.1897
  115MOL   C23443782   5.493   7.073   4.108 -0.3117  0.2261  0.4619
  115MOL   C23543783   5.448   7.195   4.020  0.2285  0.0195 -0.3478
  115MOL   C23643784   5.424   7.187   4.333 -0.7302  0.0213 -0.0034
  115MOL   H23743785   5.417   7.178   4.555  2.0244 -1.8089  2.0699
  115MOL   H23843786   5.696   7.104   4.491  1.1914 -2.2340  1.8061
  115MOL   H23943787   5.566   7.000   4.551  0.8142  1.7372  1.5506
  115MOL   H24043788   5.528   6.916   4.331 -0.3326  1.2429  1.3803
  115MOL   H24143789   5.680   6.971   4.293  0.5282  0.3991  0.1745
  115MOL   H24243790   5.623   7.185   4.247  1.2321 -2.9633  3.7501
  115MOL   H24343791   5.412   7.001   4.112  1.5950 -2.0183 -0.1023
  115MOL   H24443792   5.574   7.027   4.051  0.1748  0.8388  0.6404
  115MOL   H24543793   5.340   7.202   4.033  0.3788  0.5947  0.6700
  115MOL   H24643794   5.484   7.289   4.063 -1.8726  1.7861 -2.3294
  115MOL   H24743795   5.331   7.130   4.333 -0.9833  0.4283  0.6526
  115MOL   H24843796   5.396   7.287   4.298  2.8935  1.0070 -0.2523
  115MOL   C24943797   5.468   7.191   3.868  0.2042  0.2999 -0.3520
  115MOL   C25043798   5.412   7.314   3.800 -0.1631  0.3961  0.4233
  115MOL   C25143799   5.476   7.323   3.660 -0.2391 -0.8615 -0.0152
  115MOL   C25243800   5.620   7.281   3.688 -0.9648  0.4097 -0.1838
  115MOL   C25343801   5.702   7.224   3.573 -1.1613 -0.3317 -0.7402
  115MOL   C25443802   5.857   7.235   3.579  0.4564 -0.3522  0.5125
  115MOL   C25543803   5.613   7.191   3.810 -0.8789 -0.0110  0.1018
  115MOL   H25643804   5.424   7.098   3.832 -1.6447  1.2647 -0.6265
  115MOL   H25743805   5.304   7.302   3.793 -0.2221  0.1146  1.6738
  115MOL   H25843806   5.422   7.405   3.858 -1.9820  2.3315 -2.1666
  115MOL   H25943807   5.453   7.424   3.624  0.1190 -0.1830  1.6117
  115MOL   H26043808   5.432   7.244   3.600 -2.4088  0.4085 -0.1517
  115MOL   H26143809   5.680   7.365   3.722  0.5540 -0.6344 -0.2521
  115MOL   H26243810   5.675   7.272   3.479 -1.5760  0.5332 -0.1929
  115MOL   H26343811   5.659   7.125   3.557 -1.9932  0.2920 -2.4369
  115MOL   H26443812   5.889   7.188   3.672 -1.8978 -0.4685  1.2767
  115MOL   H26543813   5.878   7.341   3.590 -0.4281 -0.2384  1.0809
  115MOL   H26643814   5.690   7.220   3.881  0.4117 -2.7995 -0.1116
  115MOL   H26743815   5.638   7.092   3.772 -2.9749 -0.3076 -0.5867
  115MOL   C26843816   5.917   7.174   3.457 -0.0530  0.5392  0.1692
  115MOL   C26943817   5.899   7.027   3.447  0.2941  0.3139  0.1852
  115MOL   C27043818   6.024   6.964   3.383 -0.1546  0.1132 -0.1321
  115MOL   C27143819   6.111   7.088   3.360 -0.8535 -0.0656  0.8270
  115MOL   C27243820   6.260   7.048   3.374  0.1344  0.0553  0.0495
  115MOL   C27343821   6.366   7.154   3.328  0.5994 -0.7841 -0.6900
  115MOL   C27443822   6.066   7.203   3.457  0.0605  0.8280  0.1204
  115MOL   H27543823   5.886   7.230   3.368  1.4345 -0.5324 -1.0599
  115MOL   H27643824   5.886   6.988   3.548  0.3740 -1.1999 -0.3778
  115MOL   H27743825   5.803   6.997   3.405 -0.1504  0.3846  1.1251
  115MOL   H27843826   6.073   6.880   3.432  1.1063  0.8075 -0.2083
  115MOL   H27943827   5.983   6.925   3.289  2.3578 -2.0025 -0.4001
  115MOL   H28043828   6.084   7.123   3.260  2.1792 -0.4806 -0.1906
  115MOL   H28143829   6.275   6.965   3.306 -0.5099  0.0257 -0.0594
  115MOL   H28243830   6.304   7.022   3.470  0.0408  0.8888  0.3290
  115MOL   H28343831   6.357   7.166   3.220 -0.2894  1.1387 -0.4225
  115MOL   H28443832   6.330   7.248   3.370  2.2906  0.1418 -1.2874
  115MOL   H28543833   6.097   7.176   3.558 -1.8012  0.5078  0.6293
  115MOL   H28643834   6.090   7.307   3.433  2.0022  0.2884 -0.3491
  115MOL   C28743835   6.518   7.128   3.363 -0.4314  0.1641  0.4089
  115MOL   C28843836   6.582   7.000   3.306  0.7498  0.3752  0.4229
  115MOL   C28943837   6.731   7.028   3.284 -0.4415 -0.4227  0.6780
  115MOL   C29043838   6.750   7.179   3.295 -0.0946  0.9219  0.0101
  115MOL   C29143839   6.836   7.233   3.184 -0.9498  0.1777 -0.4783
  115MOL   C29243840   6.851   7.388   3.187  0.1481  0.3086  0.7796
  115MOL   C29343841   6.611   7.243   3.313  0.0671  0.0095  0.5798
  115MOL   H29443842   6.528   7.138   3.471  2.0633  0.5642  0.1782
  115MOL   H29543843   6.550   6.917   3.370  0.9919  0.2916  0.4369
  115MOL   H29643844   6.524   6.990   3.214 -0.9182  0.8760  1.3944
  115MOL   H29743845   6.767   6.999   3.185  0.5790 -3.0353  1.7751
  115MOL   H29843846   6.792   6.969   3.353 -0.5729 -0.9069  0.3862
  115MOL   H29943847   6.800   7.202   3.389 -2.7014  1.6633  1.2582
  115MOL   H30043848   6.777   7.215   3.094 -1.6022  1.0850 -0.2413
  115MOL   H30143849   6.932   7.183   3.170 -0.8509  0.2982 -0.2168
  115MOL   H30243850   6.915   7.407   3.274 -0.9215 -1.2784  1.9261
  115MOL   H30343851   6.762   7.444   3.216 -1.1090 -0.1155 -2.1232
  115MOL   H30443852   6.571   7.274   3.216 -0.0197 -2.0465 -0.0741
  115MOL   H30543853   6.590   7.331   3.374 -1.1328 -0.0387  0.2549
  115MOL   C30643854   6.908   7.456   3.056 -0.3004  0.0571 -0.3216
  115MOL   C30743855   6.823   7.423   2.935  0.1892 -0.4916  0.3005
  115MOL   C30843856   6.834   7.540   2.830 -0.2647  0.6789  0.2880
  115MOL   C30943857   6.927   7.638   2.908  0.3013  0.3117  0.4206
  115MOL   C31043858   6.881   0.128   2.883 -0.1778 -0.7131 -0.0788
  115MOL   C31143859   6.890   0.186   2.735  0.7758  0.3343 -0.6435
  115MOL   C31243860   6.935   7.601   3.052  0.9582  0.8193 -0.0854
  115MOL   H31343861   7.001   7.403   3.036 -0.2307 -0.2816  0.8569
  115MOL   H31443862   6.855   7.329   2.891 -1.0250  0.0677 -1.8143
  115MOL   H31543863   6.721   7.409   2.973  0.3129 -0.8006  0.5221
  115MOL   H31643864   6.876   7.506   2.735 -3.1674 -1.5658 -0.2664
  115MOL   H31743865   6.733   7.576   2.812 -1.7363 -2.3726  2.0929
  115MOL   H31843866   7.028   7.626   2.869 -0.1296 -1.2815 -0.2406
  115MOL   H31943867   6.780   0.156   2.911  1.3108  2.7720  2.0768
  115MOL   H32043868   6.935   0.195   2.950  1.3214 -2.1294  0.1564
  115MOL   H32143869   6.817   0.266   2.723 -0.7170 -1.1367 -1.5836
  115MOL   H32243870   6.850   0.113   2.664  2.8374  0.1766 -1.6787
  115MOL   H32343871   6.853   0.008   3.100 -0.6461 -0.6749 -1.0728
  115MOL   H32443872   7.025   7.640   3.100  2.7849  0.1814 -2.8532
  115MOL   C32543873   7.024   0.225   2.687  0.3016  0.6810  0.6806
  115MOL   C32643874   7.020   0.241   2.531 -0.2132 -0.1356  0.5714
  115MOL   C32743875   7.134   0.337   2.503  0.2850 -0.6179  0.6351
  115MOL   C32843876   7.119   0.437   2.615  0.6654  0.3245 -0.5835
  115MOL   C32943877   7.241   0.526   2.630 -0.7954 -0.0145  0.3406
  115MOL   C33043878   7.232   0.635   2.737 -0.5209  0.4004 -0.6452
  115MOL   C33143879   7.082   0.357   2.739 -0.9307  0.2329  0.6146
  115MOL   H33243880   7.108   0.158   2.705 -0.6657 -0.6249  0.3520
  115MOL   H33343881   6.927   0.282   2.490 -0.2955 -0.5566  0.3298
  115MOL   H33443882   7.028   0.141   2.488  2.5252 -0.1200  0.9319
  115MOL   H33543883   7.234   0.294   2.501  0.3887 -0.3914 -2.8115
  115MOL   H33643884   7.121   0.376   2.402  0.4994  0.3953  0.9952
  115MOL   H33743885   7.037   0.498   2.578  1.0471  1.0597 -0.2126
  115MOL   H33843886   7.333   0.469   2.635 -1.6532 -1.6689 -2.0065
  115MOL   H33943887   7.262   0.582   2.539 -1.1019 -1.1504 -0.4381
  115MOL   H34043888   7.130   0.675   2.737  0.1580  2.1938  0.8354
  115MOL   H34143889   7.241   0.594   2.837  0.6195 -1.4621 -1.4966
  115MOL   H34243890   7.014   0.408   2.807 -0.2065  2.1389 -0.0681
  115MOL   H34343891   7.171   0.330   2.797  0.1986  1.1288 -0.6852
  115MOL   C34443892   7.340   0.745   2.719 -0.7036 -0.7354  0.4139
  115MOL   C34543893   7.481   0.687   2.730  0.4040 -0.0195  0.1067
  115MOL   C34643894   7.577   0.805   2.738  0.1950 -0.0830 -0.4250
  115MOL   C34743895   7.501   0.891   2.840  0.3433 -0.3886  0.1488
  115MOL   C34843896   7.521   1.034   2.821  0.2011 -0.6005 -0.2554
  115MOL   C34943897   7.474   1.135   2.931  0.5292  0.3941 -0.1418
  115MOL   C35043898   7.349   0.856   2.828 -0.2539  0.4553 -1.3115
  115MOL   H35143899   7.327   0.788   2.619  2.4555 -1.9056 -0.5539
  115MOL   H35243900   7.511   0.625   2.645 -0.2189  1.4062 -1.1701
  115MOL   H35343901   7.484   0.626   2.820 -1.5937  0.7846  0.7403
  115MOL   H35443902   0.031   0.780   2.771  0.7317  2.0801 -0.3399
  115MOL   H35543903   7.574   0.853   2.640 -3.0353 -0.5324 -0.5867
  115MOL   H35643904   7.543   0.872   2.939  0.9264  1.1233  0.2143
  115MOL   H35743905   7.627   1.058   2.814  0.0340  2.1393  4.1812
  115MOL   H35843906   7.478   1.071   2.728 -0.8611 -3.0313 -0.7708
  115MOL   H35943907   7.504   1.083   3.022 -0.5991  1.2724  0.7478
  115MOL   H36043908   7.367   1.150   2.922  0.5827  0.8419 -0.0937
  115MOL   H36143909   7.307   0.834   2.926 -1.2246  0.2453 -1.7716
  115MOL   H36243910   7.288   0.936   2.788  0.4210  1.2441 -0.7866
  115MOL   C36343911   7.551   1.267   2.937 -0.3687  0.7212  0.7382
  115MOL   C36443912   0.060   1.252   2.958  0.4459 -0.2059 -0.8497
  115MOL   C36543913   0.086   1.377   3.045  0.2914  0.5820  0.5233
  115MOL   C36643914   7.612   1.469   3.044  0.0627  0.5633  0.4544
  115MOL   C36743915   7.601   1.569   3.156 -0.3312  0.7019  0.2390
  115MOL   C36843916   7.490   1.666   3.139 -0.5723 -0.6178 -0.2127
  115MOL   C36943917   7.498   1.372   3.039  0.8985  0.1344 -0.4017
  115MOL   H37043918   7.548   1.309   2.836 -0.8466  0.7603  0.7655
  115MOL   H37143919   0.086   1.160   3.010 -1.3206 -1.6310 -2.4110
  115MOL   H37243920   0.108   1.259   2.860  1.5352 -0.8958 -0.3738
  115MOL   H37343921   0.088   1.335   3.146 -0.9321 -0.4863  0.1139
  115MOL   H37443922   0.181   1.429   3.031  0.5167  0.6333  2.0866
  115MOL   H37543923   7.604   1.519   2.947  0.3683  3.2090  1.7425
  115MOL   H37643924   7.610   1.527   3.256 -0.9696 -2.7589 -1.0907
  115MOL   H37743925   0.047   1.626   3.154  0.7944 -1.1447 -0.6054
  115MOL   H37843926   7.395   1.617   3.121 -1.4459  0.7887  0.4654
  115MOL   H37943927   7.511   1.731   3.054 -1.7560 -0.8157 -0.6700
  115MOL   H38043928   7.490   1.314   3.131  0.5778 -0.3657 -0.7373
  115MOL   H38143929   7.402   1.415   3.010  0.8399  1.8436  2.1183
  115MOL   H38243930   7.476   1.706   3.239  1.3727  0.2581 -0.2644
  116MOL     C143931   6.637   0.472   0.617  0.1306  0.1894 -0.4190
  116MOL     C243932   6.550   0.594   0.635 -0.3358 -0.2112 -0.5514
  116MOL     C343933   6.635   0.719   0.615 -0.3898  0.8372  0.4057
  116MOL     C443934   6.771   0.661   0.567  0.0633 -0.9831 -0.1514
  116MOL     C543935   6.884   0.763   0.598 -0.3447 -0.3486  0.5234
  116MOL     C643936   7.020   0.720   0.543  0.0097 -0.1941  0.2986
  116MOL     C743937   6.778   0.515   0.616  0.4474  0.3645 -0.0398
  116MOL     H843938   6.620   0.415   0.708 -2.1141  0.3018 -0.7342
  116MOL     H943939   6.491   0.600   0.726  1.2076  2.2664  0.3409
  116MOL    H1043940   6.480   0.597   0.551  1.3014 -0.7148 -1.9437
  116MOL    H1143941   6.584   0.785   0.544  1.0110  2.3759  0.8012
  116MOL    H1243942   6.647   0.773   0.708 -0.5578 -0.4731  1.1925
  116MOL    H1343943   6.775   0.670   0.458  0.8134 -2.0966 -0.2197
  116MOL    H1443944   6.859   0.860   0.554 -0.0363 -0.8917 -0.8509
  116MOL    H1543945   6.891   0.775   0.706  2.2707  0.1864  0.3270
  116MOL    H1643946   7.035   0.616   0.572 -1.9386 -0.9810 -1.4077
  116MOL    H1743947   7.022   0.704   0.435  1.3595  0.3725  0.2240
  116MOL    H1843948   6.843   0.451   0.556  3.2855  0.0685  3.2175
  116MOL    H1943949   6.805   0.483   0.716  0.3747 -0.6203 -0.3325
  116MOL    H2043950   6.607   0.409   0.533  0.5651 -0.1825 -0.2946
  116MOL    C2143951   7.135   0.805   0.594 -0.1424 -0.3049  0.0828
  116MOL    C2243952   7.157   0.794   0.749  0.0490 -0.5617  0.3744
  116MOL    C2343953   7.301   0.831   0.776 -0.7444  0.1180 -0.3901
  116MOL    C2443954   7.364   0.849   0.636 -0.9515 -1.0163 -0.7146
  116MOL    C2543955   7.514   0.805   0.638  0.7357 -0.6217  0.7326
  116MOL    C2643956   7.591   0.815   0.502  0.6953 -0.0606 -0.5466
  116MOL    C2743957   7.271   0.778   0.536  0.3608  0.4772  0.2883
  116MOL    H2843958   7.115   0.910   0.570 -1.9882 -0.8497 -0.8561
  116MOL    H2943959   7.083   0.842   0.813 -0.1215 -0.0040 -0.2306
  116MOL    H3043960   7.148   0.690   0.779 -4.0992  0.3976  2.8088
  116MOL    H3143961   7.313   0.921   0.837 -1.6931 -1.2570  1.8753
  116MOL    H3243962   7.343   0.741   0.821  0.1868 -0.6299 -2.7245
  116MOL    H3343963   7.373   0.955   0.612 -1.8142 -0.4158  1.5452
  116MOL    H3443964   7.528   0.706   0.681 -0.3788 -1.7938 -1.5019
  116MOL    H3543965   7.557   0.870   0.713  2.1559 -0.2094 -0.4068
  116MOL    H3643966   7.533   0.876   0.431  1.7054 -1.4348 -2.5924
  116MOL    H3743967   7.594   0.711   0.472 -1.8736 -0.7326  1.3678
  116MOL    H3843968   7.282   0.831   0.442 -2.1577 -1.6061 -1.2492
  116MOL    H3943969   7.293   0.674   0.515  1.6432  0.2060  2.7158
  116MOL    C4043970   0.085   0.873   0.512 -0.1410 -0.0075  0.1265
  116MOL    C4143971   0.183   0.793   0.597  0.8136 -0.4959 -0.5667
  116MOL    C4243972   0.271   0.729   0.498 -0.1085  0.5924 -0.6746
  116MOL    C4343973   0.293   0.831   0.387 -0.2129 -0.3732 -0.3872
  116MOL    C4443974   0.404   0.938   0.411 -0.3808  0.2469  0.8748
  116MOL    C4543975   0.442   1.032   0.292  0.3230  0.2340 -0.1160
  116MOL    C4643976   0.153   0.899   0.377 -0.6667 -0.4432 -0.2038
  116MOL    H4743977   0.070   0.963   0.571 -1.7510 -0.8850  1.1317
  116MOL    H4843978   0.134   0.723   0.665  1.8152 -1.3114 -0.6792
  116MOL    H4943979   0.240   0.848   0.672 -2.0232  0.8595  0.6962
  116MOL    H5043980   0.369   0.716   0.542 -0.2249  1.1762 -0.2303
  116MOL    H5143981   0.228   0.636   0.461 -1.5977  0.0363  2.3202
  116MOL    H5243982   0.317   0.787   0.290 -1.3620 -0.4143 -0.6576
  116MOL    H5343983   0.382   0.998   0.498 -0.0544 -0.6464  1.5792
  116MOL    H5443984   0.495   0.887   0.440 -1.9382 -1.7178  2.5047
  116MOL    H5543985   0.346   1.079   0.271  1.1898  1.0075 -2.5383
  116MOL    H5643986   0.469   0.960   0.215  1.7170 -2.1804  2.5372
  116MOL    H5743987   0.156   1.006   0.359 -2.4353 -0.7047 -2.2806
  116MOL    H5843988   0.097   0.859   0.292 -1.4070 -0.1630  0.1447
  116MOL    C5943989   0.563   1.123   0.325  0.1317  0.2326  1.0211
  116MOL    C6043990   0.589   1.226   0.216 -0.8011 -0.6130  0.5274
  116MOL    C6143991   0.485   1.339   0.249  0.6611 -0.2984  0.0823
  116MOL    C6243992   0.447   1.322   0.400  0.1288  0.8711  0.6851
  116MOL    C6343993   0.441   1.453   0.480 -0.4399 -0.5517 -0.3625
  116MOL    C6443994   0.425   1.431   0.635 -0.3707  0.8816  0.3388
  116MOL    C6543995   0.543   1.212   0.448 -0.8800  0.1920  0.1838
  116MOL    H6643996   0.657   1.069   0.332  0.5152  0.6188 -0.8093
  116MOL    H6743997   0.687   1.274   0.221 -1.5219  0.9038  0.3019
  116MOL    H6843998   0.574   1.198   0.112  0.8054 -2.7188  0.8264
  116MOL    H6943999   0.530   1.437   0.231  0.4267 -0.1486  0.3053
  116MOL    H7044000   0.394   1.323   0.191 -0.2059  0.6129  1.1484
  116MOL    H7144001   0.347   1.279   0.389 -0.0761  1.5867 -0.3768
  116MOL    H7244002   0.357   1.518   0.454 -0.0674  0.4137  0.7757
  116MOL    H7344003   0.525   1.519   0.459 -0.5072 -0.9779 -1.9959
  116MOL    H7444004   0.526   1.409   0.668 -0.2411  1.8412  0.6033
  116MOL    H7544005   0.407   1.532   0.672 -1.1799  1.2480 -1.0305
  116MOL    H7644006   0.641   1.248   0.479 -0.2527  0.2490 -1.7756
  116MOL    H7744007   0.510   1.168   0.542  0.6585  1.2566  1.2496
  116MOL    C7844008   0.316   1.344   0.689 -0.2410  0.7268 -0.1479
  116MOL    C7944009   0.293   1.349   0.846  0.2187 -0.9566  0.2353
  116MOL    C8044010   0.149   1.308   0.879  0.7008 -0.8460  0.6686
  116MOL    C8144011   0.096   1.279   0.734 -0.5697 -0.3279  0.0728
  116MOL    C8244012   7.587   1.318   0.719 -0.2257  0.2106  0.0829
  116MOL    C8344013   7.499   1.231   0.805  0.1273  0.1883  0.0655
  116MOL    C8444014   0.177   1.364   0.639  0.0719  0.1070 -0.1359
  116MOL    H8544015   0.338   1.240   0.667  1.4246  1.3233 -1.4033
  116MOL    H8644016   0.367   1.281   0.888  0.4619 -0.9918 -0.2383
  116MOL    H8744017   0.307   1.452   0.878 -1.0107 -0.7483  0.1078
  116MOL    H8844018   0.144   1.219   0.943  2.8438 -0.7918  0.9587
  116MOL    H8944019   0.084   1.384   0.922  0.2545  0.7443 -2.7063
  116MOL    H9044020   0.100   1.173   0.708 -2.2565 -0.4377  0.2415
  116MOL    H9144021   7.556   1.313   0.615 -1.8676  0.2899  0.5532
  116MOL    H9244022   7.576   1.422   0.750  0.0779  0.7062 -1.4076
  116MOL    H9344023   7.551   1.209   0.899  1.2622 -0.5354 -0.7208
  116MOL    H9444024   7.496   1.132   0.759 -2.5914  0.5298 -0.5686
  116MOL    H9544025   0.152   1.468   0.664  1.2795  0.0953  1.2296
  116MOL    H9644026   0.156   1.339   0.535 -0.9956  1.1541 -0.1899
  116MOL    C9744027   7.356   1.288   0.812  0.2388 -0.0395  0.2425
  116MOL    C9844028   7.354   1.413   0.900 -1.2229 -0.5722 -0.1226
  116MOL    C9944029   7.228   1.384   0.993 -0.3131 -0.3258 -0.6091
  116MOL   C10044030   7.149   1.268   0.930  0.8152 -0.0643 -0.5448
  116MOL   C10144031   7.071   1.181   1.031 -0.2338 -0.0888  0.1074
  116MOL   C10244032   6.940   1.244   1.087  0.1703  0.3070 -0.6386
  116MOL   C10344033   7.267   1.193   0.871  0.5096 -0.3324 -1.0450
  116MOL   H10444034   7.320   1.314   0.712  2.5274 -1.8717 -1.1080
  116MOL   H10544035   7.430   1.422   0.977 -2.2192 -2.2063  1.0762
  116MOL   H10644036   7.341   1.507   0.846  0.5525  2.0718  3.8096
  116MOL   H10744037   7.254   1.357   1.095 -0.5516 -0.4247 -0.5721
  116MOL   H10844038   7.183   1.482   1.008  1.0655  0.0743  1.0509
  116MOL   H10944039   7.075   1.311   0.861 -0.1898 -0.7366  0.0935
  116MOL   H11044040   7.036   1.092   0.979 -0.8001 -2.0734  3.7759
  116MOL   H11144041   7.140   1.144   1.106  0.6808 -0.6533 -1.0101
  116MOL   H11244042   6.944   1.347   1.120 -1.5181 -0.8330  3.4177
  116MOL   H11344043   6.874   1.260   1.001  0.8322 -2.2147 -1.6595
  116MOL   H11444044   7.316   1.141   0.954 -0.0790 -0.8576 -1.0218
  116MOL   H11544045   7.231   1.112   0.808 -2.4795 -0.6764  0.9876
  116MOL   C11644046   6.871   1.165   1.206  0.3834 -0.4734 -0.1678
  116MOL   C11744047   6.956   1.156   1.334  0.5540 -0.5023 -0.5391
  116MOL   C11844048   6.866   1.227   1.446  0.1120 -0.8159  0.2160
  116MOL   C11944049   6.719   1.230   1.393  0.4666 -0.2024 -0.5501
  116MOL   C12044050   6.646   1.352   1.443 -0.2726 -0.8974  0.3093
  116MOL   C12144051   6.500   1.353   1.401  0.3043  0.0196  0.1761
  116MOL   C12244052   6.730   1.211   1.245  0.9691  0.0761 -0.2405
  116MOL   H12344053   6.860   1.064   1.165 -0.3628 -0.0407 -1.0620
  116MOL   H12444054   7.049   1.212   1.322  0.2290  1.1105  3.5876
  116MOL   H12544055   6.989   1.055   1.359  0.1140 -0.9611 -1.8087
  116MOL   H12644056   6.894   1.331   1.461  1.8679 -1.1422 -0.7127
  116MOL   H12744057   6.863   1.180   1.544  0.5663 -0.7142  0.2771
  116MOL   H12844058   6.670   1.143   1.436 -0.0180  0.7235  0.7814
  116MOL   H12944059   6.689   1.449   1.417  0.0504 -0.9218  0.7593
  116MOL   H13044060   6.660   1.348   1.551  1.1926 -1.5666  0.0996
  116MOL   H13144061   6.485   1.272   1.329 -1.2761 -0.4603  1.0092
  116MOL   H13244062   6.470   1.450   1.362  1.1042  0.1303 -0.1715
  116MOL   H13344063   6.665   1.130   1.213 -2.5002  2.3895  0.6856
  116MOL   H13444064   6.699   1.298   1.187  3.8721  0.2081 -1.7049
  116MOL   C13544065   6.403   1.312   1.515  0.5507  0.3006  0.1387
  116MOL   C13644066   6.249   1.328   1.472 -0.5694  0.1142  0.6843
  116MOL   C13744067   6.180   1.242   1.577  0.5914 -0.0150  0.0255
  116MOL   C13844068   6.270   1.122   1.593 -0.6456  0.1912  0.6599
  116MOL   C13944069   6.259   1.067   1.730 -0.0059  0.1454 -0.0938
  116MOL   C14044070   6.348   0.940   1.760  0.0357 -0.3895 -0.7683
  116MOL   C14144071   6.414   1.169   1.558 -0.4059 -0.3477  0.1407
  116MOL   H14244072   6.423   1.376   1.600  1.9214  0.3969 -0.2307
  116MOL   H14344073   6.211   1.430   1.479 -1.3553 -0.2322  1.6024
  116MOL   H14444074   6.234   1.286   1.372  1.5943  0.6539  0.1045
  116MOL   H14544075   6.158   1.284   1.675  1.1149  0.3345 -0.0025
  116MOL   H14644076   6.083   1.226   1.530  0.3207 -1.8631  1.1814
  116MOL   H14744077   6.230   1.054   1.519  2.2449 -0.4582 -0.3966
  116MOL   H14844078   6.155   1.048   1.756  0.4488 -3.0043 -0.4279
  116MOL   H14944079   6.282   1.145   1.802  1.3630  1.6322 -2.0697
  116MOL   H15044080   6.323   0.861   1.690 -0.1009 -0.4445 -0.6578
  116MOL   H15144081   6.454   0.955   1.738  0.6578 -2.0033  0.9283
  116MOL   H15244082   6.443   1.097   1.481  0.0012  1.7075 -1.6681
  116MOL   H15344083   6.486   1.160   1.639 -0.1411  1.6464  0.1321
  116MOL   C15444084   6.336   0.908   1.913  0.1448  0.2782 -1.0126
  116MOL   C15544085   6.462   0.835   1.964  0.3771  0.4117 -0.3425
  116MOL   C15644086   6.419   0.686   1.942 -0.1200 -0.6663  0.7644
  116MOL   C15744087   6.271   0.690   2.003  0.5632  0.3970 -0.3475
  116MOL   C15844088   6.189   0.560   1.975  0.3989 -0.3703  0.5304
  116MOL   C15944089   6.229   0.439   2.063 -0.3797  0.2562 -0.4528
  116MOL   C16044090   6.209   0.821   1.947 -0.8973  0.5268 -0.2622
  116MOL   H16144091   6.317   0.997   1.973  0.4427  0.0450 -0.5701
  116MOL   H16244092   6.551   0.876   1.918  0.7379  1.2925  1.1203
  116MOL   H16344093   6.468   0.858   2.070 -0.6340  1.3066 -0.4685
  116MOL   H16444094   6.411   0.665   1.835  1.4513 -0.1662  0.5341
  116MOL   H16544095   6.483   0.608   1.981  1.4082 -0.5529 -1.4183
  116MOL   H16644096   6.273   0.699   2.112  1.0078  1.0479 -0.4036
  116MOL   H16744097   6.195   0.542   1.868  2.3275  2.9833 -0.0089
  116MOL   H16844098   6.089   0.579   2.013  1.9230  2.8668  3.1837
  116MOL   H16944099   6.330   0.403   2.041 -0.2955  0.5476 -0.5498
  116MOL   H17044100   6.228   0.479   2.164  0.6184  1.1833 -0.7944
  116MOL   H17144101   6.154   0.873   2.025 -0.5990  1.8440 -0.9193
  116MOL   H17244102   6.143   0.808   1.861 -0.1684 -0.0973 -0.7343
  116MOL   C17344103   6.126   0.327   2.050  0.1457  0.4146 -0.0974
  116MOL   C17444104   6.134   0.257   1.918 -0.0208  0.5336  0.0261
  116MOL   C17544105   6.157   0.107   1.948 -0.9034 -0.4898 -0.4050
  116MOL   C17644106   6.096   0.091   2.082 -0.3655 -0.9025  0.2629
  116MOL   C17744107   6.147   7.602   2.136 -0.7444  0.6895 -0.2069
  116MOL   C17844108   6.066   7.561   2.260 -0.0489  0.1530 -0.0033
  116MOL   C17944109   6.146   0.217   2.151  0.9417 -0.0984  0.2641
  116MOL   H18044110   6.025   0.364   2.072 -1.4496 -1.9106 -3.2685
  116MOL   H18144111   6.210   0.295   1.849 -0.0643 -0.0814 -0.3666
  116MOL   H18244112   6.044   0.281   1.862  0.3967  0.1532 -0.8189
  116MOL   H18344113   6.118   0.050   1.864  0.2605 -1.1702 -0.4928
  116MOL   H18444114   6.264   0.089   1.955 -0.8499  0.0713  0.3037
  116MOL   H18544115   5.989   0.077   2.068 -0.6064 -0.6383  1.7759
  116MOL   H18644116   6.244   7.620   2.183  0.2417 -1.4322 -1.3286
  116MOL   H18744117   6.154   7.518   2.067 -0.6430 -1.4779  2.3552
  116MOL   H18844118   5.973   7.510   2.237  0.4770 -1.0143  0.4222
  116MOL   H18944119   6.021   0.005   2.297  1.3633  1.1286 -0.6246
  116MOL   H19044120   6.249   0.213   2.187  1.1667 -0.9762 -0.4817
  116MOL   H19144121   6.094   0.240   2.245  1.3610  0.1323  0.4432
  116MOL   C19244122   6.143   7.496   2.373 -0.0649  0.1282  0.2121
  116MOL   C19344123   6.198   7.357   2.343  0.4497  0.9061 -1.1155
  116MOL   C19444124   6.186   7.281   2.481  0.2471 -0.2742  0.1829
  116MOL   C19544125   6.056   7.319   2.536  0.1894 -0.3161  0.1818
  116MOL   C19644126   6.030   7.313   2.692 -0.2015  0.2850  0.4878
  116MOL   C19744127   5.879   7.329   2.730  0.4366  0.1656 -1.4508
  116MOL   C19844128   6.045   7.469   2.495 -0.0464  0.4083  0.3749
  116MOL   H19944129   6.219   7.567   2.406  1.6482 -1.5246 -0.0442
  116MOL   H20044130   6.150   7.297   2.266  0.3191  2.9261 -2.6497
  116MOL   H20144131   6.303   7.366   2.316  0.8795 -0.7148 -0.0453
  116MOL   H20244132   6.268   7.329   2.534  0.4947  0.1671 -0.5845
  116MOL   H20344133   6.199   7.173   2.481 -1.9130 -0.5837 -2.0636
  116MOL   H20444134   5.981   7.258   2.486  0.0617  2.0768 -2.6844
  116MOL   H20544135   6.091   7.383   2.749 -1.2504 -0.5290  2.6504
  116MOL   H20644136   6.063   7.213   2.720  0.7164  0.6048  0.5685
  116MOL   H20744137   5.828   7.242   2.691 -0.1864  0.0394 -0.3719
  116MOL   H20844138   5.821   7.403   2.675  1.2996  1.3615 -0.7752
  116MOL   H20944139   6.063   7.540   2.575 -3.6715 -0.2453  1.8746
  116MOL   H21044140   5.943   7.499   2.468 -0.4446  0.4521  1.9133
  116MOL   C21144141   5.849   7.332   2.880 -0.0603 -0.3014 -0.1808
  116MOL   C21244142   5.880   7.208   2.959  0.4893  0.9996  0.2604
  116MOL   C21344143   5.753   7.179   3.039  0.1638 -0.8416  0.2845
  116MOL   C21444144   5.687   7.314   3.052  1.1899  0.0155  0.8915
  116MOL   C21544145   5.545   7.293   3.095 -0.2227 -0.0493 -1.0901
  116MOL   C21644146   5.448   7.411   3.072 -0.6954 -0.0137  0.0598
  116MOL   C21744147   5.700   7.369   2.910  0.2453 -0.5697 -0.1727
  116MOL   H21844148   5.919   7.410   2.911 -2.8690  1.7459  1.2816
  116MOL   H21944149   5.905   7.123   2.896  2.1516  1.3143  0.4551
  116MOL   H22044150   5.963   7.233   3.026  0.2364  1.6503  0.3348
  116MOL   H22144151   5.689   7.108   2.987 -1.5742  0.2993  0.7996
  116MOL   H22244152   5.770   7.125   3.133 -0.8634  0.0635  1.0031
  116MOL   H22344153   5.731   7.378   3.128 -0.0601  0.9719  0.8182
  116MOL   H22444154   5.551   7.273   3.202 -1.5334 -2.8137 -1.4750
  116MOL   H22544155   5.502   7.200   3.058 -2.9162  1.1980 -1.2122
  116MOL   H22644156   5.408   7.424   2.971 -0.2271 -2.5554 -0.4842
  116MOL   H22744157   5.358   7.373   3.121  0.7336  1.5670  4.1698
  116MOL   H22844158   5.669   7.473   2.897 -1.0223 -0.9940 -0.6627
  116MOL   H22944159   5.636   7.312   2.843 -0.5064  2.2476 -1.9280
  116MOL   C23044160   5.506   7.543   3.132  0.4748 -0.0051  0.1780
  116MOL   C23144161   5.537   7.534   3.280  0.4839  0.1842 -0.4456
  116MOL   C23244162   5.510   0.019   3.343 -0.4853  0.5469  0.2571
  116MOL   C23344163   5.393   0.081   3.257  0.0374 -0.7351  0.1607
  116MOL   C23444164   5.403   0.230   3.241 -0.4933  0.1538  0.0905
  116MOL   C23544165   5.297   0.293   3.132  0.2673  0.0269 -0.1729
  116MOL   C23644166   5.409   0.014   3.117 -0.4721  0.1963 -0.3717
  116MOL   H23744167   5.594   7.579   3.078  1.1257 -2.6837 -0.5922
  116MOL   H23844168   5.499   7.447   3.334  1.1044 -0.7503 -1.4841
  116MOL   H23944169   5.643   7.513   3.287  0.3590 -0.3341 -0.1336
  116MOL   H24044170   5.603   0.076   3.347 -0.8073  1.0827  0.1332
  116MOL   H24144171   5.479   0.006   3.447  2.8392 -1.2209  1.1115
  116MOL   H24244172   5.299   0.051   3.304 -1.5879 -0.8024 -2.9778
  116MOL   H24344173   5.506   0.262   3.222 -0.4877 -1.0216 -1.9751
  116MOL   H24444174   5.392   0.280   3.338  1.5224  1.0469 -0.1167
  116MOL   H24544175   5.313   0.263   3.028  1.3109  0.3363 -0.1118
  116MOL   H24644176   5.209   0.234   3.159 -1.5486  2.6569 -0.1369
  116MOL   H24744177   5.441   0.079   3.035  0.6416 -0.9217 -0.8473
  116MOL   H24844178   5.314   7.623   3.081 -0.4945 -0.2165  0.1202
  116MOL   C24944179   5.263   0.443   3.142  0.5809  0.1035  0.3563
  116MOL   C25044180   5.362   0.539   3.088  0.3926  0.4231  0.3087
  116MOL   C25144181   5.288   0.668   3.074 -0.2366  0.7222  0.5638
  116MOL   C25244182   5.145   0.631   3.034  0.5681  0.0047 -0.7971
  116MOL   C25344183   5.033   0.706   3.107  0.2009  0.4808  0.9739
  116MOL   C25444184   5.038   0.854   3.073  0.2903 -0.1051  0.3437
  116MOL   C25544185   5.136   0.474   3.068  0.6889 -0.5358 -0.1402
  116MOL   H25644186   5.251   0.461   3.248 -0.6792 -0.9087  0.4143
  116MOL   H25744187   5.448   0.544   3.155  1.4370  1.1734 -1.0327
  116MOL   H25844188   5.404   0.517   2.989  0.3422 -1.6825  0.7435
  116MOL   H25944189   5.340   0.742   3.014 -1.4370  0.5740 -0.6794
  116MOL   H26044190   5.287   0.702   3.178  1.2640 -1.2237  1.2484
  116MOL   H26144191   5.137   0.635   2.925 -1.2776 -0.7630 -0.7148
  116MOL   H26244192   5.029   0.682   3.213  1.1539 -0.9962  0.7010
  116MOL   H26344193   4.942   0.669   3.060 -0.8197  1.7249  1.9400
  116MOL   H26444194   5.092   0.870   2.980  0.2573  2.0835  0.6726
  116MOL   H26544195   5.099   0.911   3.143  0.7867 -1.4990  1.0800
  116MOL   H26644196   5.131   0.417   2.975 -0.2742 -0.7738  0.0614
  116MOL   H26744197   5.046   0.443   3.121  0.9160  0.1423  0.6576
  116MOL   C26844198   4.903   0.938   3.053 -0.1144 -0.5536 -1.6467
  116MOL   C26944199   4.817   0.953   3.185 -0.1226 -0.1992 -0.1421
  116MOL   C27044200   4.683   0.883   3.152  0.5113  0.3779 -0.5048
  116MOL   C27144201   4.663   0.911   3.005 -0.6240  0.1074 -0.7173
  116MOL   C27244202   4.556   0.822   2.941  0.5325 -0.4444 -0.3982
  116MOL   C27344203   4.415   0.839   2.994  0.1479 -0.1201 -0.5921
  116MOL   C27444204   4.804   0.897   2.949 -0.6798  0.3808  0.0991
  116MOL   H27544205   4.934   1.040   3.031  0.2172 -0.1336  0.7143
  116MOL   H27644206   4.874   0.934   3.275  0.0934 -0.8487 -0.4134
  116MOL   H27744207   4.788   1.058   3.188  2.0433  0.4735 -1.6975
  116MOL   H27844208   4.690   0.774   3.155 -1.3789  0.2711  0.9003
  116MOL   H27944209   4.593   0.898   3.212  0.1099  1.8582 -1.4425
  116MOL   H28044210   4.633   1.014   2.985 -1.5692 -0.1024 -0.3777
  116MOL   H28144211   4.589   0.718   2.950  0.8137 -0.1705  1.9482
  116MOL   H28244212   4.544   0.840   2.834 -0.2786  0.4198 -0.1597
  116MOL   H28344213   4.417   0.871   3.099  0.3699  1.3459 -1.0300
  116MOL   H28444214   4.385   0.929   2.941  0.7861  1.2940  1.3658
  116MOL   H28544215   4.819   0.791   2.929  2.5587  0.8958 -0.4682
  116MOL   H28644216   4.827   0.956   2.860 -0.7263  0.1532 -0.0637
  116MOL   C28744217   4.323   0.708   3.002 -0.3837  0.1684 -0.3451
  116MOL   C28844218   4.363   0.623   3.128  0.3004  0.1745 -0.5608
  116MOL   C28944219   4.240   0.600   3.216 -0.1271 -0.3044  0.4720
  116MOL   C29044220   4.125   0.613   3.111 -0.7143  0.1591 -0.5513
  116MOL   C29144221   3.988   0.614   3.162  0.0158  0.0090  0.1490
  116MOL   C29244222   3.941   0.481   3.228 -0.4742  0.3132  0.3842
  116MOL   C29344223   4.170   0.725   3.021  0.0878  0.0943 -0.2673
  116MOL   H29444224   4.324   0.652   2.908  1.2852 -0.0607 -0.2050
  116MOL   H29544225   4.402   0.536   3.075 -0.0875 -0.1278 -0.3504
  116MOL   H29644226   4.449   0.656   3.187 -1.0150  1.7025  0.5301
  116MOL   H29744227   4.237   0.673   3.298  1.4594  2.2427 -1.6475
  116MOL   H29844228   4.249   0.504   3.266 -0.9486 -0.4230  0.3986
  116MOL   H29944229   4.134   0.522   3.052 -0.0276  0.5490 -1.0479
  116MOL   H30044230   3.928   0.624   3.072  2.3847 -0.6795 -1.5536
  116MOL   H30144231   3.973   0.704   3.222  3.4723  0.2503  0.7844
  116MOL   H30244232   4.001   0.468   3.318  0.6928 -0.2531 -0.4600
  116MOL   H30344233   3.973   0.396   3.167  2.2661 -0.3773  2.6633
  116MOL   H30444234   4.145   0.824   3.059 -0.3606  0.8399 -2.4415
  116MOL   H30544235   4.113   0.707   2.929  0.3353  2.6907 -0.9578
  116MOL   C30644236   3.793   0.472   3.260 -0.2103 -0.4158  0.0046
  116MOL   C30744237   3.701   0.462   3.136  0.5775 -0.1316  0.0151
  116MOL   C30844238   3.598   0.353   3.152 -0.1706 -0.7062  0.2841
  116MOL   C30944239   3.604   0.306   3.296  0.1757 -0.4164  0.1834
  116MOL   C31044240   3.559   0.158   3.299  0.3462 -0.6873  0.5592
  116MOL   C31144241   3.549   0.091   3.435  0.2273 -0.5015  0.0182
  116MOL   C31244242   3.747   0.341   3.345 -0.5467 -0.0339  0.0535
  116MOL   H31344243   3.757   0.555   3.320 -1.1332 -0.3852 -0.5757
  116MOL   H31444244   3.649   0.557   3.133 -0.8575 -0.7434  3.2664
  116MOL   H31544245   3.747   0.463   3.037  2.3023 -0.7323  0.7917
  116MOL   H31644246   3.501   0.399   3.135 -0.5951 -2.2138 -1.4526
  116MOL   H31744247   3.616   0.270   3.084  3.3455  1.7866 -1.9657
  116MOL   H31844248   3.534   0.367   3.354 -0.9959  0.2577 -1.8507
  116MOL   H31944249   3.468   0.143   3.241 -0.2804  1.4132  0.9678
  116MOL   H32044250   3.625   0.103   3.232  0.2206  1.3691 -1.3029
  116MOL   H32144251   3.483   0.146   3.502  0.1279 -0.5136 -0.0698
  116MOL   H32244252   3.639   0.112   3.494 -0.7938  2.5687  0.5486
  116MOL   H32344253   3.812   0.263   3.308  0.3601  1.8045 -2.2954
  116MOL   H32444254   3.745   0.367   3.451 -2.5055 -0.3278  0.1166
  116MOL   C32544255   3.527   7.588   3.417  0.4866  0.2164  0.7258
  116MOL   C32644256   3.635   7.508   3.345 -0.0332  0.1689 -0.1549
  116MOL   C32744257   3.688   7.402   3.452  0.5062  0.2458 -0.1875
  116MOL   C32844258   3.637   7.450   3.591 -0.0299 -0.6151  0.0163
  116MOL   C32944259   3.631   7.339   3.696  1.2306  0.5649  0.4421
  116MOL   C33044260   3.773   7.298   3.744 -0.1267 -0.7771  0.2277
  116MOL   C33144261   3.506   7.513   3.549  0.1234 -0.6840  0.7375
  116MOL   H33244262   3.442   7.584   3.350 -0.9206  0.8324  2.4390
  116MOL   H33344263   3.712   7.579   3.316  1.3089 -0.4972  1.7006
  116MOL   H33444264   3.607   7.446   3.260 -0.7024 -1.0560  0.9369
  116MOL   H33544265   3.647   7.303   3.430  1.0112  0.1481 -0.7089
  116MOL   H33644266   3.797   7.390   3.452  0.5726  0.6196 -1.8049
  116MOL   H33744267   3.705   7.531   3.617 -0.9069  0.1335 -0.0027
  116MOL   H33844268   3.561   7.366   3.776  2.0050 -3.5509  2.6457
  116MOL   H33944269   3.584   7.251   3.652  2.6439  1.0236 -2.0602
  116MOL   H34044270   3.838   7.287   3.657 -1.8953  0.5648 -1.3054
  116MOL   H34144271   3.818   7.379   3.801  2.5369 -1.9865 -0.0782
  116MOL   H34244272   3.464   7.567   3.634  1.4571 -1.4987  1.9412
  116MOL   H34344273   3.435   7.433   3.529 -0.0180 -0.0893 -1.2701
  116MOL   C34444274   3.775   7.176   3.827 -0.0012 -0.1673 -0.5463
  116MOL   C34544275   3.692   7.185   3.959  0.6809 -0.5876 -0.2257
  116MOL   C34644276   3.792   7.188   4.078  0.0434 -0.2922  0.1830
  116MOL   C34744277   3.934   7.199   4.012  0.0449 -1.0028  0.3693
  116MOL   C34844278   4.048   7.123   4.091  0.4089 -0.5704  0.2559
  116MOL   C34944279   4.190   7.163   4.053 -0.0297  0.0046  0.1059
  116MOL   C35044280   3.913   7.144   3.869 -0.1568  0.3127  0.1683
  116MOL   H35144281   3.729   7.091   3.776 -2.4351  0.0323  1.2043
  116MOL   H35244282   3.622   7.102   3.965 -2.5298  2.0126 -0.5584
  116MOL   H35344283   3.624   7.270   3.961  0.5553 -0.6616 -0.9971
  116MOL   H35444284   3.776   7.265   4.154 -2.7517  2.2551 -2.8368
  116MOL   H35544285   3.796   7.093   4.131 -0.6419  0.6723  1.9913
  116MOL   H35644286   3.970   7.302   4.001  1.0086 -1.1176  2.3373
  116MOL   H35744287   4.033   7.137   4.198  1.6446 -2.8124  0.7584
  116MOL   H35844288   4.043   7.016   4.067  2.9958 -0.0356 -3.0722
  116MOL   H35944289   4.202   7.270   4.070  2.0531 -0.5028  2.0675
  116MOL   H36044290   4.194   7.140   3.947 -1.8071 -1.4844  0.3370
  116MOL   H36144291   3.983   7.201   3.808 -0.7119 -0.7423 -1.4592
  116MOL   H36244292   3.941   7.039   3.867 -2.6420 -0.4233  1.6016
  116MOL   C36344293   4.307   7.092   4.135  0.2539 -0.3160  0.0302
  116MOL   C36444294   4.447   7.110   4.069 -0.4238 -0.0107  0.4061
  116MOL   C36544295   4.513   6.975   4.087  0.0038 -0.1814  0.8410
  116MOL   C36644296   4.430   6.896   4.192  0.1750 -0.2340 -0.1305
  116MOL   C36744297   4.430   6.744   4.180  0.3629  0.5829 -0.1930
  116MOL   C36844298   4.563   6.702   4.246 -0.4224 -0.0146  0.2457
  116MOL   C36944299   4.290   6.945   4.162  0.3685 -0.3967 -1.5229
  116MOL   H37044300   4.313   7.137   4.234  1.9035  2.1450 -1.1334
  116MOL   H37144301   4.441   7.139   3.964  3.3156  1.0712  0.4092
  116MOL   H37244302   4.504   7.191   4.115  0.8861 -1.2689  1.0223
  116MOL   H37344303   4.525   6.916   3.996  1.4280  0.4857  0.5771
  116MOL   H37444304   4.613   6.984   4.129  0.0990 -0.7533  0.7542
  116MOL   H37544305   4.467   6.939   4.285 -1.1271 -0.7562  0.6255
  116MOL   H37644306   4.344   6.710   4.237 -0.1814  1.5796 -0.4127
  116MOL   H37744307   4.424   6.711   4.076  1.8607  0.7097 -0.3279
  116MOL   H37844308   4.543   6.716   4.352 -1.9207 -1.0624  0.1202
  116MOL   H37944309   4.653   6.755   4.215 -0.1434  0.1112  1.2481
  116MOL   H38044310   4.247   6.906   4.069  0.1442 -1.0117 -1.1616
  116MOL   H38144311   4.231   6.927   4.252  1.2523  0.3322 -0.7990
  116MOL   H38244312   4.588   6.596   4.236  0.4518  0.3356 -1.3685
  117MOL     C144313   5.554   5.553   6.634 -0.0080  0.1713  1.0063
  117MOL     C244314   5.619   5.686   6.599  0.1747  0.2682  0.0098
  117MOL     C344315   5.502   5.778   6.584  0.3864 -0.3177  0.2727
  117MOL     C444316   5.375   5.693   6.552  0.1188 -0.6135 -0.3644
  117MOL     C544317   5.296   5.721   6.417  0.2522 -0.3482 -0.1213
  117MOL     C644318   5.162   5.647   6.415  0.0666  0.4602 -0.4929
  117MOL     C744319   5.424   5.542   6.561  0.0446  0.3548  0.4841
  117MOL     H844320   5.617   5.466   6.616 -0.4598 -0.2427  1.4072
  117MOL     H944321   5.661   5.665   6.501 -0.0705 -3.7010  0.7052
  117MOL    H1044322   5.693   5.715   6.673  0.1570  0.0384  0.1149
  117MOL    H1144323   5.499   5.828   6.681  1.6928  0.9962 -0.3345
  117MOL    H1244324   5.518   5.860   6.513  0.5334  0.3624  1.0908
  117MOL    H1344325   5.305   5.714   6.633 -0.1291 -1.2664 -0.4077
  117MOL    H1444326   5.287   5.830   6.416 -2.3972 -0.5612 -0.7947
  117MOL    H1544327   5.366   5.699   6.336 -0.0368  0.3176 -0.5565
  117MOL    H1644328   5.188   5.541   6.409  1.7122  0.7869  0.4688
  117MOL    H1744329   5.125   5.648   6.517  1.7284 -0.7466  0.1541
  117MOL    H1844330   5.359   5.474   6.617 -2.4814  0.4677 -2.2165
  117MOL    H1944331   5.442   5.503   6.461 -0.8019  1.3923 -0.0790
  117MOL    H2044332   5.524   5.549   6.739 -1.8659 -2.5083  0.4267
  117MOL    C2144333   5.061   5.684   6.304  0.3656  0.3020 -0.4682
  117MOL    C2244334   4.928   5.611   6.329 -0.4443  0.1695 -0.0396
  117MOL    C2344335   4.844   5.675   6.221 -0.0864 -0.2948 -0.6222
  117MOL    C2444336   4.893   5.821   6.217 -0.2491  0.0464  0.0897
  117MOL    C2544337   4.782   5.930   6.239  0.5558 -0.3686 -0.4629
  117MOL    C2644338   4.826   6.071   6.208 -0.0414 -0.1761 -0.2870
  117MOL    C2744339   5.013   5.833   6.308 -0.2014 -0.2757  0.3703
  117MOL    H2844340   5.106   5.650   6.211 -0.1529 -2.3468  0.2252
  117MOL    H2944341   4.946   5.504   6.318  2.7545  0.9658 -3.7176
  117MOL    H3044342   4.889   5.642   6.426  0.9000 -0.9434  0.8617
  117MOL    H3144343   4.843   5.625   6.124  1.8300  0.9802 -1.3084
  117MOL    H3244344   4.739   5.670   6.251  0.6990 -0.3498  2.3016
  117MOL    H3344345   4.923   5.848   6.116  1.2292  2.1037  1.0336
  117MOL    H3444346   4.764   5.928   6.346  3.5849 -0.5117  0.0705
  117MOL    H3544347   4.691   5.899   6.187 -0.3476 -1.9863  2.0376
  117MOL    H3644348   4.850   6.080   6.102 -1.8125 -2.3674 -0.9155
  117MOL    H3744349   4.924   6.092   6.251  2.6952 -1.5207 -5.4490
  117MOL    H3844350   5.097   5.891   6.269  1.1507 -1.3200  1.6366
  117MOL    H3944351   4.994   5.872   6.408  0.8014  0.7352  0.1693
  117MOL    C4044352   4.708   6.173   6.237  0.2701  0.7440  0.5804
  117MOL    C4144353   4.653   6.173   6.383 -0.4398  0.2451  0.3295
  117MOL    C4244354   4.586   6.315   6.399 -0.3671  0.2933 -0.7566
  117MOL    C4344355   4.636   6.403   6.285  0.3139 -0.8377  0.3922
  117MOL    C4444356   4.524   6.457   6.191  0.3122  0.3395 -0.1004
  117MOL    C4544357   4.428   6.568   6.248  0.2398 -0.4802  0.3144
  117MOL    C4644358   4.759   6.319   6.226 -0.0948  0.5555 -0.8284
  117MOL    H4744359   4.640   6.157   6.154 -0.8614  2.4320  1.1642
  117MOL    H4844360   4.740   6.158   6.447 -0.3305 -1.6680 -0.2243
  117MOL    H4944361   4.586   6.089   6.402 -0.1148  0.0331  0.5333
  117MOL    H5044362   4.479   6.295   6.390  0.1531 -2.3853 -1.5744
  117MOL    H5144363   4.603   6.355   6.499  0.0283 -1.1258 -0.2414
  117MOL    H5244364   4.668   6.496   6.331  1.5213 -0.7706 -0.5451
  117MOL    H5344365   4.570   6.499   6.101 -1.4772  1.0186 -0.7229
  117MOL    H5444366   4.467   6.372   6.151  2.2821 -0.9616 -0.2475
  117MOL    H5544367   4.495   6.642   6.293  0.8981 -1.4916  1.0190
  117MOL    H5644368   4.370   6.541   6.336  0.6369  0.4650  0.8826
  117MOL    H5744369   4.768   6.341   6.120 -0.6408 -0.3608 -1.0717
  117MOL    H5844370   4.853   6.329   6.281  0.6010 -0.6173 -1.7971
  117MOL    C5944371   4.338   6.642   6.154 -0.2230  0.0585  0.1478
  117MOL    C6044372   4.220   6.725   6.211  0.5903  0.8339 -0.4010
  117MOL    C6144373   4.173   6.793   6.081  0.6338 -0.0974 -0.7255
  117MOL    C6244374   4.294   6.823   5.990 -0.1788  1.0975 -0.5330
  117MOL    C6344375   4.260   6.815   5.840  0.2305 -0.0045 -0.2591
  117MOL    C6444376   4.172   6.922   5.781  0.4219  0.1261  0.3876
  117MOL    C6544377   4.407   6.729   6.043  0.9400 -0.7364  0.1913
  117MOL    H6644378   4.294   6.560   6.097  0.3147 -1.5305  1.9545
  117MOL    H6744379   4.149   6.673   6.276  2.7735 -0.1211  1.2767
  117MOL    H6844380   4.267   6.798   6.276 -0.8834 -0.1002  1.7625
  117MOL    H6944381   4.108   6.717   6.037 -0.9863  0.5652  0.4648
  117MOL    H7044382   4.112   6.880   6.105  0.1077 -0.2634 -1.4621
  117MOL    H7144383   4.323   6.925   6.017 -0.7605  1.6595 -1.9726
  117MOL    H7244384   4.218   6.715   5.829  0.8065 -0.2888  0.1123
  117MOL    H7344385   4.354   6.814   5.784  0.7989  0.0279  0.6857
  117MOL    H7444386   4.104   6.949   5.862 -0.2223  0.7861 -0.3664
  117MOL    H7544387   4.233   7.011   5.764  1.3200 -0.4922  0.3410
  117MOL    H7644388   4.452   6.673   5.960 -0.3950  0.2023 -1.2020
  117MOL    H7744389   4.481   6.794   6.090 -0.1138 -0.8012  1.9652
  117MOL    C7844390   4.095   6.890   5.650  0.1584 -0.3230  0.3612
  117MOL    C7944391   4.183   6.853   5.531 -0.0593 -0.0089 -0.7936
  117MOL    C8044392   4.106   6.754   5.444  0.3833  0.0580  0.6507
  117MOL    C8144393   3.969   6.750   5.507 -0.2657 -0.1150  0.0155
  117MOL    C8244394   3.885   6.631   5.488 -0.3365  0.4116  0.6509
  117MOL    C8344395   3.831   6.605   5.346 -0.4627  0.9332  0.1368
  117MOL    C8444396   3.997   6.771   5.649  0.1061 -0.1651 -0.2966
  117MOL    H8544397   4.040   6.979   5.618 -1.4078 -1.5292 -0.3300
  117MOL    H8644398   4.226   6.937   5.475 -1.5218  1.4881  0.2672
  117MOL    H8744399   4.272   6.801   5.567 -0.4755  2.0537  3.6010
  117MOL    H8844400   4.119   6.790   5.342  2.9138  1.9578  1.5605
  117MOL    H8944401   4.159   6.659   5.453 -0.0811 -0.4475 -1.6705
  117MOL    H9044402   3.916   6.839   5.474 -2.2071 -1.7202 -1.3932
  117MOL    H9144403   3.802   6.639   5.559  0.2445 -2.9392  1.8020
  117MOL    H9244404   3.930   6.545   5.536 -2.4666 -2.7254 -2.7429
  117MOL    H9344405   3.918   6.590   5.283 -1.6758 -1.3316 -1.0576
  117MOL    H9444406   3.786   6.695   5.306 -1.6391  0.0413 -0.5659
  117MOL    H9544407   4.040   6.682   5.695 -1.1463 -0.5403  0.1411
  117MOL    H9644408   3.911   6.790   5.712  1.9875  0.7160  2.0918
  117MOL    C9744409   3.734   6.485   5.335  0.2559 -0.3722 -0.7936
  117MOL    C9844410   3.791   6.348   5.390 -0.0634  0.3492 -0.0454
  117MOL    C9944411   3.706   6.241   5.311 -0.6398  0.2512 -0.6444
  117MOL   C10044412   3.629   6.316   5.202  0.1199  0.6953 -0.3697
  117MOL   C10144413   3.620   6.231   5.074  0.0764 -0.4933 -0.7049
  117MOL   C10244414   3.537   6.293   4.960  0.4626 -0.2114  0.5800
  117MOL   C10344415   3.692   6.452   5.192  0.1320 -0.3785 -0.1141
  117MOL   H10444416   3.644   6.505   5.394 -0.2229 -1.7467 -1.0343
  117MOL   H10544417   3.894   6.329   5.361 -0.3298 -0.6153 -0.3684
  117MOL   H10644418   3.785   6.331   5.497 -0.3315 -0.1272 -0.1335
  117MOL   H10744419   3.768   6.159   5.275 -0.6558 -0.9691  1.9945
  117MOL   H10844420   3.632   6.199   5.379  0.4984 -1.5196 -0.4692
  117MOL   H10944421   3.526   6.339   5.230 -0.0008  1.0510 -1.0940
  117MOL   H11044422   3.722   6.219   5.038  0.0169 -1.2045 -0.6441
  117MOL   H11144423   3.587   6.132   5.105 -0.5972 -0.1181 -0.2239
  117MOL   H11244424   3.433   6.310   4.991  0.3002  0.9290 -0.5620
  117MOL   H11344425   3.579   6.392   4.942  0.3735 -0.2738  0.0295
  117MOL   H11444426   3.785   6.444   5.136  1.7961  1.7024  2.2623
  117MOL   H11544427   3.634   6.526   5.138  0.6079 -0.9061 -1.3692
  117MOL   C11644428   3.535   6.199   4.843  0.4360  0.8459  0.5905
  117MOL   C11744429   3.430   6.085   4.860 -0.1954  0.1082  0.2534
  117MOL   C11844430   3.419   6.019   4.721 -0.0349 -0.1055 -0.1686
  117MOL   C11944431   3.436   6.138   4.624 -0.0756  0.4120  0.1590
  117MOL   C12044432   3.304   6.165   4.543 -0.3891  0.2491 -0.0704
  117MOL   C12144433   3.326   6.272   4.431  0.2004  0.8330  0.6231
  117MOL   C12244434   3.486   6.257   4.710  0.3506  0.4971  0.3250
  117MOL   H12344435   3.633   6.154   4.826  0.7638  1.7600  0.0157
  117MOL   H12444436   3.333   6.129   4.883 -0.3385  0.1982 -0.5142
  117MOL   H12544437   3.455   6.017   4.942  0.8948 -2.4889 -2.1264
  117MOL   H12644438   3.318   5.980   4.712 -0.2317 -0.4579  3.0888
  117MOL   H12744439   3.493   5.940   4.709  3.0839  2.0555  3.9892
  117MOL   H12844440   3.522   6.128   4.559  1.5057 -0.9846  2.3649
  117MOL   H12944441   3.235   6.221   4.606  0.1680  0.0643  0.7103
  117MOL   H13044442   3.261   6.071   4.506  1.4622  0.1338 -1.9920
  117MOL   H13144443   3.405   6.254   4.358 -0.2727 -0.5546  0.4324
  117MOL   H13244444   3.360   6.360   4.486 -1.8560  2.0576  0.0043
  117MOL   H13344445   3.567   6.316   4.668 -0.4028  1.6368  0.4482
  117MOL   H13444446   3.399   6.319   4.730 -2.0610 -3.4272  2.7586
  117MOL   C13544447   3.199   6.317   4.361  0.7779  0.1449  0.2504
  117MOL   C13644448   3.235   6.428   4.255 -0.3085  0.0317  0.1927
  117MOL   C13744449   3.136   6.410   4.143  0.7408  0.3535 -0.2531
  117MOL   C13844450   3.101   6.259   4.142  0.8131  0.0349  0.3751
  117MOL   C13944451   2.952   6.245   4.093  0.1045 -0.7300  0.2017
  117MOL   C14044452   2.887   6.105   4.083  0.2481  0.1609  0.4195
  117MOL   C14144453   3.129   6.203   4.279  0.1258 -0.0167  0.2473
  117MOL   H14244454   3.140   6.365   4.439 -0.1077 -0.6630  0.0858
  117MOL   H14344455   3.218   6.532   4.280  1.4871  0.7085 -1.2469
  117MOL   H14444456   3.337   6.429   4.217  0.1583  2.5033  1.4338
  117MOL   H14544457   3.048   6.465   4.175 -1.1232 -0.5198 -3.6581
  117MOL   H14644458   3.178   6.446   4.050 -1.5896  1.0593 -1.0707
  117MOL   H14744459   3.164   6.209   4.069 -2.8599 -3.1846 -0.7998
  117MOL   H14844460   2.951   6.289   3.994 -1.6026 -2.2568 -0.4865
  117MOL   H14944461   2.897   6.309   4.162  0.7328  0.5261 -0.4542
  117MOL   H15044462   2.951   6.029   4.038  0.4058  1.5971 -1.8779
  117MOL   H15144463   2.869   6.071   4.185 -0.4628  3.7620  1.5747
  117MOL   H15244464   3.192   6.115   4.265  1.0291  0.6966 -0.1487
  117MOL   H15344465   3.040   6.167   4.331  0.5344 -1.9108 -0.3076
  117MOL   C15444466   2.744   6.115   4.010  0.6275  0.1876  0.3721
  117MOL   C15544467   2.666   5.983   4.013 -0.4214 -0.3085  0.2743
  117MOL   C15644468   2.547   6.024   3.916 -0.1076 -0.1823  0.1905
  117MOL   C15744469   2.598   6.126   3.814 -0.3621  0.1978  0.3175
  117MOL   C15844470   2.586   6.078   3.665  0.6518  0.5827  0.4440
  117MOL   C15944471   2.639   6.185   3.559 -0.3522  0.2594 -0.1591
  117MOL   C16044472   2.743   6.150   3.858  0.2241 -0.5722  0.3265
  117MOL   H16144473   2.686   6.182   4.074 -0.3045  0.9994 -1.3032
  117MOL   H16244474   2.719   5.899   3.968 -2.7009 -1.4432 -0.4024
  117MOL   H16344475   2.617   5.954   4.106  0.5865 -2.8762  0.0256
  117MOL   H16444476   2.507   5.940   3.858 -0.6240  0.6204 -0.6267
  117MOL   H16544477   2.468   6.072   3.974 -1.1245 -1.0390 -0.4642
  117MOL   H16644478   2.546   6.221   3.819  2.0615  1.7340 -2.0459
  117MOL   H16744479   2.482   6.052   3.647  1.2141 -0.6837 -1.1437
  117MOL   H16844480   2.636   5.983   3.643  2.3254  1.0885  1.9350
  117MOL   H16944481   2.567   6.266   3.561  0.0510  0.6208 -0.2740
  117MOL   H17044482   2.733   6.219   3.603  0.4670 -2.4584  0.2700
  117MOL   H17144483   2.767   6.256   3.855  2.1997 -0.9890  1.0902
  117MOL   H17244484   2.818   6.082   3.818  2.0219  0.1550  2.3336
  117MOL   C17344485   2.653   6.132   3.413 -0.3290 -0.1262  0.1871
  117MOL   C17444486   2.685   6.248   3.315  0.4237 -0.3712 -0.2814
  117MOL   C17544487   2.788   6.187   3.213 -0.5242  0.0803 -0.3261
  117MOL   C17644488   2.782   6.034   3.232 -0.4322 -0.2998 -0.0060
  117MOL   C17744489   2.904   5.953   3.191  0.2739 -0.1961 -0.3659
  117MOL   C17844490   2.866   5.808   3.154  0.6133 -0.1310 -0.5340
  117MOL   C17944491   2.755   6.029   3.385  0.2473 -0.0050  0.3104
  117MOL   H18044492   2.558   6.088   3.385 -1.1493  0.8778  1.3561
  117MOL   H18144493   2.732   6.332   3.367 -0.5401  0.0415 -0.0693
  117MOL   H18244494   2.595   6.283   3.265  1.3797 -1.3131 -2.7213
  117MOL   H18344495   2.758   6.215   3.112 -0.4118 -1.5161 -0.8088
  117MOL   H18444496   2.888   6.226   3.235  0.0772 -2.2053  1.2282
  117MOL   H18544497   2.697   6.021   3.164  0.4410  2.2117 -1.6756
  117MOL   H18644498   2.973   5.964   3.275  1.3898 -1.2734 -1.1281
  117MOL   H18744499   2.958   5.993   3.105  1.6080 -1.5906 -0.1949
  117MOL   H18844500   2.815   5.806   3.058  2.0980  0.7473 -1.3626
  117MOL   H18944501   2.802   5.762   3.229  1.7410 -2.0671 -0.7186
  117MOL   H19044502   2.847   6.059   3.436  0.2209  0.2722  0.1978
  117MOL   H19144503   2.719   5.932   3.418  0.7498 -0.0265  0.8238
  117MOL   C19244504   2.992   5.725   3.149 -0.2836  0.2511  0.0326
  117MOL   C19344505   3.092   5.758   3.037 -0.4003  0.1886 -0.6164
  117MOL   C19444506   3.181   5.631   3.039  0.4626 -0.2705  0.6771
  117MOL   C19544507   3.090   5.512   3.065  0.1429 -0.4290  0.3589
  117MOL   C19644508   3.142   5.409   3.161 -0.0290 -0.4766 -0.2167
  117MOL   C19744509   3.056   5.292   3.177  0.2577  0.2485 -0.1858
  117MOL   C19844510   2.958   5.577   3.121 -0.6681  0.0668  0.3116
  117MOL   H19944511   3.039   5.722   3.247  1.1024 -2.8578 -0.6505
  117MOL   H20044512   3.043   5.769   2.940 -0.2532  1.2448 -0.5802
  117MOL   H20144513   3.147   5.847   3.068  0.7955 -1.4761  2.2845
  117MOL   H20244514   3.254   5.644   3.119 -0.6319 -0.6430  1.7525
  117MOL   H20344515   3.252   5.615   2.958  1.7296 -0.8611  1.8797
  117MOL   H20444516   3.081   5.472   2.964 -1.6925  1.8243 -0.4024
  117MOL   H20544517   3.142   5.463   3.256 -1.2431  0.3423 -0.6643
  117MOL   H20644518   3.242   5.368   3.148 -0.0026 -0.2919 -0.6219
  117MOL   H20744519   3.067   5.229   3.088  1.6969  1.3365 -0.8003
  117MOL   H20844520   2.951   5.321   3.175  0.3873  0.7009 -0.7874
  117MOL   H20944521   2.926   5.523   3.209 -0.1600  0.6238  0.8430
  117MOL   H21044522   2.877   5.561   3.050 -0.6974  3.8790 -0.6581
  117MOL   C21144523   3.084   5.202   3.298 -0.1258  0.1796  0.1255
  117MOL   C21244524   3.029   5.058   3.291 -0.3592  0.5540 -0.2209
  117MOL   C21344525   2.961   5.042   3.425 -0.6384 -0.5615 -0.3150
  117MOL   C21444526   3.026   5.144   3.519  0.3204 -0.0110  0.0910
  117MOL   C21544527   2.949   5.191   3.647  0.1300 -0.7390  0.2859
  117MOL   C21644528   2.959   5.091   3.758 -0.2502 -0.1453  0.8809
  117MOL   C21744529   3.037   5.261   3.428 -0.7703 -0.3166 -0.0459
  117MOL   H21844530   3.190   5.177   3.308 -0.9576 -3.2343  1.0127
  117MOL   H21944531   2.981   5.040   3.195  0.5142 -2.6450 -0.1375
  117MOL   H22044532   3.121   5.000   3.283 -0.0695  0.9321  0.3840
  117MOL   H22144533   2.856   5.069   3.414 -0.3757  1.3198  1.5002
  117MOL   H22244534   2.962   4.944   3.472  3.8744 -0.3889  0.1370
  117MOL   H22344535   3.128   5.121   3.550  0.6741  2.0185  0.4882
  117MOL   H22444536   2.844   5.203   3.620  0.6960 -0.1275 -1.7409
  117MOL   H22544537   2.988   5.288   3.677  0.2944 -0.7830  0.2126
  117MOL   H22644538   2.943   4.987   3.728  3.5642 -0.7335  0.7541
  117MOL   H22744539   3.064   5.094   3.786 -0.2344 -0.0686  0.8131
  117MOL   H22844540   3.098   5.338   3.476 -1.6665 -0.2893  1.0846
  117MOL   H22944541   2.938   5.299   3.402 -0.9556 -2.3389 -2.4937
  117MOL   C23044542   2.868   5.128   3.871  0.0026  0.3931 -0.3296
  117MOL   C23144543   2.921   5.074   4.001  0.0928 -0.4900 -0.6109
  117MOL   C23244544   2.801   5.013   4.074  0.6773  0.0057 -0.6454
  117MOL   C23344545   2.711   4.972   3.960  0.7959 -0.0154 -0.2551
  117MOL   C23444546   2.572   4.929   3.999 -0.0026  0.1749 -0.3799
  117MOL   C23544547   2.497   4.857   3.881  0.0388 -0.1443  0.4710
  117MOL   C23644548   2.728   5.081   3.855 -0.0485  0.1060  0.2353
  117MOL   H23744549   2.867   5.237   3.876 -1.1594  0.2977  2.6653
  117MOL   H23844550   3.003   5.003   3.986  2.2063  1.5806  0.8202
  117MOL   H23944551   2.971   5.152   4.059  0.7168 -0.8457 -0.6580
  117MOL   H24044552   2.762   5.083   4.148  0.1660  0.3360 -1.2243
  117MOL   H24144553   2.836   4.921   4.120 -0.1141  0.6211  1.2499
  117MOL   H24244554   2.742   4.879   3.912  1.1102  0.2533 -0.5798
  117MOL   H24344555   2.516   5.018   4.030 -1.0115 -0.9412  1.1120
  117MOL   H24444556   2.571   4.851   4.076 -0.8098  0.0389 -0.5257
  117MOL   H24544557   2.524   4.920   3.796 -2.1820 -1.2103 -1.0646
  117MOL   H24644558   2.544   4.763   3.852 -1.0401 -0.2851 -0.8813
  117MOL   H24744559   2.665   5.169   3.870  0.0896  0.7072 -2.3542
  117MOL   H24844560   2.699   5.039   3.759 -2.6716  2.1118  0.1015
  117MOL   C24944561   2.347   4.842   3.887  0.4921  0.1817  0.1547
  117MOL   C25044562   2.272   4.975   3.909 -0.3274 -0.7687  0.7502
  117MOL   C25144563   2.147   4.967   3.824  0.1266  0.0025 -0.6919
  117MOL   C25244564   2.150   4.831   3.756  0.0970 -0.3282  0.2035
  117MOL   C25344565   2.055   4.721   3.828 -0.9006 -0.1390 -0.2205
  117MOL   C25444566   1.907   4.754   3.817  1.1835  0.5190  0.4738
  117MOL   C25544567   2.301   4.787   3.758  0.9647  0.8113  0.1759
  117MOL   H25644568   2.311   4.768   3.958 -2.1195  1.3158  0.0660
  117MOL   H25744569   2.258   5.004   4.013  1.7918 -2.0584  1.4249
  117MOL   H25844570   2.332   5.056   3.865 -2.4097  1.0825  1.2509
  117MOL   H25944571   2.137   5.052   3.756 -0.1574  2.0362  1.8151
  117MOL   H26044572   2.066   4.970   3.896  0.0592  0.7096 -0.7890
  117MOL   H26144573   2.118   4.826   3.652 -1.7758  1.2728  0.6758
  117MOL   H26244574   2.076   4.720   3.935 -1.6535 -0.1742 -0.0697
  117MOL   H26344575   2.079   4.621   3.794  0.4226  1.0812 -3.0609
  117MOL   H26444576   1.868   4.716   3.723 -0.0396 -0.2603  1.2825
  117MOL   H26544577   1.891   4.862   3.818  0.6695  0.4706 -0.9224
  117MOL   H26644578   2.367   4.836   3.687  3.5653  1.5513  2.9901
  117MOL   H26744579   2.321   4.681   3.752  0.5950  0.7580 -0.1741
  117MOL   C26844580   1.815   4.695   3.936 -0.0657 -0.1298  0.0260
  117MOL   C26944581   1.836   4.543   3.943 -0.2678 -0.0302  0.4058
  117MOL   C27044582   1.694   4.486   3.909 -0.1060 -0.4359  0.2840
  117MOL   C27144583   1.590   4.598   3.953  0.1586  0.4018  0.2923
  117MOL   C27244584   1.448   4.556   3.914 -0.7310 -0.3021  0.0809
  117MOL   C27344585   1.406   4.431   3.994  0.6085  0.4052  0.2146
  117MOL   C27444586   1.659   4.720   3.897  0.1710  0.2109 -0.1968
  117MOL   H27544587   1.839   4.738   4.033 -0.3495  0.3870 -0.1309
  117MOL   H27644588   1.913   4.503   3.876 -0.2852  1.7115 -0.6622
  117MOL   H27744589   1.854   4.515   4.047 -0.1878  0.3522  0.4939
  117MOL   H27844590   1.688   4.478   3.800  1.2100  0.9072  0.0868
  117MOL   H27944591   1.677   4.391   3.960  0.5461 -1.2608 -1.0035
  117MOL   H28044592   1.581   4.621   4.059 -0.0842 -0.9893  0.5778
  117MOL   H28144593   1.442   4.529   3.808  0.3948 -2.2111  0.4716
  117MOL   H28244594   1.380   4.639   3.932  1.2256  0.7333  3.1054
  117MOL   H28344595   1.468   4.345   3.969 -0.6585 -0.7398  0.9208
  117MOL   H28444596   1.423   4.451   4.100 -0.7659  0.5996  0.4021
  117MOL   H28544597   1.646   4.715   3.789  2.2982 -1.3233 -0.4075
  117MOL   H28644598   1.612   4.808   3.942 -3.4981 -0.2574 -2.8618
  117MOL   C28744599   1.254   4.400   3.978 -0.0036  0.5770  0.3462
  117MOL   C28844600   1.219   4.372   3.831 -0.3026 -0.6015  0.1061
  117MOL   C28944601   1.099   4.273   3.834 -0.3505  0.0070 -0.1578
  117MOL   C29044602   1.076   4.252   3.979 -0.9905  0.1764 -0.8299
  117MOL   C29144603   1.004   4.127   4.030  0.3408  0.2815 -0.0381
  117MOL   C29244604   0.960   4.146   4.179 -0.1991  0.3586  0.8942
  117MOL   C29344605   1.215   4.278   4.046 -0.0224  0.5241 -0.0896
  117MOL   H29444606   1.191   4.483   4.011 -1.5216 -0.2544 -0.4325
  117MOL   H29544607   1.182   4.461   3.780 -1.2992 -0.6008  0.8295
  117MOL   H29644608   1.307   4.338   3.776  0.7377 -1.0460  1.9989
  117MOL   H29744609   1.128   4.183   3.779  0.1339 -0.5446  0.9797
  117MOL   H29844610   1.008   4.307   3.784  0.0285 -1.0860 -1.6307
  117MOL   H29944611   1.012   4.336   4.006 -0.8429 -0.4306  1.4633
  117MOL   H30044612   1.064   4.040   4.003  0.5847  0.8565 -1.3823
  117MOL   H30144613   0.914   4.120   3.969 -0.7959 -1.0846  1.7360
  117MOL   H30244614   0.852   4.148   4.182 -0.2289  0.9621 -0.2257
  117MOL   H30344615   0.987   4.243   4.222  3.0310 -0.8701  1.8423
  117MOL   H30444616   1.283   4.193   4.037 -0.6264 -0.4197  3.3143
  117MOL   H30544617   1.209   4.290   4.155  1.5442 -0.4665  0.1314
  117MOL   C30644618   1.005   4.032   4.263 -0.3813 -0.0475  0.0611
  117MOL   C30744619   1.153   4.015   4.287 -0.4978  0.0526  0.2849
  117MOL   C30844620   1.154   3.921   4.412 -0.2194 -0.0119  0.0960
  117MOL   C30944621   1.024   3.941   4.495 -0.2035 -0.2031  0.5509
  117MOL   C31044622   1.036   3.994   4.642 -0.6253 -0.4527 -0.1371
  117MOL   C31144623   1.066   3.877   4.735  0.0352 -0.0702  0.3205
  117MOL   C31244624   0.941   4.050   4.407  0.5861  0.8460 -0.1465
  117MOL   H31344625   0.962   3.949   4.207  0.8065  0.4224 -1.6054
  117MOL   H31444626   1.207   3.991   4.195 -0.1360 -0.8624  0.7286
  117MOL   H31544627   1.199   4.108   4.320  2.2234 -1.2266  0.2423
  117MOL   H31644628   1.148   3.817   4.381  1.0954  0.7729 -3.0238
  117MOL   H31744629   1.241   3.928   4.477 -0.5382  0.0145  0.5276
  117MOL   H31844630   0.977   3.843   4.495 -0.2415 -0.2446  3.3191
  117MOL   H31944631   1.123   4.058   4.636  0.9284 -2.6295 -1.4578
  117MOL   H32044632   0.949   4.050   4.677 -0.3936 -0.1302 -0.0870
  117MOL   H32144633   1.116   3.798   4.678 -2.6848 -1.2984 -0.4480
  117MOL   H32244634   0.977   3.826   4.772 -0.3154  1.0571  1.0374
  117MOL   H32344635   0.957   4.152   4.442  1.5287  0.4269  0.6705
  117MOL   H32444636   0.833   4.039   4.413  0.6304  0.1350 -0.6404
  117MOL   C32544637   1.143   3.904   4.861  0.3750 -0.8064 -0.8352
  117MOL   C32644638   1.156   3.785   4.955 -0.1230 -0.1963 -0.3971
  117MOL   C32744639   1.306   3.779   5.000  0.6720  0.1027 -0.0894
  117MOL   C32844640   1.384   3.842   4.894  0.1325 -0.8933 -0.0360
  117MOL   C32944641   1.527   3.896   4.930  0.1804  0.5982  0.6207
  117MOL   C33044642   1.601   3.942   4.803 -0.2879 -0.1463  0.2079
  117MOL   C33144643   1.289   3.945   4.825  0.2772  0.9642 -0.5764
  117MOL   H33244644   1.097   3.988   4.913  1.3907 -0.1952 -0.9128
  117MOL   H33344645   1.130   3.692   4.906  0.8737  0.1742 -1.6558
  117MOL   H33444646   1.093   3.797   5.043  0.5232 -0.3636  0.0959
  117MOL   H33544647   1.318   3.830   5.095 -2.5948  1.0551 -0.1268
  117MOL   H33644648   1.334   3.678   5.028  1.3700  0.1744 -0.5132
  117MOL   H33744649   1.401   3.772   4.812 -1.0559 -0.4506 -0.6778
  117MOL   H33844650   1.524   3.988   4.989  2.3351  1.5473 -0.6793
  117MOL   H33944651   1.583   3.819   4.984 -0.7732  0.1776  1.0257
  117MOL   H34044652   1.598   3.867   4.724 -0.9222 -2.4664  2.3716
  117MOL   H34144653   1.544   4.025   4.762  0.6320  0.1410 -0.4999
  117MOL   H34244654   1.308   3.962   4.719 -0.2823  1.1554 -0.6469
  117MOL   H34344655   1.293   4.046   4.865  0.1341  0.3050  1.1745
  117MOL   C34444656   1.745   3.986   4.830 -0.1202 -0.2833  1.0306
  117MOL   C34544657   1.758   4.113   4.908 -0.1470  0.1046 -0.0463
  117MOL   C34644658   1.893   4.175   4.858  0.6696  0.8644 -0.6213
  117MOL   C34744659   1.901   4.133   4.710 -0.8225  0.0433 -0.3522
  117MOL   C34844660   2.047   4.114   4.650 -0.1026  0.1912 -0.1522
  117MOL   C34944661   2.048   4.103   4.500  0.3921 -0.0682  1.1552
  117MOL   C35044662   1.817   4.007   4.698 -0.1644 -0.3681 -0.0433
  117MOL   H35144663   1.793   3.903   4.882 -2.0821 -0.6240  2.3599
  117MOL   H35244664   1.746   4.103   5.016  1.3119 -0.6274  0.0560
  117MOL   H35344665   1.684   4.187   4.877 -1.2739 -1.2104 -0.5606
  117MOL   H35444666   1.903   4.283   4.856 -0.8998  1.1201  1.9349
  117MOL   H35544667   1.983   4.138   4.907  0.5555 -0.2763 -1.2633
  117MOL   H35644668   1.852   4.212   4.653 -3.0374 -1.1981 -0.2050
  117MOL   H35744669   2.096   4.209   4.673 -2.6995  0.9616  2.5543
  117MOL   H35844670   2.094   4.034   4.708 -1.7265  0.8283  2.1211
  117MOL   H35944671   2.016   4.199   4.459 -1.5055 -0.8720  0.6604
  117MOL   H36044672   1.966   4.037   4.469  1.0361  0.1873 -1.1701
  117MOL   H36144673   1.740   4.034   4.625  1.0846  0.5486 -1.0394
  117MOL   H36244674   1.878   3.925   4.660  0.5729 -0.3256  1.0477
  117MOL   C36344675   2.187   4.052   4.451  0.4228 -0.0371 -0.0805
  117MOL   C36444676   2.195   4.073   4.299  0.2455 -0.1851 -0.6135
  117MOL   C36544677   2.140   3.937   4.253  0.9346 -0.3702  0.2565
  117MOL   C36644678   2.186   3.837   4.359 -0.7903 -0.0457 -0.2272
  117MOL   C36744679   2.098   3.713   4.363 -0.0245  0.3126  0.6926
  117MOL   C36844680   2.166   3.590   4.421  0.0040  0.0452  0.2511
  117MOL   C36944681   2.221   3.910   4.488  0.1385 -0.3895 -0.2634
  117MOL   H37044682   2.263   4.125   4.476  1.1371 -0.5615 -0.6946
  117MOL   H37144683   2.135   4.152   4.254  1.7767  0.3832 -1.6945
  117MOL   H37244684   2.294   4.069   4.254  0.8895 -1.2212  0.8437
  117MOL   H37344685   2.033   3.952   4.244  0.7893  0.4363  2.8558
  117MOL   H37444686   2.171   3.917   4.151 -0.9777  2.2626 -0.8762
  117MOL   H37544687   2.278   3.804   4.310 -2.6478 -2.2303 -2.3555
  117MOL   H37644688   2.005   3.723   4.419 -1.0923  0.2051 -1.0463
  117MOL   H37744689   2.071   3.692   4.260  1.2020  0.0610  0.4058
  117MOL   H37844690   2.116   3.496   4.399 -0.6669  0.5546 -0.4146
  117MOL   H37944691   2.188   3.601   4.527 -0.7672  0.8128  0.3280
  117MOL   H38044692   2.165   3.868   4.571  0.3333 -1.3301 -0.5989
  117MOL   H38144693   2.330   3.903   4.495  0.0230 -2.0627  0.0638
  117MOL   H38244694   2.267   3.574   4.382 -0.4968  0.1537 -1.1076
  118MOL     C144695   2.179   7.507   3.873 -0.1512  0.4639 -0.5337
  118MOL     C244696   2.214   0.004   3.914 -0.1875  0.5794 -0.3195
  118MOL     C344697   2.347   7.638   3.984  0.8149  0.3613 -0.1310
  118MOL     C444698   2.383   7.494   3.979 -0.3340  0.3741  0.2786
  118MOL     C544699   2.483   7.445   4.081  0.0844 -0.1951 -0.2391
  118MOL     C644700   2.612   7.528   4.098  0.3226 -0.2451 -0.7354
  118MOL     C744701   2.248   7.424   3.978 -0.1321  0.8103 -0.4535
  118MOL     H844702   2.070   7.500   3.869 -0.1365 -0.4491  0.3381
  118MOL     H944703   2.146   0.046   3.988  0.0056  1.6284 -0.7235
  118MOL    H1044704   2.204   0.079   3.835  1.3830 -0.0763 -1.1608
  118MOL    H1144705   2.430   0.045   3.937  1.2848  0.1485  0.4469
  118MOL    H1244706   2.347   0.032   4.085 -0.6600 -2.0878  0.9292
  118MOL    H1344707   2.429   7.462   3.885 -1.9896 -2.2503  0.2962
  118MOL    H1444708   2.434   7.440   4.179 -0.9142  0.8175 -0.6672
  118MOL    H1544709   2.520   7.348   4.049 -1.2331 -0.4020 -1.1752
  118MOL    H1644710   2.655   7.545   3.999 -0.2158 -1.3450 -1.1680
  118MOL    H1744711   2.582   7.627   4.133 -1.3024 -0.6374 -0.9886
  118MOL    H1844712   2.254   7.317   3.959  1.7708  0.7435  0.3916
  118MOL    H1944713   2.203   7.432   4.076 -0.5249  1.4828 -0.6828
  118MOL    H2044714   2.220   7.483   3.775  0.1020 -2.4587  0.2492
  118MOL    C2144715   2.721   7.471   4.188 -0.4174  0.7662  0.6359
  118MOL    C2244716   2.851   7.551   4.172 -0.4413 -0.3196  0.4015
  118MOL    C2344717   2.927   7.559   4.301  0.3106 -0.7060  0.0396
  118MOL    C2444718   2.822   7.505   4.405  0.0597  0.7277 -0.2693
  118MOL    C2544719   2.817   7.603   4.525 -0.2675  0.1277 -0.2672
  118MOL    C2644720   2.701   7.581   4.623  0.1028  0.3141  0.4453
  118MOL    C2744721   2.692   7.497   4.333 -0.2218  0.3068 -0.0412
  118MOL    H2844722   2.737   7.364   4.172  2.2042  1.2110  0.0489
  118MOL    H2944723   2.912   7.510   4.091 -0.8040 -0.4233  0.1803
  118MOL    H3044724   2.826   0.006   4.142 -0.8806 -0.2640  0.9549
  118MOL    H3144725   3.020   7.502   4.296 -0.1839 -1.6604  1.4256
  118MOL    H3244726   2.950   0.015   4.326 -0.3046 -0.4360 -0.4962
  118MOL    H3344727   2.856   7.412   4.452  0.3539  1.0216  0.1054
  118MOL    H3444728   2.798   0.054   4.482 -2.4208  0.2084  0.8237
  118MOL    H3544729   2.914   7.613   4.574 -1.6499 -0.9047  2.8421
  118MOL    H3644730   2.603   7.598   4.579 -0.5939 -2.4375  0.8587
  118MOL    H3744731   2.709   0.013   4.698 -0.7806  0.6038  0.2335
  118MOL    H3844732   2.634   7.410   4.364 -0.1812  0.6755  1.0874
  118MOL    H3944733   2.637   7.590   4.342 -1.3752 -0.0311 -3.1297
  118MOL    C4044734   2.697   7.439   4.685  0.0446 -0.2063  0.0530
  118MOL    C4144735   2.821   7.413   4.773 -0.4024  0.2075 -0.6112
  118MOL    C4244736   2.763   7.326   4.882 -0.2809  0.7915 -0.0224
  118MOL    C4344737   2.632   7.386   4.910 -0.1155 -0.1184 -0.0018
  118MOL    C4444738   2.536   7.298   4.990  0.2661 -0.3867 -0.0591
  118MOL    C4544739   2.572   7.303   5.139  0.2554 -0.2313 -0.4291
  118MOL    C4644740   2.576   7.411   4.773  0.8880  0.0221 -0.1933
  118MOL    H4744741   2.688   7.366   4.605 -0.8941  0.8435 -0.8209
  118MOL    H4844742   2.861   7.511   4.799 -1.1086 -0.0920  1.7323
  118MOL    H4944743   2.887   7.353   4.710 -1.7311 -1.4346 -0.4711
  118MOL    H5044744   2.745   7.226   4.843  0.1473  0.6007  0.2559
  118MOL    H5144745   2.815   7.314   4.977  0.1822 -2.4174 -0.6216
  118MOL    H5244746   2.644   7.473   4.974  2.7655  0.4534 -1.2493
  118MOL    H5344747   2.434   7.336   4.985  0.4436 -0.0221 -0.8660
  118MOL    H5444748   2.531   7.195   4.954 -1.6666 -0.6877  1.0180
  118MOL    H5544749   2.542   7.398   5.184 -0.3973 -0.9169  0.5891
  118MOL    H5644750   2.679   7.290   5.160  0.5108 -0.8507 -2.0908
  118MOL    H5744751   2.525   7.321   4.738 -0.1712  0.6122 -0.1903
  118MOL    H5844752   2.497   7.486   4.763  1.7807  0.8514 -1.0822
  118MOL    C5944753   2.488   7.199   5.227  0.0914 -0.1409  0.0482
  118MOL    C6044754   2.500   7.055   5.176 -0.5895 -0.6927  0.0628
  118MOL    C6144755   2.504   6.971   5.298  0.5220  0.3228 -0.9389
  118MOL    C6244756   2.576   7.044   5.404 -0.1476 -0.5025  0.0115
  118MOL    C6344757   2.560   6.971   5.543 -0.6443 -0.3545  0.4905
  118MOL    C6444758   2.625   7.046   5.654 -0.9303  0.3503  0.1506
  118MOL    C6544759   2.524   7.188   5.376  0.0199 -0.5747 -0.2433
  118MOL    H6644760   2.381   7.222   5.223 -0.2454 -1.8587 -1.2056
  118MOL    H6744761   2.414   7.019   5.119 -0.0935 -1.3687 -0.2729
  118MOL    H6844762   2.586   7.044   5.110 -1.1248 -0.5542 -0.6747
  118MOL    H6944763   2.404   6.951   5.337  2.0572 -2.3040  1.8660
  118MOL    H7044764   2.542   6.870   5.285 -0.9215 -0.7718  2.5867
  118MOL    H7144765   2.683   7.041   5.385 -0.4013  1.9237 -1.9858
  118MOL    H7244766   2.590   6.866   5.539 -1.9984 -0.7061 -1.2661
  118MOL    H7344767   2.454   6.956   5.566 -1.0364 -1.5486 -1.8805
  118MOL    H7444768   2.732   7.054   5.637 -1.0314 -0.5447 -0.9338
  118MOL    H7544769   2.581   7.145   5.664 -3.1831 -0.8215  2.7643
  118MOL    H7644770   2.439   7.189   5.444 -0.5170  1.7825 -0.9147
  118MOL    H7744771   2.606   7.256   5.402 -0.1342  0.0517 -1.3495
  118MOL    C7844772   2.608   6.980   5.796 -0.1737 -0.5742 -0.5860
  118MOL    C7944773   2.665   6.832   5.799  0.3525 -0.5569 -0.2326
  118MOL    C8044774   2.732   6.819   5.942 -0.4794 -0.7658 -0.0777
  118MOL    C8144775   2.711   6.952   6.014 -0.4765 -0.1681 -0.4225
  118MOL    C8244776   2.836   6.987   6.105 -0.3482  0.1285  0.1512
  118MOL    C8344777   2.822   6.900   6.236  0.2849 -0.0881 -0.5768
  118MOL    C8444778   2.678   7.054   5.908  0.0555 -0.1998  0.3538
  118MOL    H8544779   2.510   6.988   5.842  1.7129  0.4758  3.4827
  118MOL    H8644780   2.592   6.752   5.787 -1.5831  1.3645 -1.8490
  118MOL    H8744781   2.741   6.815   5.723 -0.5897 -2.5646 -0.7573
  118MOL    H8844782   2.687   6.733   5.992 -0.2947  1.1115  3.4497
  118MOL    H8944783   2.836   6.786   5.939 -0.8703 -1.9493 -1.3082
  118MOL    H9044784   2.619   6.949   6.073  0.0031  1.3496  0.4162
  118MOL    H9144785   2.832   7.085   6.152  0.1921  0.5858 -0.7467
  118MOL    H9244786   2.934   6.967   6.061 -0.8302  0.9710 -1.3458
  118MOL    H9344787   2.820   6.795   6.207  0.5093 -0.4113  0.5294
  118MOL    H9444788   2.724   6.917   6.281 -1.5150 -4.3208 -2.5976
  118MOL    H9544789   2.756   7.113   5.860 -1.1267  1.7815  0.8193
  118MOL    H9644790   2.614   7.124   5.962 -0.8885 -1.1693  0.5274
  118MOL    C9744791   2.938   6.924   6.345 -0.2895  0.0626  0.3286
  118MOL    C9844792   2.923   6.819   6.461  0.3363  0.0478  0.0424
  118MOL    C9944793   3.015   6.870   6.576 -0.4233  0.4006 -0.1293
  118MOL   C10044794   3.010   7.023   6.556 -0.6807  0.2851  0.2724
  118MOL   C10144795   2.956   7.101   6.678  0.2919 -0.1671  0.5909
  118MOL   C10244796   2.812   7.060   6.721  0.2613  0.0596  0.2057
  118MOL   C10344797   2.928   7.050   6.428 -0.1992 -0.0698 -0.6266
  118MOL   H10444798   3.037   6.919   6.300 -0.2030  0.3530  0.4815
  118MOL   H10544799   2.823   6.819   6.504  0.1215 -0.9840 -0.4318
  118MOL   H10644800   2.961   6.721   6.431 -2.2217 -0.2143 -2.6305
  118MOL   H10744801   2.992   6.838   6.678 -0.1734 -0.8474 -0.4478
  118MOL   H10844802   3.117   6.832   6.565 -0.7969 -1.5092  2.4511
  118MOL   H10944803   3.110   7.066   6.550 -0.2193 -1.0399 -2.0814
  118MOL   H11044804   3.022   7.099   6.765 -1.1757  0.8795  1.7690
  118MOL   H11144805   2.959   7.203   6.640 -0.5898 -0.6989 -0.9421
  118MOL   H11244806   2.739   7.140   6.707 -1.0194 -0.9280  1.1534
  118MOL   H11344807   2.785   6.973   6.661 -0.4038 -1.4637  2.6333
  118MOL   H11444808   2.821   7.070   6.436 -0.1269 -0.1329  0.6011
  118MOL   H11544809   2.981   7.136   6.386 -0.0596  0.6257  0.9505
  118MOL   C11644810   2.819   7.002   6.864  0.0240 -0.6371 -0.3151
  118MOL   C11744811   2.855   7.106   6.978  0.1762  0.0635 -0.6444
  118MOL   C11844812   2.789   7.045   7.104 -0.1366 -0.4154 -0.2573
  118MOL   C11944813   2.670   6.962   7.059  0.1000 -0.8422  0.2775
  118MOL   C12044814   2.544   7.024   7.117 -0.4834 -1.0096  0.0313
  118MOL   C12144815   2.529   7.003   7.267 -0.3575  0.3038 -0.2341
  118MOL   C12244816   2.681   6.951   6.907  0.3554  0.2422  0.1171
  118MOL   H12344817   2.884   6.915   6.873 -0.3853 -0.8065  1.2101
  118MOL   H12444818   2.821   7.208   6.959  0.0253  0.2505  0.5810
  118MOL   H12544819   2.963   7.117   6.984  0.1732 -0.3130  0.1714
  118MOL   H12644820   2.782   7.120   7.183  1.4440  0.9226 -1.3402
  118MOL   H12744821   2.864   6.975   7.142  0.8462 -0.3922 -2.1099
  118MOL   H12844822   2.661   6.861   7.097 -2.3515 -2.0042 -3.1081
  118MOL   H12944823   2.450   6.989   7.076 -0.7334 -1.6447  1.1194
  118MOL   H13044824   2.539   7.120   7.064 -0.4537 -2.9507 -3.6579
  118MOL   H13144825   2.631   6.997   7.306 -0.2573 -0.0582 -0.5463
  118MOL   H13244826   2.487   6.904   7.282  1.4465 -0.0890  2.5599
  118MOL   H13344827   2.658   6.850   6.871  0.1041  0.6032 -0.7445
  118MOL   H13444828   2.604   7.011   6.859  1.2552  0.7791 -0.6675
  118MOL   C13544829   2.454   7.112   7.337 -0.0025  0.4783  0.4396
  118MOL   C13644830   2.435   7.081   7.482  0.2701 -0.0641 -0.6398
  118MOL   C13744831   2.470   7.206   7.564 -0.2488  0.9600  0.1025
  118MOL   C13844832   2.562   7.293   7.472 -0.1416  0.2254 -0.1531
  118MOL   C13944833   2.532   7.441   7.494  0.2618  0.1845 -0.4908
  118MOL   C14044834   2.640   7.531   7.426  0.0181 -0.4395 -0.4113
  118MOL   C14144835   2.517   7.255   7.333  0.0573 -0.2671  0.8219
  118MOL   H14244836   2.361   7.122   7.281 -0.7771  2.3879  1.9908
  118MOL   H14344837   2.331   7.067   7.514  0.7804 -1.8755  0.2789
  118MOL   H14444838   2.505   7.004   7.515 -0.8087 -1.3230 -1.2177
  118MOL   H14544839   2.382   7.255   7.606 -0.3191  0.8859  0.0425
  118MOL   H14644840   2.516   7.170   0.009  2.2069 -0.7227 -1.7006
  118MOL   H14744841   2.669   7.276   7.480 -0.0344 -0.1529 -1.9972
  118MOL   H14844842   2.533   7.454   7.602  1.8680 -0.3953 -0.4215
  118MOL   H14944843   2.432   7.469   7.464  0.3834 -0.2201 -1.2965
  118MOL   H15044844   2.735   7.482   7.444 -0.9490 -1.6965  1.4956
  118MOL   H15144845   2.624   7.541   7.318 -0.9780 -1.3164 -0.3639
  118MOL   H15244846   2.601   7.259   7.264  0.4053  0.8969  1.3019
  118MOL   H15344847   2.431   7.315   7.303  0.4523  0.2202  0.6704
  118MOL   C15444848   2.639   0.027   7.482  0.5004 -0.3797 -0.2251
  118MOL   C15544849   2.506   0.104   7.447  0.0156 -0.1421 -0.0556
  118MOL   C15644850   2.543   0.250   7.442  0.2142 -0.7047 -0.0767
  118MOL   C15744851   2.692   0.260   7.482 -0.4700 -0.2756  0.2208
  118MOL   C15844852   2.762   0.387   7.431  0.2186 -0.1080  0.5866
  118MOL   C15944853   2.717   0.520   7.488  0.2227  0.5574  0.0090
  118MOL   C16044854   2.754   0.127   7.442  0.3127 -0.4000 -0.5060
  118MOL   H16144855   2.639   0.005   7.589 -0.1142 -1.4921 -0.4451
  118MOL   H16244856   2.470   0.060   7.353  0.1501 -0.5277  0.0702
  118MOL   H16344857   2.427   0.069   7.514 -0.7020  1.9953  0.2367
  118MOL   H16444858   2.542   0.282   7.338 -0.8688 -2.4500 -0.6273
  118MOL   H16544859   2.483   0.320   7.500  1.1745 -0.2470  0.3748
  118MOL   H16644860   2.690   0.266   7.591  1.7112  2.7765  0.1662
  118MOL   H16744861   2.744   0.388   7.323 -2.6632 -2.3736  0.9886
  118MOL   H16844862   2.866   0.385   7.463  1.5903  0.8821 -3.5480
  118MOL   H16944863   2.609   0.507   7.492  0.4611 -1.0481  1.7066
  118MOL   H17044864   2.741   0.535   7.593 -3.4348  0.5510  0.9156
  118MOL   H17144865   2.845   0.130   7.501  0.8876 -3.3379 -1.1744
  118MOL   H17244866   2.782   0.126   7.337 -1.4650  0.7156 -1.0115
  118MOL   C17344867   2.748   0.634   7.395  0.7165  0.2785  0.1041
  118MOL   C17444868   2.667   0.766   7.424 -0.5150 -0.1970  0.0265
  118MOL   C17544869   2.759   0.878   7.377  0.6669  0.0440  0.3087
  118MOL   C17644870   2.890   0.819   7.323  0.5383  0.4955 -0.9146
  118MOL   C17744871   3.013   0.907   7.353 -0.6789 -0.5263  1.3620
  118MOL   C17844872   2.998   1.054   7.290  0.6778  0.0812 -0.1185
  118MOL   C17944873   2.888   0.682   7.398 -0.3652 -0.6863  0.5324
  118MOL   H18044874   2.731   0.603   7.292  0.1693 -1.2353  0.6413
  118MOL   H18144875   2.661   0.781   7.532  0.5350 -1.9716  0.3506
  118MOL   H18244876   2.565   0.763   7.387 -0.1691 -1.0026 -0.8707
  118MOL   H18344877   2.697   0.921   7.299 -0.8607  2.4811  2.7991
  118MOL   H18444878   2.783   0.945   7.460 -2.9224 -1.9268  3.0741
  118MOL   H18544879   2.883   0.800   7.216 -0.8234 -2.1172 -0.4171
  118MOL   H18644880   3.108   0.865   7.319 -1.0929 -1.0098  0.7847
  118MOL   H18744881   3.030   0.920   7.460 -1.2379 -0.1695  1.4104
  118MOL   H18844882   2.906   1.111   7.305 -0.3154 -1.7947  1.0443
  118MOL   H18944883   2.987   1.037   7.183 -1.6829 -2.3305  0.4480
  118MOL   H19044884   2.922   0.693   7.501 -4.8851  1.8360  1.8556
  118MOL   H19144885   2.949   0.615   7.336 -1.9345 -1.1891 -0.4947
  118MOL   C19244886   3.124   1.144   7.313 -0.4281 -0.0470 -0.2147
  118MOL   C19344887   3.133   1.206   7.453  0.5098  0.4676 -0.0629
  118MOL   C19444888   3.180   1.351   7.443  0.6622 -0.4183 -0.2468
  118MOL   C19544889   3.233   1.368   7.298 -0.3531 -0.4023 -0.1035
  118MOL   C19644890   3.379   1.330   7.285  0.2812 -0.0628  0.1455
  118MOL   C19744891   3.444   1.382   7.157  0.2389 -0.1848 -0.1822
  118MOL   C19844892   3.138   1.266   7.222 -0.2320  0.1867  0.1553
  118MOL   H19944893   3.209   1.078   7.296 -0.4664 -0.8999  2.7499
  118MOL   H20044894   3.039   1.188   7.506 -0.3760 -0.0822 -1.7790
  118MOL   H20144895   3.206   1.151   7.512 -0.2314  0.0391  0.4604
  118MOL   H20244896   3.254   1.378   7.518 -0.5549  2.2890  0.0227
  118MOL   H20344897   3.092   1.412   7.463 -0.5128 -2.1813  0.0839
  118MOL   H20444898   3.229   1.473   7.272  0.8055 -0.0956  0.9484
  118MOL   H20544899   3.388   1.223   7.302 -0.1717 -0.3079 -1.1230
  118MOL   H20644900   3.429   1.376   7.370  1.1997  2.4179 -1.6977
  118MOL   H20744901   3.374   1.452   7.112 -1.1702 -1.7660 -0.5021
  118MOL   H20844902   3.457   1.294   7.095  1.1732 -0.8829  0.9788
  118MOL   H20944903   3.175   1.243   7.122 -0.4781 -0.8596  0.2892
  118MOL   H21044904   3.038   1.302   7.201 -0.1041 -0.1093 -0.9922
  118MOL   C21144905   3.577   1.441   7.175 -0.2681 -0.1052  0.4652
  118MOL   C21244906   3.626   1.504   7.048 -0.2986 -1.2071 -0.1854
  118MOL   C21344907   3.779   1.491   7.049 -0.2690  0.7547  0.5233
  118MOL   C21444908   3.810   1.407   7.177  0.6675  0.9822  0.5193
  118MOL   C21544909   3.922   1.305   7.157  0.1073 -0.6321  0.2662
  118MOL   C21644910   4.058   1.370   7.163 -0.5399 -0.1803  0.1764
  118MOL   C21744911   3.681   1.337   7.212  0.0135 -0.2231 -0.8416
  118MOL   H21844912   3.572   1.512   7.257 -1.5179  0.2404  0.0854
  118MOL   H21944913   3.597   1.429   6.973 -3.1302 -0.0663 -0.3022
  118MOL   H22044914   3.580   1.597   7.014 -0.4486 -1.9198 -2.0407
  118MOL   H22144915   3.828   1.445   6.963 -1.0524 -0.9790  0.9740
  118MOL   H22244916   3.817   1.590   7.072 -0.4320  0.5005  1.9755
  118MOL   H22344917   3.846   1.457   7.267  3.4527  0.6472 -0.3935
  118MOL   H22444918   3.907   1.258   7.060 -0.0523  0.6338 -0.3274
  118MOL   H22544919   3.928   1.221   7.226 -0.0255 -1.1573 -0.3563
  118MOL   H22644920   4.065   1.447   7.086 -1.9547  3.2425  3.3275
  118MOL   H22744921   4.065   1.422   7.258 -1.8985  1.2869 -0.4956
  118MOL   H22844922   3.663   1.310   7.316 -1.6705  1.1715 -0.7389
  118MOL   H22944923   3.653   1.250   7.154 -1.0360  0.3335 -1.1988
  118MOL   C23044924   4.175   1.264   7.151 -0.4444 -0.3429  0.5858
  118MOL   C23144925   4.306   1.323   7.210 -0.5812  0.1454  0.0728
  118MOL   C23244926   4.413   1.303   7.099 -0.2620  0.3110 -0.0302
  118MOL   C23344927   4.334   1.300   6.966 -0.1520 -0.0967 -0.2453
  118MOL   C23444928   4.398   1.246   6.845 -0.7733 -0.4461  0.3971
  118MOL   C23544929   4.307   1.265   6.724 -0.1074  0.0235 -0.9489
  118MOL   C23644930   4.211   1.222   7.007  0.5071  0.2386 -0.2553
  118MOL   H23744931   4.148   1.174   7.206  0.1212  0.2851  1.9279
  118MOL   H23844932   4.302   1.432   7.221 -2.7578  0.0598  0.4304
  118MOL   H23944933   4.340   1.280   7.304  0.7961  0.3290 -0.3277
  118MOL   H24044934   4.459   1.205   7.109 -1.1670 -0.0863  0.3429
  118MOL   H24144935   4.481   1.387   7.111 -2.1792  2.4334 -3.3658
  118MOL   H24244936   4.290   1.396   6.938  1.9119  0.8099 -0.4615
  118MOL   H24344937   4.430   1.142   6.851 -0.4561 -0.3911 -0.2188
  118MOL   H24444938   4.496   1.291   6.829 -0.8695 -0.2275  0.4198
  118MOL   H24544939   4.239   1.180   6.729 -1.5218  1.1359 -0.6225
  118MOL   H24644940   4.246   1.355   6.714 -1.7829 -0.9971 -0.1710
  118MOL   H24744941   4.233   1.115   7.001 -1.1448  0.0030 -3.2912
  118MOL   H24844942   4.126   1.234   6.939 -0.0420 -1.3202  0.1189
  118MOL   C24944943   4.385   1.238   6.591  0.4187  0.1531 -0.7892
  118MOL   C25044944   4.453   1.097   6.586  0.2274  0.3253 -0.4009
  118MOL   C25144945   4.436   1.047   6.439  0.1867  0.3972 -0.4116
  118MOL   C25244946   4.291   1.103   6.411  0.8720 -0.4813  0.0624
  118MOL   C25344947   4.242   1.085   6.265  0.4988  0.3429  0.9129
  118MOL   C25444948   4.090   1.080   6.260  0.0750  0.3096 -0.4587
  118MOL   C25544949   4.295   1.239   6.467  0.1933  0.1736  0.6165
  118MOL   H25644950   4.458   1.316   6.569 -1.5770  2.2698 -0.0777
  118MOL   H25744951   4.554   1.103   6.627  0.3692 -1.0734 -0.5474
  118MOL   H25844952   4.398   1.025   6.646 -0.3619  0.7164 -0.4700
  118MOL   H25944953   4.457   0.940   6.435  2.9303  0.9260 -0.5754
  118MOL   H26044954   4.506   1.090   6.368  0.5358  0.4771 -0.0210
  118MOL   H26144955   4.230   1.044   6.479  1.7882 -0.1112  1.2260
  118MOL   H26244956   4.291   0.998   6.222  0.8476 -0.0678  2.1053
  118MOL   H26344957   4.280   1.166   6.203 -0.7251 -0.5763 -1.0931
  118MOL   H26444958   4.059   1.183   6.274 -0.3526 -0.0443  1.4227
  118MOL   H26544959   4.042   1.018   6.336 -0.5411  1.7925  0.3883
  118MOL   H26644960   4.197   1.281   6.491 -0.1460  0.0589 -0.5421
  118MOL   H26744961   4.330   1.318   6.400 -0.8378 -0.3723 -0.5952
  118MOL   C26844962   4.043   1.014   6.132  0.7307  0.5902 -0.5643
  118MOL   C26944963   4.070   1.117   6.012  0.0833  0.5422 -0.7311
  118MOL   C27044964   3.934   1.108   5.934  1.1979  0.2249 -0.2364
  118MOL   C27144965   3.822   1.088   6.032  0.0382 -0.1884 -0.5992
  118MOL   C27244966   3.773   1.212   6.107  0.1259 -0.0006 -0.1326
  118MOL   C27344967   3.627   1.202   6.161  0.0178  0.7133  0.1052
  118MOL   C27444968   3.891   0.977   6.118 -0.0110 -1.0119  0.0128
  118MOL   H27544969   4.094   0.919   6.114  0.3277  0.3889 -0.6419
  118MOL   H27644970   4.093   1.218   6.048  1.3776  0.0889 -0.2540
  118MOL   H27744971   4.158   1.089   5.955  0.2949 -0.9777  0.3342
  118MOL   H27844972   3.924   1.196   5.870  1.2095 -0.4140 -1.1279
  118MOL   H27944973   3.952   1.024   5.866  0.8234  0.0602 -0.1338
  118MOL   H28044974   3.737   1.039   5.985  0.8971 -0.2374 -2.1337
  118MOL   H28144975   3.784   1.296   6.039 -3.2330 -0.6100 -1.4968
  118MOL   H28244976   3.834   1.218   6.197  1.6146 -0.0543 -1.1125
  118MOL   H28344977   3.557   1.166   6.085  0.7016 -0.1259 -0.1362
  118MOL   H28444978   3.631   1.121   6.234  0.3251  0.2287 -0.4391
  118MOL   H28544979   3.850   0.962   6.218  0.0699 -0.2997  0.1532
  118MOL   H28644980   3.889   0.887   6.056  2.9013  0.3083 -2.0703
  118MOL   C28744981   3.567   1.329   6.221 -0.3911 -0.3537  0.5876
  118MOL   C28844982   3.553   1.444   6.122  0.4970  0.4493  0.2948
  118MOL   C28944983   3.471   1.551   6.194 -0.0510 -0.4546  0.4774
  118MOL   C29044984   3.364   1.467   6.274 -0.3923  0.2828 -0.3014
  118MOL   C29144985   3.226   1.458   6.202  0.1303 -0.2968  0.8223
  118MOL   C29244986   3.145   1.586   6.210  0.3222 -0.8069  0.7388
  118MOL   C29344987   3.422   1.327   6.277  0.1561 -0.0299 -0.4656
  118MOL   H29444988   3.621   1.362   6.310  1.4925 -0.5999 -0.4369
  118MOL   H29544989   3.649   1.482   6.088  0.0722  0.1945 -1.2395
  118MOL   H29644990   3.502   1.416   6.030  2.3507 -2.4555  0.1147
  118MOL   H29744991   3.436   1.625   6.122  2.8886 -0.4597 -1.0264
  118MOL   H29844992   3.534   1.599   6.269 -1.8499 -0.1761  1.8580
  118MOL   H29944993   3.349   1.505   6.375 -0.1818 -0.5756  0.0626
  118MOL   H30044994   3.171   1.374   6.246  0.9417  0.9425  4.4343
  118MOL   H30144995   3.240   1.438   6.096 -1.4113 -0.2760  0.5952
  118MOL   H30244996   3.200   1.678   6.189 -1.2953 -0.0227 -0.2160
  118MOL   H30344997   3.119   1.604   6.314  2.0790 -0.5680  1.1381
  118MOL   H30444998   3.375   1.271   6.195 -2.0614  0.0960  0.6798
  118MOL   H30544999   3.416   1.273   6.372 -2.1999 -1.2380 -1.2477
  118MOL   C30645000   3.023   1.586   6.117 -0.0696 -0.2983  0.1411
  118MOL   C30745001   2.905   1.675   6.158 -0.0700  0.3358  0.3784
  118MOL   C30845002   2.824   1.693   6.036  0.4839  0.4054 -0.5898
  118MOL   C30945003   2.925   1.697   5.916 -0.0256 -0.9426  0.1385
  118MOL   C31045004   2.955   1.839   5.870  0.5353  0.1022 -0.2781
  118MOL   C31145005   3.067   1.854   5.765 -0.2948  0.5742 -0.1762
  118MOL   C31245006   3.050   1.629   5.973  0.6974 -0.3358  0.3740
  118MOL   H31345007   2.997   1.480   6.116  0.1779 -0.3633 -1.4843
  118MOL   H31445008   2.857   1.627   6.243  0.9522 -0.6235  0.4195
  118MOL   H31545009   2.951   1.765   6.199  0.2546 -0.0293  0.8211
  118MOL   H31645010   2.769   1.601   6.017  0.3768  0.3031  0.2118
  118MOL   H31745011   2.760   1.781   6.038 -0.4737 -0.2898  0.0171
  118MOL   H31845012   2.872   1.649   5.834 -0.8515  0.5959 -0.2502
  118MOL   H31945013   2.856   1.873   5.840 -0.6551 -0.3158  2.9284
  118MOL   H32045014   2.970   1.907   5.954 -1.6851  0.9221 -0.4887
  118MOL   H32145015   3.031   1.798   5.679 -0.5873 -0.5982  0.6923
  118MOL   H32245016   3.169   1.823   5.787 -0.7119  0.1605  1.2517
  118MOL   H32345017   3.131   1.702   5.974 -1.5863  2.2672  0.1081
  118MOL   H32445018   3.082   1.537   5.925 -2.2101 -0.1052 -2.1165
  118MOL   C32545019   3.075   1.998   5.713  0.1399 -0.2457 -0.1827
  118MOL   C32645020   3.142   2.111   5.803 -0.5880 -0.6854 -0.0103
  118MOL   C32745021   3.271   2.136   5.715  0.1572 -0.7162 -0.4612
  118MOL   C32845022   3.236   2.114   5.572 -0.1430 -0.3953 -0.0370
  118MOL   C32945023   3.176   2.241   5.504 -0.4483  0.0511 -0.5182
  118MOL   C33045024   3.158   2.236   5.352  0.1623 -0.0597 -0.1630
  118MOL   C33145025   3.143   2.004   5.578  0.3274 -0.2055 -0.2878
  118MOL   H33245026   2.974   2.038   5.711 -0.6624 -2.2047  0.5901
  118MOL   H33345027   3.162   2.061   5.897 -2.0503 -1.8409 -0.2956
  118MOL   H33445028   3.076   2.196   5.818 -0.5468 -0.6921  0.2016
  118MOL   H33545029   3.315   2.233   5.738  0.7393 -1.5923  2.3294
  118MOL   H33645030   3.350   2.062   5.730 -0.0421 -1.1084 -1.3677
  118MOL   H33745031   3.320   2.078   5.512  0.1346  0.9773 -0.5007
  118MOL   H33845032   3.091   2.292   5.550 -0.2312  0.5027 -0.6118
  118MOL   H33945033   3.251   2.319   5.522  0.2965 -0.4865 -1.2507
  118MOL   H34045034   3.240   2.198   5.290 -0.9709 -1.6302 -0.7207
  118MOL   H34145035   3.074   2.167   5.350 -0.2575  0.3502  1.9059
  118MOL   H34245036   3.199   1.912   5.562  0.5261  0.0208 -0.9356
  118MOL   H34345037   3.070   2.009   5.496  0.5914  1.2904 -0.4407
  118MOL   C34445038   3.108   2.371   5.288  0.3711 -0.1866 -0.1822
  118MOL   C34545039   3.036   2.350   5.159 -0.0583  0.1617 -0.2749
  118MOL   C34645040   3.039   2.490   5.089 -0.3480  0.1733  0.0782
  118MOL   C34745041   3.174   2.542   5.128 -0.1359  0.0123 -0.2398
  118MOL   C34845042   3.193   2.689   5.129 -0.1227  0.3679 -0.6433
  118MOL   C34945043   3.335   2.741   5.129  0.8579  0.1650  0.0075
  118MOL   C35045044   3.211   2.482   5.267  0.0334 -0.1200 -0.6097
  118MOL   H35145045   3.033   2.422   5.349  0.1439 -0.0595 -0.5619
  118MOL   H35245046   2.940   2.306   5.186 -0.0241 -0.5281 -1.2617
  118MOL   H35345047   3.082   2.275   5.094  0.1116  1.6848 -1.9597
  118MOL   H35445048   3.023   2.480   4.981 -1.4049 -0.1750  0.2706
  118MOL   H35545049   2.961   2.547   5.138 -1.0977 -0.3904 -0.4454
  118MOL   H35645050   3.245   2.518   5.049  0.9102 -1.5152  1.1329
  118MOL   H35745051   3.146   2.735   5.043  0.5483  1.3333 -0.5052
  118MOL   H35845052   3.136   2.730   5.212 -0.1800 -0.6778 -0.1526
  118MOL   H35945053   3.392   2.707   5.043  2.0264  0.4097  0.6687
  118MOL   H36045054   3.387   2.700   5.216 -1.1018 -0.5070  0.9068
  118MOL   H36145055   3.315   2.450   5.269 -0.4238 -1.5300  1.6708
  118MOL   H36245056   3.193   2.550   5.350  0.3478 -0.3767 -0.3295
  118MOL   C36345057   3.349   2.892   5.133  0.8209 -0.5764 -0.2173
  118MOL   C36445058   3.495   2.934   5.118 -1.1234  0.3594 -0.1080
  118MOL   C36545059   3.503   3.056   5.213 -0.1540 -0.3894 -0.2410
  118MOL   C36645060   3.366   3.094   5.264 -0.2498  0.1253  0.6112
  118MOL   C36745061   3.369   3.162   5.401 -0.0964  0.0497  0.1141
  118MOL   C36845062   3.231   3.201   5.471  0.2251  0.1589  0.4822
  118MOL   C36945063   3.294   2.960   5.256  1.1902 -0.5262 -0.0676
  118MOL   H37045064   3.299   2.932   5.045  1.2017 -0.4703 -0.3897
  118MOL   H37145065   3.566   2.859   5.154 -1.4673  0.4322  0.7163
  118MOL   H37245066   3.522   2.971   5.019 -1.7665  0.2052 -0.3431
  118MOL   H37345067   3.576   3.036   5.291  0.7387  0.7830 -0.7597
  118MOL   H37445068   3.553   3.141   5.166 -1.3965 -0.5348 -1.8796
  118MOL   H37545069   3.321   3.161   5.190 -0.4245 -0.5351  0.1180
  118MOL   H37645070   3.417   3.105   5.480 -0.3716 -0.6770 -0.2411
  118MOL   H37745071   3.425   3.255   5.391  1.4593 -0.8316  0.3932
  118MOL   H37845072   3.187   3.110   5.512  0.0238  0.6523  1.3703
  118MOL   H37945073   3.166   3.248   5.397  2.3545  0.9809 -0.9417
  118MOL   H38045074   3.309   2.902   5.347 -3.0411 -1.4096  0.1949
  118MOL   H38145075   3.186   2.972   5.260  1.2885  0.7410 -0.9923
  118MOL   H38245076   3.259   3.277   5.544  0.7417  0.5008 -0.0628
  119MOL     C145077   6.913   3.850   5.873 -0.2460 -0.1697 -0.0926
  119MOL     C245078   6.800   3.896   5.789  0.4273 -0.3905 -0.4815
  119MOL     C345079   6.863   4.000   5.690  0.1365  0.9924  0.1811
  119MOL     C445080   6.994   3.936   5.642  0.6331  0.1836  0.3627
  119MOL     C545081   7.104   4.034   5.599 -0.6214  0.2255 -0.0629
  119MOL     C645082   7.072   4.102   5.469  0.3156 -0.1649  0.3963
  119MOL     C745083   7.035   3.861   5.774 -0.5085  0.3523  0.1018
  119MOL     H845084   6.932   3.909   5.963  0.3320 -0.6770  0.1247
  119MOL     H945085   6.719   3.938   5.849  0.2393  0.6433 -1.4289
  119MOL    H1045086   6.767   3.817   5.722 -1.2674  0.4169 -0.6456
  119MOL    H1145087   6.788   4.021   5.613 -1.2560 -0.4238  1.1176
  119MOL    H1245088   6.885   4.094   5.740 -0.5068  0.2700  1.8566
  119MOL    H1345089   6.995   3.856   5.567 -0.9352  0.7566 -0.2853
  119MOL    H1445090   7.123   4.097   5.685  0.8759  0.2827 -0.4228
  119MOL    H1545091   7.202   3.985   5.602  0.6873  2.7818 -0.0705
  119MOL    H1645092   7.023   4.025   5.409  2.6872 -0.5489 -1.0944
  119MOL    H1745093   6.992   4.175   5.480  0.7682  0.3674  0.1569
  119MOL    H1845094   7.064   3.761   5.742  0.1540  0.9440 -1.1754
  119MOL    H1945095   7.125   3.904   5.817 -0.0755 -0.9786  0.5583
  119MOL    H2045096   6.911   3.752   5.921  1.8661  1.6618  4.0269
  119MOL    C2145097   7.204   4.142   5.397 -0.4386  0.6568 -0.3054
  119MOL    C2245098   7.302   4.021   5.362  0.1802  0.0013 -0.8165
  119MOL    C2345099   7.352   4.038   5.219  0.5548 -0.6513 -0.0019
  119MOL    C2445100   7.301   4.173   5.164 -0.2139  0.0489 -0.8901
  119MOL    C2545101   7.263   4.172   5.018 -0.3214  0.2678 -0.1299
  119MOL    C2645102   7.390   4.159   4.934  0.4763  0.6785  0.7326
  119MOL    C2745103   7.185   4.215   5.256  0.4484 -0.1533 -0.2881
  119MOL    H2845104   7.259   4.206   5.466 -0.3564  0.4408 -0.1700
  119MOL    H2945105   7.374   4.027   5.443 -0.0850  0.5404 -0.6164
  119MOL    H3045106   7.253   3.924   5.375 -1.4911  1.0217  0.7857
  119MOL    H3145107   7.458   4.024   5.199  0.4731  0.9984 -1.8056
  119MOL    H3245108   7.315   3.955   5.158  0.3079 -0.0959 -0.6178
  119MOL    H3345109   7.384   4.242   5.177  0.1222 -0.7898  1.6150
  119MOL    H3445110   7.199   4.255   4.989  0.2725  0.3550 -1.2006
  119MOL    H3545111   7.203   4.082   5.001 -0.4482 -0.0319  1.7111
  119MOL    H3645112   7.463   4.087   4.969  2.7391  1.1898 -2.6718
  119MOL    H3745113   7.451   4.249   4.937 -0.4001  1.3075  0.0415
  119MOL    H3845114   7.188   4.321   5.281 -0.5154 -0.3216  0.5864
  119MOL    H3945115   7.083   4.201   5.220  0.1125  1.8594 -0.1677
  119MOL    C4045116   7.364   4.100   4.793 -0.0887 -0.4491 -0.3254
  119MOL    C4145117   7.455   4.168   4.691  0.3297 -0.0882  0.7687
  119MOL    C4245118   7.505   4.050   4.597  0.2143 -0.1561  0.1093
  119MOL    C4345119   7.512   3.937   4.704 -0.4487 -0.0546 -0.2378
  119MOL    C4445120   7.545   3.791   4.651  0.3792  0.1960 -0.0126
  119MOL    C4545121   7.527   3.686   4.762  0.0416  0.1345 -0.0872
  119MOL    C4645122   7.391   3.946   4.793  0.3966 -0.5767  0.6012
  119MOL    H4745123   7.258   4.110   4.767  0.3229 -0.1645 -1.9251
  119MOL    H4845124   7.537   4.225   4.735 -1.4582  2.0265  1.4753
  119MOL    H4945125   7.396   4.236   4.629  0.4022 -2.6863 -2.2676
  119MOL    H5045126   7.431   4.020   4.523 -0.2273 -0.7398  0.7852
  119MOL    H5145127   7.596   4.068   4.541  1.5033 -1.0669  1.8772
  119MOL    H5245128   7.597   3.959   4.769 -1.5259 -1.4579  1.6877
  119MOL    H5345129   7.478   3.774   4.567 -0.9928  1.0335  0.8910
  119MOL    H5445130   7.645   3.786   4.608  0.2834 -0.3804 -0.1682
  119MOL    H5545131   7.426   3.684   4.802  0.1062 -2.5836  0.0184
  119MOL    H5645132   7.590   3.704   4.849 -1.4266 -1.8779  1.4512
  119MOL    H5745133   7.306   3.890   4.753  0.1082  0.8579 -0.8436
  119MOL    H5845134   7.411   3.911   4.895  1.2599  0.3135  0.7449
  119MOL    C5945135   7.548   3.547   4.696  0.0702  0.1761 -0.5294
  119MOL    C6045136   0.049   3.514   4.653  0.1553 -0.4664  0.3585
  119MOL    C6145137   0.059   3.362   4.649 -0.0608 -0.0571  0.7478
  119MOL    C6245138   7.601   3.310   4.751 -0.5583  0.5221 -0.1446
  119MOL    C6345139   7.530   3.183   4.711  0.3238  0.5088  1.2423
  119MOL    C6445140   7.612   3.059   4.689  0.0750  0.7567 -0.0934
  119MOL    C6545141   7.500   3.430   4.777  0.5788 -0.1093  0.1753
  119MOL    H6645142   7.497   3.549   4.599 -0.3439  2.2211 -0.3015
  119MOL    H6745143   0.082   3.572   4.567 -1.0318 -0.7344 -0.2917
  119MOL    H6845144   0.116   3.557   4.727  0.9560 -0.0454 -0.6061
  119MOL    H6945145   0.028   3.324   4.552  1.3036  1.0130 -0.1329
  119MOL    H7045146   0.162   3.326   4.656 -0.0165 -0.0618  0.0220
  119MOL    H7145147   0.007   3.302   4.846 -0.8084 -0.3398 -0.0694
  119MOL    H7245148   7.464   3.206   4.628  2.6323 -0.1354 -0.8216
  119MOL    H7345149   7.454   3.163   4.787 -0.3996 -0.9243  0.1633
  119MOL    H7445150   0.068   3.093   4.679  0.5839 -1.1805 -1.8234
  119MOL    H7545151   7.590   2.989   4.770 -0.8042 -0.4050 -1.3057
  119MOL    H7645152   7.401   3.396   4.746  0.7756  0.1532 -0.7521
  119MOL    H7745153   7.495   3.459   4.882 -1.8489 -0.7405  0.2659
  119MOL    C7845154   7.555   2.985   4.561 -0.1811 -0.1506  0.0835
  119MOL    C7945155   7.567   3.066   4.427  0.0146  0.2630 -0.1132
  119MOL    C8045156   7.621   2.962   4.327 -0.0351  0.3015  0.4336
  119MOL    C8145157   7.589   2.832   4.392 -0.7546  0.1864  0.4576
  119MOL    C8245158   0.024   2.718   4.328  0.3300 -0.1289  0.4593
  119MOL    C8345159   7.619   2.577   4.359  0.0812  0.4576 -0.0587
  119MOL    C8445160   7.608   2.844   4.546 -0.5004 -0.2774 -0.3780
  119MOL    H8545161   7.449   2.975   4.583 -0.0805  0.8682  1.0849
  119MOL    H8645162   7.471   3.113   4.404  0.6847  1.1580 -1.1267
  119MOL    H8745163   7.633   3.153   4.431  0.7153 -0.3595  2.7301
  119MOL    H8845164   7.562   2.975   4.236  2.5258 -2.1197 -1.6930
  119MOL    H8945165   0.081   2.964   4.308 -0.1282  0.8299 -0.0400
  119MOL    H9045166   7.485   2.815   4.364 -0.5271  0.9418 -0.9221
  119MOL    H9145167   0.131   2.722   4.351  0.8761  2.1278 -2.1682
  119MOL    H9245168   0.036   2.738   4.221  0.3971 -0.0381  0.4840
  119MOL    H9345169   0.002   2.554   4.461 -0.6979  2.8820  0.7449
  119MOL    H9445170   0.040   2.511   4.304  1.9805  2.4349 -0.1252
  119MOL    H9545171   0.066   2.839   4.572 -0.8652 -0.7028  1.0599
  119MOL    H9645172   7.548   2.772   4.602  0.6043 -0.3673  0.7104
  119MOL    C9745173   7.468   2.539   4.340 -0.9447 -0.0844  0.3983
  119MOL    C9845174   7.441   2.389   4.358  0.1466  0.1975 -0.7886
  119MOL    C9945175   7.301   2.363   4.288  0.3244  0.3411 -0.0034
  119MOL   C10045176   7.272   2.481   4.195  0.5645 -0.4249  0.1834
  119MOL   C10145177   7.227   2.436   4.050  0.0423 -0.1423 -0.2059
  119MOL   C10245178   7.194   2.544   3.945 -0.0080  0.3827 -0.6041
  119MOL   C10345179   7.400   2.573   4.209 -0.1730  0.1038  0.0028
  119MOL   H10445180   7.418   2.598   4.416 -2.0285 -0.1808 -0.2316
  119MOL   H10545181   7.524   2.328   4.323 -0.1018 -1.0533  0.7651
  119MOL   H10645182   7.432   2.350   4.460 -1.6719 -1.2553 -1.4659
  119MOL   H10745183   7.294   2.269   4.233  0.3450  0.5216 -0.3196
  119MOL   H10845184   7.222   2.376   4.363 -0.2056  1.1692 -0.6905
  119MOL   H10945185   7.189   2.531   4.245 -2.4932 -4.9989  0.0542
  119MOL   H11045186   7.318   2.387   4.018  0.7083  0.8005  0.2376
  119MOL   H11145187   7.157   2.353   4.056 -0.9102  0.6734  0.2974
  119MOL   H11245188   7.104   2.597   3.975  0.9289  1.7083 -0.0773
  119MOL   H11345189   7.271   2.621   3.936  1.5101 -1.1920 -1.3732
  119MOL   H11445190   7.477   2.560   4.133  1.7627  0.1310  1.9073
  119MOL   H11545191   7.373   2.678   4.199  0.4046  0.4426  1.8633
  119MOL   C11645192   7.178   2.475   3.807 -0.0422 -1.2816 -0.0149
  119MOL   C11745193   7.073   2.366   3.792  0.3695  0.4057 -0.2583
  119MOL   C11845194   7.030   2.372   3.637 -0.2497  0.4099 -0.5649
  119MOL   C11945195   7.098   2.491   3.569 -0.0022  0.2163  0.1747
  119MOL   C12045196   7.013   2.557   3.457 -0.4447  0.2241 -0.9023
  119MOL   C12145197   7.093   2.649   3.368  0.1146 -0.1042  0.7922
  119MOL   C12245198   7.124   2.574   3.699 -0.0674  0.1547  0.5688
  119MOL   H12345199   7.275   2.439   3.775  1.2686  1.2941  0.8705
  119MOL   H12445200   6.989   2.390   3.858  0.2902 -1.5746  0.4036
  119MOL   H12545201   7.114   2.272   3.829  0.7590  0.9439  0.6820
  119MOL   H12645202   6.922   2.388   3.639 -0.2580  0.1406  1.4032
  119MOL   H12745203   7.046   2.274   3.592  2.7867  0.5816  0.0259
  119MOL   H12845204   7.190   2.449   3.527  0.6905  2.0797 -0.1949
  119MOL   H12945205   6.931   2.612   3.504 -1.0720 -1.1861 -0.3245
  119MOL   H13045206   6.967   2.479   3.397  2.5079 -1.7007 -0.7619
  119MOL   H13145207   7.136   2.600   3.280  0.6289 -0.1355  1.0571
  119MOL   H13245208   7.176   2.700   3.418  1.9882 -1.7424 -0.5664
  119MOL   H13345209   7.189   2.660   3.684  0.2160 -0.4208 -1.7992
  119MOL   H13445210   7.028   2.618   3.726 -0.7994 -0.0063 -1.6623
  119MOL   C13545211   7.002   2.757   3.293  0.5277 -0.4086 -0.8563
  119MOL   C13645212   6.977   2.888   3.382 -0.1148 -0.2588  0.1957
  119MOL   C13745213   7.091   2.976   3.348 -0.5973 -0.0008 -0.0059
  119MOL   C13845214   7.153   2.936   3.214  0.0254 -0.0880  0.5773
  119MOL   C13945215   7.145   3.052   3.103  0.4012 -0.4330 -0.6440
  119MOL   C14045216   7.195   3.004   2.968 -0.9521  0.1273 -0.2563
  119MOL   C14145217   7.066   2.817   3.170  0.3271 -0.1129  0.2007
  119MOL   H14245218   6.906   2.714   3.263 -0.5324  0.0029  1.7951
  119MOL   H14345219   6.896   2.937   3.328 -0.9321 -0.5639  1.1154
  119MOL   H14445220   6.959   2.873   3.489 -1.6151 -0.7069 -0.1119
  119MOL   H14545221   7.056   3.079   3.336  0.3277  0.4973  1.3917
  119MOL   H14645222   7.177   2.976   3.416 -1.7630 -0.2231  1.4847
  119MOL   H14745223   7.257   2.905   3.222  0.1359  0.2141  0.3387
  119MOL   H14845224   7.192   3.149   3.122 -2.4573  0.7862  0.5430
  119MOL   H14945225   7.041   3.077   3.082  0.0970 -2.1673 -1.2966
  119MOL   H15045226   7.298   2.974   2.989 -0.3535  1.1321 -1.6970
  119MOL   H15145227   7.162   2.905   2.937 -0.7285 -0.0026 -0.0856
  119MOL   H15245228   7.120   2.743   3.112 -0.6210  0.1071 -0.9843
  119MOL   H15345229   6.991   2.854   3.099  0.7978 -2.1592 -1.3904
  119MOL   C15445230   7.192   3.100   2.844 -0.0945 -0.3319 -0.0683
  119MOL   C15545231   7.052   3.158   2.806  0.4294 -0.2393 -0.2081
  119MOL   C15645232   7.072   3.193   2.655  0.2136  0.0518  0.2338
  119MOL   C15745233   7.216   3.156   2.616  0.1192 -0.3715  0.3678
  119MOL   C15845234   7.227   3.096   2.472  0.2680 -0.1575 -0.6792
  119MOL   C15945235   7.205   3.202   2.360  0.5049 -1.1114 -0.2297
  119MOL   C16045236   7.257   3.048   2.716 -0.1740 -0.1731 -0.1262
  119MOL   H16145237   7.243   3.193   2.868  0.4847 -0.7467  0.3130
  119MOL   H16245238   6.978   3.078   2.814 -1.1616  1.2781  0.7504
  119MOL   H16345239   7.030   3.253   2.854  0.2475 -1.0833  1.4412
  119MOL   H16445240   7.002   3.131   2.599 -0.8801 -0.8669  2.5367
  119MOL   H16545241   7.058   3.299   2.631 -0.8784 -0.6650 -2.4766
  119MOL   H16645242   7.275   3.248   2.626 -1.4882  0.8894 -1.3916
  119MOL   H16745243   7.161   3.010   2.458 -2.2438  1.4250  1.0532
  119MOL   H16845244   7.321   3.050   2.442  2.3403  3.5161 -0.0610
  119MOL   H16945245   7.122   3.271   2.378  1.2503  0.3450 -2.1718
  119MOL   H17045246   7.290   3.270   2.360 -0.8042  0.5606 -0.7785
  119MOL   H17145247   7.365   3.042   2.727 -0.0310  3.4180  0.8672
  119MOL   H17245248   7.217   2.950   2.688 -0.6200  0.0226 -0.1801
  119MOL   C17345249   7.195   3.152   2.218  0.2024 -0.0003  0.1559
  119MOL   C17445250   7.086   3.055   2.193 -0.6782 -0.0227  0.4426
  119MOL   C17545251   7.030   3.100   2.057  0.7703  0.3636  0.1705
  119MOL   C17645252   7.130   3.190   1.999  0.2105  0.5441 -0.1999
  119MOL   C17745253   7.062   3.276   1.889 -0.7987 -0.3279 -0.2229
  119MOL   C17845254   7.162   3.378   1.830  0.0632 -0.0359  0.2264
  119MOL   C17945255   7.179   3.269   2.120  0.1120  0.0312  0.4528
  119MOL   H18045256   7.293   3.107   2.203 -0.3088 -1.4711  1.1031
  119MOL   H18145257   7.017   3.072   2.276 -0.5184  1.3368  0.3040
  119MOL   H18245258   7.131   2.955   2.195  0.9300  0.6973  1.0917
  119MOL   H18345259   7.011   3.021   1.985 -0.8944 -0.0997  1.0893
  119MOL   H18445260   6.939   3.155   2.081  0.3908  0.6449 -1.8499
  119MOL   H18545261   7.215   3.131   1.965 -1.8370 -1.3015 -2.2622
  119MOL   H18645262   6.976   3.323   1.936 -0.1578 -1.9670  2.6897
  119MOL   H18745263   7.018   3.226   1.802  1.7070 -1.9620 -0.5906
  119MOL   H18845264   7.234   3.320   1.773 -0.2207  0.3445 -0.5250
  119MOL   H18945265   7.212   3.425   1.914  0.6529  0.6626 -0.5089
  119MOL   H19045266   7.105   3.340   2.157 -2.1919 -0.6810 -2.5866
  119MOL   H19145267   7.273   3.322   2.102 -1.0637  1.6090 -1.1573
  119MOL   C19245268   7.099   3.485   1.742 -0.0853 -0.1420  0.0908
  119MOL   C19345269   7.207   3.557   1.662  0.0671 -0.6191  0.4119
  119MOL   C19445270   7.144   3.689   1.626  0.1506 -0.1758  0.1103
  119MOL   C19545271   7.069   3.727   1.755 -0.0481  0.4919 -0.0891
  119MOL   C19645272   6.968   3.827   1.741  0.2952  0.5234  0.1058
  119MOL   C19745273   6.890   3.853   1.874  0.5277  0.2058 -0.1838
  119MOL   C19845274   7.021   3.592   1.815  0.4500  0.0948  0.0795
  119MOL   H19945275   7.043   3.434   1.664  0.2315  0.3113 -0.4342
  119MOL   H20045276   7.286   3.569   1.737  0.3562  4.9523 -0.5728
  119MOL   H20145277   7.237   3.512   1.567 -1.6296  1.5208 -1.1804
  119MOL   H20245278   7.074   3.682   1.543  0.3187  0.4161 -0.0870
  119MOL   H20345279   7.214   3.766   1.592 -1.4186  0.1757 -2.4690
  119MOL   H20445280   7.143   3.769   1.823 -1.2739  0.6312  1.1762
  119MOL   H20545281   6.905   3.779   1.667 -0.6953 -1.2976  2.0987
  119MOL   H20645282   7.007   3.923   1.706 -0.9117  1.2140  0.6535
  119MOL   H20745283   6.962   3.890   1.947 -0.4873  2.6671 -0.3727
  119MOL   H20845284   6.845   3.760   1.909  1.4396 -0.1770  0.0077
  119MOL   H20945285   6.916   3.565   1.811  0.9206 -2.1236  1.9826
  119MOL   H21045286   7.049   3.601   1.919  1.5709  0.1600 -0.2235
  119MOL   C21145287   6.782   3.968   1.862  0.1336  0.2826  0.0954
  119MOL   C21245288   6.832   4.104   1.859 -0.1493 -0.6080 -0.4883
  119MOL   C21345289   6.715   4.191   1.898  0.0549 -0.5672  0.1049
  119MOL   C21445290   6.604   4.099   1.957  0.2704 -0.7271 -0.0446
  119MOL   C21545291   6.530   4.157   2.086 -0.1385  0.6901  0.6070
  119MOL   C21645292   6.412   4.063   2.131  0.2872 -1.0673 -0.4365
  119MOL   C21745293   6.679   3.972   1.973 -0.6638  0.0466  0.4834
  119MOL   H21845294   6.731   3.940   1.769 -1.6193  1.6141  0.6230
  119MOL   H21945295   6.907   4.114   1.937  1.5717 -1.5072 -2.0013
  119MOL   H22045296   6.872   4.132   1.762 -2.3088 -0.4934 -1.3881
  119MOL   H22145297   6.756   4.271   1.960  1.3655 -1.7173  0.7550
  119MOL   H22245298   6.677   4.238   1.807  0.5219 -1.8448 -0.7615
  119MOL   H22345299   6.525   4.073   1.886  1.4499 -0.0574 -1.6151
  119MOL   H22445300   6.482   4.246   2.047  1.5577  1.1750 -0.3892
  119MOL   H22545301   6.601   4.182   2.165 -1.1868 -0.5689  1.9794
  119MOL   H22645302   6.333   4.040   2.060 -0.1285 -2.5489  0.4925
  119MOL   H22745303   6.460   3.968   2.155  0.1595 -0.8872  0.5449
  119MOL   H22845304   6.609   3.891   1.954 -1.0453  0.5179 -0.1104
  119MOL   H22945305   6.722   3.947   2.070  2.0765 -2.6051 -1.3350
  119MOL   C23045306   6.345   4.135   2.250  0.3189  0.7064 -0.4685
  119MOL   C23145307   6.264   4.042   2.338 -0.0877 -0.0503  0.1285
  119MOL   C23245308   6.145   4.119   2.387  0.1873 -0.8230 -0.6679
  119MOL   C23345309   6.105   4.201   2.262  0.1660 -0.1294  0.6962
  119MOL   C23445310   6.000   4.312   2.286  0.1668  0.0733  0.2466
  119MOL   C23545311   5.932   4.351   2.158 -0.1452  0.7489 -0.1802
  119MOL   C23645312   6.239   4.239   2.205 -0.2048  0.3169  0.4756
  119MOL   H23745313   6.426   4.169   2.315  0.2222  0.1135 -0.0352
  119MOL   H23845314   6.229   3.959   2.277 -1.9388 -0.0747  1.1894
  119MOL   H23945315   6.326   3.993   2.413 -1.7578 -0.0439  1.5543
  119MOL   H24045316   6.184   4.194   2.456  2.3188 -1.0076 -1.6323
  119MOL   H24145317   6.062   4.064   2.431  0.0107 -0.7561 -0.9238
  119MOL   H24245318   6.064   4.125   2.195  0.9579 -0.4118  0.5217
  119MOL   H24345319   6.052   4.385   2.349 -1.4520 -0.0640  1.7876
  119MOL   H24445320   5.923   4.280   2.356 -1.7534 -1.7224 -2.6120
  119MOL   H24545321   6.012   4.350   2.084  0.5645  0.5014  0.5817
  119MOL   H24645322   5.861   4.276   2.124  0.3961  0.1301  0.0244
  119MOL   H24745323   6.261   4.343   2.229 -0.6575  0.2686  1.0998
  119MOL   H24845324   6.234   4.239   2.096 -0.0530 -0.4734  0.4647
  119MOL   C24945325   5.853   4.484   2.166 -0.6688 -0.2530 -0.5899
  119MOL   C25045326   5.946   4.603   2.179  0.2363 -0.1388 -0.3703
  119MOL   C25145327   5.865   4.723   2.135 -0.1467  0.2898  0.3137
  119MOL   C25245328   5.785   4.673   2.014 -0.1751  0.6561  0.3348
  119MOL   C25345329   5.653   4.746   1.982  0.3253 -0.3376 -0.1198
  119MOL   C25445330   5.584   4.687   1.851 -0.6303  0.1993 -0.3898
  119MOL   C25545331   5.771   4.516   2.038  1.2939  0.7272  0.5772
  119MOL   H25645332   5.780   4.481   2.247  1.8800  0.6651  1.8047
  119MOL   H25745333   5.984   4.628   2.278 -2.9733 -1.3816  1.2434
  119MOL   H25845334   6.026   4.589   2.106 -0.0615 -2.7156 -0.2476
  119MOL   H25945335   5.927   4.810   2.115  2.1378 -1.6004 -1.1587
  119MOL   H26045336   5.798   4.741   2.219  0.4463  0.4516  0.7560
  119MOL   H26145337   5.848   4.676   1.925 -3.7470  1.8606 -2.2425
  119MOL   H26245338   5.687   4.848   1.966 -0.5430 -0.2068 -1.1689
  119MOL   H26345339   5.591   4.749   2.071 -1.3146  1.3925 -1.2900
  119MOL   H26445340   5.582   4.578   1.857 -1.9111  0.1179 -2.0723
  119MOL   H26545341   5.653   4.715   1.771 -1.5680 -0.0234 -1.2828
  119MOL   H26645342   5.797   4.468   1.943  2.4475  1.1321  0.6842
  119MOL   H26745343   5.663   4.501   2.048  1.2470 -0.8988 -1.8030
  119MOL   C26845344   5.436   4.738   1.836  0.1341 -1.1896  0.8082
  119MOL   C26945345   5.355   4.647   1.736  0.3371 -0.1577  0.0956
  119MOL   C27045346   5.305   4.722   1.616 -0.1980 -0.3451  0.1621
  119MOL   C27145347   5.289   4.861   1.672 -0.4500 -0.2794 -0.4292
  119MOL   C27245348   5.281   4.979   1.580 -0.5036 -0.1345 -0.2140
  119MOL   C27345349   5.147   4.973   1.495  0.5316  0.3906  0.2836
  119MOL   C27445350   5.414   4.874   1.765  0.2748  0.6503  0.5599
  119MOL   H27545351   5.390   4.746   1.934 -0.8761  2.5321  0.1146
  119MOL   H27645352   5.407   4.556   1.707  0.6628  0.0950 -0.1094
  119MOL   H27745353   5.264   4.604   1.778  0.1515  0.5245  0.3893
  119MOL   H27845354   5.395   4.717   1.556 -1.5873  1.1544 -2.1474
  119MOL   H27945355   5.217   4.676   1.572  0.0838 -0.3101 -0.4398
  119MOL   H28045356   5.204   4.876   1.738 -1.3791 -3.2265 -0.9055
  119MOL   H28145357   5.376   4.988   1.527 -1.2614 -2.1741 -2.0266
  119MOL   H28245358   5.284   5.067   1.644 -1.5253 -1.2271  1.3782
  119MOL   H28345359   5.129   4.870   1.462 -1.0168  0.7818 -0.1252
  119MOL   H28445360   5.060   4.988   1.559  1.3094  2.1040  0.9677
  119MOL   H28545361   5.497   4.902   1.699 -2.1184  1.6723 -2.1575
  119MOL   H28645362   5.412   4.957   1.836 -0.2036 -0.8395  2.3016
  119MOL   C28745363   5.135   5.078   1.383  0.5944 -0.4976 -0.2126
  119MOL   C28845364   5.231   5.072   1.263 -0.0874 -0.2285  0.0159
  119MOL   C28945365   5.166   5.147   1.145  0.6917 -0.0103 -0.2491
  119MOL   C29045366   5.014   5.154   1.181 -0.1286  0.1909 -0.5867
  119MOL   C29145367   4.920   5.111   1.066  0.8049  0.1026 -0.1660
  119MOL   C29245368   4.779   5.088   1.104  0.4009 -0.4624 -0.1170
  119MOL   C29345369   4.999   5.079   1.313  0.2777  0.0254  0.4797
  119MOL   H29445370   5.148   5.177   1.425  0.4355 -0.0937 -1.1189
  119MOL   H29545371   5.321   5.122   1.298 -1.4883  1.6093  1.1329
  119MOL   H29645372   5.256   4.968   1.243  3.3611  0.3471  1.0229
  119MOL   H29745373   5.183   5.108   1.045 -1.0232 -0.2253 -0.4733
  119MOL   H29845374   5.202   5.249   1.136 -0.9037  0.4205 -1.9885
  119MOL   H29945375   4.980   5.256   1.198 -0.3303 -0.1682  1.2635
  119MOL   H30045376   4.954   5.017   1.021  0.3586 -0.7350  1.2211
  119MOL   H30145377   4.928   5.194   0.996  2.9453  0.0009 -0.0742
  119MOL   H30245378   4.758   5.184   1.152 -0.8852 -0.2240 -1.1401
  119MOL   H30345379   4.765   5.007   1.175 -1.8889 -0.9632 -1.1094
  119MOL   H30445380   4.969   4.974   1.305 -1.2682  0.6277 -2.0013
  119MOL   H30545381   4.919   5.129   1.367  1.7898  1.6920  1.2324
  119MOL   C30645382   4.684   5.065   0.989  0.3996 -0.1894  0.1147
  119MOL   C30745383   4.709   4.947   0.898  0.3287  0.6844 -0.8084
  119MOL   C30845384   4.576   4.910   0.843  0.2791  0.0093 -0.1536
  119MOL   C30945385   4.471   5.004   0.900 -0.3308 -0.8634 -0.0431
  119MOL   C31045386   4.331   4.951   0.920 -0.5735 -0.4016  0.8939
  119MOL   C31145387   4.278   4.863   0.809 -0.0084  0.0647  0.2610
  119MOL   C31245388   4.541   5.055   1.027  0.2621  0.0599 -0.6710
  119MOL   H31345389   4.680   5.154   0.927 -0.6774  0.0170  0.4588
  119MOL   H31445390   4.783   4.977   0.824 -0.4979  1.0974 -1.4804
  119MOL   H31545391   4.747   4.867   0.962  0.1422  0.5401 -0.8741
  119MOL   H31645392   4.580   4.918   0.735 -0.2822  2.9000  0.0013
  119MOL   H31745393   4.559   4.804   0.861  0.2301  0.2767  1.4418
  119MOL   H31845394   4.472   5.089   0.831 -0.2775  0.0025  1.0202
  119MOL   H31945395   4.335   4.887   1.008 -0.4881 -1.8357 -0.1355
  119MOL   H32045396   4.270   5.035   0.953  0.2417  0.1553  1.0202
  119MOL   H32145397   4.346   4.779   0.798 -1.6731 -1.1181 -1.3562
  119MOL   H32245398   4.268   4.909   0.711  3.1843 -0.3835 -0.3286
  119MOL   H32345399   4.516   4.981   1.103 -0.7871  1.2181  0.1186
  119MOL   H32445400   4.495   5.151   1.049  0.0885  0.2291 -1.7429
  119MOL   C32545401   4.140   4.797   0.820  0.2284  0.3443 -0.5217
  119MOL   C32645402   4.099   4.689   0.717 -0.7653 -0.3414 -0.3349
  119MOL   C32745403   3.987   4.612   0.798 -0.0347 -0.5391  0.7708
  119MOL   C32845404   4.045   4.593   0.938  0.0245  0.1719  1.0190
  119MOL   C32945405   3.935   4.570   1.047 -0.3102 -0.3645 -0.1321
  119MOL   C33045406   3.989   4.542   1.187 -0.2311 -0.7013  0.0390
  119MOL   C33145407   4.127   4.725   0.957 -0.0498 -0.2649  0.4077
  119MOL   H33245408   4.063   4.873   0.815  0.7369  1.0234  1.5201
  119MOL   H33345409   4.176   4.613   0.712  0.0068  0.3131  1.2311
  119MOL   H33445410   4.060   4.718   0.619 -1.2142 -0.4501 -0.1906
  119MOL   H33545411   3.902   4.680   0.806 -0.2775 -0.6502 -0.6543
  119MOL   H33645412   3.952   4.519   0.754  2.8312 -1.0919 -0.4873
  119MOL   H33745413   4.114   4.509   0.941 -2.3688 -1.8403  1.1956
  119MOL   H33845414   3.878   4.663   1.047  0.9437  0.4075 -0.4099
  119MOL   H33945415   3.869   4.488   1.017 -0.6803  0.3115 -1.1826
  119MOL   H34045416   4.062   4.461   1.180 -0.3522 -0.6331 -2.8254
  119MOL   H34145417   4.051   4.630   1.204  0.3112 -0.4849 -2.8018
  119MOL   H34245418   4.221   4.680   0.990  0.4240  0.2162 -0.2763
  119MOL   H34345419   4.080   4.802   1.019 -0.0829  0.4008 -0.4402
  119MOL   C34445420   3.870   4.509   1.284  0.2104  0.1007  0.5302
  119MOL   C34545421   3.755   4.609   1.295 -0.2545 -0.3944 -0.1624
  119MOL   C34645422   3.693   4.561   1.432 -1.0831 -0.3971  0.2470
  119MOL   C34745423   3.810   4.522   1.518 -0.4079 -0.2346 -0.6649
  119MOL   C34845424   3.787   4.428   1.642 -0.7404 -0.3608 -0.3096
  119MOL   C34945425   3.727   4.291   1.622 -0.2473 -0.2663 -0.0364
  119MOL   C35045426   3.924   4.490   1.422 -0.2929 -0.0990  0.1459
  119MOL   H35145427   3.833   4.412   1.251  2.1760 -0.6314  0.3877
  119MOL   H35245428   3.682   4.619   1.215  1.3701 -2.1453 -1.9182
  119MOL   H35345429   3.800   4.706   1.312 -0.7154 -0.6746  3.0153
  119MOL   H35445430   3.634   4.636   1.485  0.4544  2.3242 -1.7701
  119MOL   H35545431   3.632   4.473   1.408 -0.9863 -0.0889 -1.2142
  119MOL   H35645432   3.855   4.611   1.562  0.7027 -0.6133 -1.0078
  119MOL   H35745433   3.889   4.416   1.678 -0.0657 -1.3864 -2.4629
  119MOL   H35845434   3.736   4.494   1.712 -3.5616 -0.1390 -2.4729
  119MOL   H35945435   3.745   4.267   1.517 -2.4368 -0.4201 -0.4052
  119MOL   H36045436   3.618   4.294   1.613 -0.1787  0.7963 -0.5470
  119MOL   H36145437   4.013   4.551   1.441  0.0540 -0.7425  0.6216
  119MOL   H36245438   3.955   4.388   1.444  0.1989 -0.2252 -1.0696
  119MOL   C36345439   3.743   4.190   1.745  0.9666 -0.0860 -0.0047
  119MOL   C36445440   3.692   4.047   1.707  0.1380  0.8020 -0.1941
  119MOL   C36545441   3.634   3.986   1.833 -0.6515  0.1776  0.0668
  119MOL   C36645442   3.667   4.091   1.941  0.2877 -0.1732  0.1471
  119MOL   C36745443   3.575   4.077   2.064 -0.1167  0.3256 -0.4881
  119MOL   C36845444   3.585   3.940   2.132 -0.0876 -0.3769 -0.2255
  119MOL   C36945445   3.673   4.226   1.876 -0.0629 -0.1220 -0.0034
  119MOL   H37045446   3.851   4.186   1.761  0.8628 -0.6234  0.5998
  119MOL   H37145447   3.618   4.073   1.630  1.5390  3.1244 -0.8052
  119MOL   H37245448   3.762   3.990   1.646 -1.8696 -0.1763 -1.6607
  119MOL   H37345449   3.527   3.966   1.824 -0.4427 -0.3148 -1.4849
  119MOL   H37445450   3.678   3.888   1.849 -1.3770 -0.2439 -0.4474
  119MOL   H37545451   3.766   4.066   1.979  0.0375  1.0081  1.6664
  119MOL   H37645452   3.608   4.150   2.138 -1.0813  0.2078  0.0660
  119MOL   H37745453   3.471   4.094   2.035 -0.7664 -1.7026  0.5827
  119MOL   H37845454   3.688   3.930   2.166  0.5675 -0.4006 -2.1571
  119MOL   H37945455   3.560   3.858   2.063  0.0129 -1.3575  0.8943
  119MOL   H38045456   3.569   4.252   1.861 -0.0711 -0.2053 -0.0956
  119MOL   H38145457   3.729   4.301   1.931 -0.7723  2.5206 -2.7510
  119MOL   H38245458   3.514   3.950   2.214  0.8534  0.1585  0.5338
  120MOL     C145459   0.520   3.060   0.151  0.5416  0.1267 -0.0236
  120MOL     C245460   0.453   3.036   0.022 -0.1237 -0.8828 -0.9926
  120MOL     C345461   0.329   3.134   0.023  0.3015 -0.5345  1.0166
  120MOL     C445462   0.383   3.259   0.095 -0.0425  0.4209 -0.9203
  120MOL     C545463   0.279   3.360   0.157  0.2437  0.2611 -0.1053
  120MOL     C645464   0.338   3.490   0.220  0.1570 -0.1314 -0.4899
  120MOL     C745465   0.477   3.197   0.201  0.0906 -0.1415  0.4630
  120MOL     H845466   0.492   2.990   0.230  2.2941  1.1770  1.5686
  120MOL     H945467   0.419   2.933   0.013  1.2860 -1.6859  2.3000
  120MOL    H1045468   0.519   3.063   7.587 -1.6306 -1.4329 -2.4188
  120MOL    H1145469   0.295   3.152   7.568  0.4933 -0.6369  0.9351
  120MOL    H1245470   0.240   3.093   0.070 -0.8478 -0.1187 -0.7194
  120MOL    H1345471   0.437   3.320   0.022 -0.4995  1.3691 -0.4830
  120MOL    H1445472   0.207   3.380   0.078  0.9217 -0.8457 -1.0109
  120MOL    H1545473   0.209   3.310   0.224 -2.7502  1.7331 -2.0168
  120MOL    H1645474   0.415   3.474   0.296  0.0177  0.3645 -0.2440
  120MOL    H1745475   0.387   3.552   0.146  1.1134  1.2809  1.3033
  120MOL    H1845476   0.561   3.263   0.225  0.6818 -0.0456 -1.7188
  120MOL    H1945477   0.422   3.180   0.293 -0.4413 -1.9573 -0.1691
  120MOL    H2045478   0.628   3.063   0.142  0.4584 -0.1673 -1.1155
  120MOL    C2145479   0.229   3.573   0.290 -0.4421  0.0375  0.2566
  120MOL    C2245480   0.268   3.705   0.333 -0.8816  0.3056  0.7182
  120MOL    C2345481   0.136   3.784   0.350  0.2150  0.4425  0.3012
  120MOL    C2445482   0.033   3.712   0.267  0.8328  0.1075 -0.1763
  120MOL    C2545483   7.606   3.810   0.175 -0.1326  0.2369  0.5927
  120MOL    C2645484   7.519   3.736   0.066  0.3063 -0.3040  0.5080
  120MOL    C2745485   0.120   3.610   0.187  0.5038  0.3379  0.1412
  120MOL    H2845486   0.184   3.511   0.367  4.8466 -2.9457  1.2051
  120MOL    H2945487   0.322   3.684   0.425  2.9423  0.7167 -1.3361
  120MOL    H3045488   0.323   3.756   0.253  1.3123 -3.0431  0.0051
  120MOL    H3145489   0.094   3.789   0.451 -2.4888  0.2332 -0.7734
  120MOL    H3245490   0.143   3.888   0.317 -2.4456  0.3296 -0.7573
  120MOL    H3345491   7.616   3.652   0.332  3.8068 -2.0104  0.9418
  120MOL    H3445492   0.017   3.890   0.129  1.4761  0.2942  2.6468
  120MOL    H3545493   7.541   3.876   0.231 -0.9261 -0.4291  0.4627
  120MOL    H3645494   7.586   3.687   7.644  0.3322  0.3711  0.0477
  120MOL    H3745495   7.470   3.812   0.004  2.4930  1.3111  0.6921
  120MOL    H3845496   0.054   3.529   0.154  0.4284 -0.4627  2.1637
  120MOL    H3945497   0.161   3.663   0.102 -0.9275 -0.4539 -1.0743
  120MOL    C4045498   7.410   3.645   0.120  0.1215  0.1304  0.0685
  120MOL    C4145499   7.292   3.700   0.197  0.4886  0.1034 -0.1818
  120MOL    C4245500   7.172   3.611   0.180 -0.7064 -0.6300 -0.2508
  120MOL    C4345501   7.194   3.576   0.037  0.3977  0.1002  0.0447
  120MOL    C4445502   7.104   3.454   7.647 -0.3019  0.3851  0.1140
  120MOL    C4545503   7.126   3.429   7.496  0.0901 -0.1139  0.1708
  120MOL    C4645504   7.345   3.560   0.015 -0.2203  0.6851 -0.2741
  120MOL    H4745505   7.471   3.574   0.177  1.9446  1.1296 -0.5972
  120MOL    H4845506   7.273   3.794   0.145 -0.8767 -0.7002 -1.1587
  120MOL    H4945507   7.328   3.715   0.299  1.4735  0.2877 -0.5436
  120MOL    H5045508   7.180   3.527   0.249  1.2301  1.3619  2.0180
  120MOL    H5145509   7.075   3.656   0.201 -0.3238 -0.7780  1.9581
  120MOL    H5245510   7.164   3.662   7.624 -1.2155 -1.1403 -0.9453
  120MOL    H5345511   7.126   3.362   0.055 -1.3034  0.0647  0.0010
  120MOL    H5445512   7.000   3.480   0.021 -0.1838  0.2738  0.8618
  120MOL    H5545513   7.227   3.392   7.480 -0.4653 -0.6064 -2.4085
  120MOL    H5645514   7.115   3.522   7.441 -0.7312 -0.1420  0.2843
  120MOL    H5745515   7.378   3.456   0.019  0.8781  1.0189 -0.5540
  120MOL    H5845516   7.374   3.597   7.564  0.3863 -1.7721 -1.0420
  120MOL    C5945517   7.017   3.334   7.438 -0.5529 -0.2573 -0.2071
  120MOL    C6045518   6.996   3.346   7.290  0.1038 -0.2391  0.1148
  120MOL    C6145519   6.933   3.209   7.255  0.0367  0.0836 -0.5741
  120MOL    C6245520   7.015   3.109   7.331  0.1765  0.1065 -0.3095
  120MOL    C6345521   6.946   2.973   7.348 -0.7413 -0.4390  0.1684
  120MOL    C6445522   7.029   2.858   7.404 -0.5488  0.1076 -0.5060
  120MOL    C6545523   7.054   3.183   7.462 -0.2210  0.1980  0.1438
  120MOL    H6645524   6.920   3.357   7.482 -0.0437  0.4223  0.5632
  120MOL    H6745525   6.938   3.434   7.265  1.4355  0.6690  0.1585
  120MOL    H6845526   7.093   3.346   7.240 -0.6803 -1.4264 -1.4355
  120MOL    H6945527   6.832   3.198   7.294 -0.2822  3.9701 -0.0240
  120MOL    H7045528   6.942   3.191   7.147  2.1058  0.3774 -0.4771
  120MOL    H7145529   7.111   3.095   7.282 -0.6100 -0.1435 -1.8351
  120MOL    H7245530   6.903   2.947   7.251  0.5601  0.5663 -0.7020
  120MOL    H7345531   6.860   2.970   7.415  0.7476  1.5632  2.2425
  120MOL    H7445532   7.137   2.869   7.394  0.0105 -1.3313  2.9455
  120MOL    H7545533   7.003   2.841   7.509 -1.3499 -0.8483 -0.8516
  120MOL    H7645534   6.989   3.139   7.537  0.2383 -0.2721  0.2662
  120MOL    H7745535   7.160   3.172   7.487 -0.2834 -1.3691 -0.2255
  120MOL    C7845536   6.985   2.729   7.335 -0.1707  0.3689 -0.1990
  120MOL    C7945537   7.021   2.720   7.185 -0.2190  0.2724 -0.2002
  120MOL    C8045538   7.045   2.569   7.153 -0.8953  0.5769  0.1709
  120MOL    C8145539   7.037   2.493   7.286  0.3333  0.0045 -0.3534
  120MOL    C8245540   7.129   2.377   7.298 -0.2862 -0.3765  0.3148
  120MOL    C8345541   7.108   2.265   7.201  0.3903  0.3217  0.1865
  120MOL    C8445542   7.047   2.608   7.389 -0.0364 -0.6652 -0.5139
  120MOL    H8545543   6.877   2.714   7.342 -0.0982 -0.4195 -0.6679
  120MOL    H8645544   6.941   2.767   7.129  0.8333  0.5396 -1.4875
  120MOL    H8745545   7.112   2.777   7.173  0.5423 -0.8211  0.2969
  120MOL    H8845546   6.962   2.530   7.094 -1.5160  0.3572  1.1886
  120MOL    H8945547   7.136   2.554   7.095 -2.2407 -0.0283 -1.8886
  120MOL    H9045548   6.938   2.447   7.281  0.2417 -0.0386  1.5013
  120MOL    H9145549   7.128   2.339   7.400 -1.7211 -3.2113 -0.7123
  120MOL    H9245550   7.234   2.406   7.295  0.2923 -2.3593  0.6687
  120MOL    H9345551   7.163   2.299   7.113 -0.2684 -0.3282 -0.4904
  120MOL    H9445552   7.005   2.267   7.166  0.9983 -0.0527 -1.7039
  120MOL    H9545553   7.152   2.621   7.415 -0.0111 -0.6537 -0.6209
  120MOL    H9645554   6.991   2.582   7.479  0.8311 -0.2225  0.1625
  120MOL    C9745555   7.141   2.126   7.265  0.0192  0.2836  0.1134
  120MOL    C9845556   7.282   2.110   7.321  0.5481  0.4145  0.9825
  120MOL    C9945557   7.348   2.004   7.239 -0.1447  0.1262  0.6704
  120MOL   C10045558   7.236   1.910   7.190 -0.0508 -0.3570 -0.0897
  120MOL   C10145559   7.264   1.829   7.056 -0.1135  0.0901 -0.4392
  120MOL   C10245560   7.159   1.727   7.027 -0.5202 -0.0693  0.0027
  120MOL   C10345561   7.117   2.007   7.176 -0.6717  0.6477  0.3778
  120MOL   H10445562   7.067   2.131   7.345 -0.4346  0.4111 -0.3117
  120MOL   H10545563   7.327   2.209   7.315 -1.7967  1.4643 -0.0243
  120MOL   H10645564   7.262   2.072   7.422  0.9989 -0.3454  0.7894
  120MOL   H10745565   7.389   2.055   7.152  1.2081 -0.1479  1.1440
  120MOL   H10845566   7.434   1.952   7.281 -0.3736 -2.9956 -2.4524
  120MOL   H10945567   7.215   1.833   7.265  3.0502  1.3146  2.5802
  120MOL   H11045568   7.297   1.887   6.970 -3.0774  4.1936  1.0274
  120MOL   H11145569   7.363   1.787   7.074  0.0160  0.4636 -0.2769
  120MOL   H11245570   7.140   1.651   7.103  2.7067  0.1417  1.0750
  120MOL   H11345571   7.065   1.783   7.026 -0.3448  0.2615 -4.1423
  120MOL   H11445572   7.103   2.033   7.071  0.0537 -0.5528 -0.0321
  120MOL   H11545573   7.022   1.957   7.194 -1.0119  0.5838 -1.4711
  120MOL   C11645574   7.162   1.646   6.886  0.5185  0.6496 -0.0505
  120MOL   C11745575   7.277   1.546   6.873 -0.0351 -0.2683 -0.3729
  120MOL   C11845576   7.241   1.444   6.763  0.0108 -0.1404  0.4128
  120MOL   C11945577   7.088   1.459   6.752 -1.5064 -0.0649  0.2592
  120MOL   C12045578   7.006   1.333   6.732 -0.1469 -1.6236  0.3535
  120MOL   C12145579   7.014   1.286   6.587 -0.1928  0.3160 -0.2481
  120MOL   C12245580   7.042   1.558   6.858  0.8441 -0.3565 -0.4734
  120MOL   H12345581   7.173   1.705   6.795 -0.6171  1.3828  0.2775
  120MOL   H12445582   7.276   1.497   6.970  3.4817 -1.7196 -1.0007
  120MOL   H12545583   7.377   1.587   6.861 -0.1836 -0.0018 -0.7158
  120MOL   H12645584   7.277   1.349   6.801 -1.5942 -0.4056  1.2940
  120MOL   H12745585   7.290   1.459   6.667 -0.4453 -0.0290  0.1963
  120MOL   H12845586   7.079   1.518   6.661 -2.6021 -0.6739 -0.0372
  120MOL   H12945587   6.903   1.360   6.756 -0.4298 -1.3656 -1.1047
  120MOL   H13045588   7.045   1.265   6.807 -2.5475 -1.0925  2.1599
  120MOL   H13145589   7.120   1.301   6.565 -0.2791  2.0746  0.4946
  120MOL   H13245590   6.948   1.350   6.529  0.1856  0.4504 -0.5308
  120MOL   H13345591   6.962   1.626   6.829  1.5708  1.9102  2.5119
  120MOL   H13445592   7.011   1.511   6.951  3.0992  2.1302  1.6341
  120MOL   C13545593   6.956   1.142   6.568  0.3707  0.6902  0.4709
  120MOL   C13645594   6.925   1.094   6.422 -0.6230  0.5761 -0.7520
  120MOL   C13745595   7.016   0.973   6.383 -0.0789  0.0514 -0.3184
  120MOL   C13845596   7.059   0.918   6.524  0.5223  0.2746 -0.2096
  120MOL   C13945597   6.976   0.797   6.581 -0.6107 -0.1974 -0.1141
  120MOL   C14045598   6.989   0.670   6.497 -0.9781  0.4630  0.7009
  120MOL   C14145599   7.052   1.035   6.623  0.3829  0.2672 -0.2923
  120MOL   H14245600   6.855   1.136   6.608 -0.5452  3.2599 -1.3180
  120MOL   H14345601   6.823   1.061   6.404 -0.3801  0.0265 -1.1454
  120MOL   H14445602   6.929   1.179   6.353  1.4993  2.4129  1.5650
  120MOL   H14545603   6.968   0.897   6.322  1.0075 -0.3523 -0.6840
  120MOL   H14645604   7.109   1.013   6.342  0.8308 -3.3858 -1.8028
  120MOL   H14745605   7.162   0.883   6.519  0.9207  1.3800  0.1365
  120MOL   H14845606   6.871   0.824   6.593 -0.9651 -0.9249 -1.5171
  120MOL   H14945607   7.006   0.776   6.683  1.1528 -0.2768 -0.6296
  120MOL   H15045608   6.954   0.682   6.395  1.6939 -0.4298 -0.3499
  120MOL   H15145609   7.090   0.632   6.488 -1.3824 -0.1249 -1.4992
  120MOL   H15245610   7.151   1.080   6.634  0.5957 -0.3291  0.2588
  120MOL   H15345611   7.028   0.996   6.722 -1.8936 -1.2709 -1.4296
  120MOL   C15445612   6.917   0.550   6.563 -0.1065 -0.3461  0.3891
  120MOL   C15545613   6.924   0.419   6.479  0.1615 -0.1716  0.7762
  120MOL   C15645614   6.794   0.345   6.503  0.6709  0.2692  0.2376
  120MOL   C15745615   6.715   0.428   6.611  0.1917  0.3497  0.1362
  120MOL   C15845616   6.564   0.417   6.596 -0.1211 -0.7722 -0.8972
  120MOL   C15945617   6.482   0.479   6.714  0.5216  0.5071  0.4113
  120MOL   C16045618   6.773   0.570   6.595  0.5939  0.1772  0.1860
  120MOL   H16145619   6.963   0.521   6.658  0.8207 -0.2879 -0.0354
  120MOL   H16245620   6.938   0.447   6.375  0.5587  1.7512  1.3204
  120MOL   H16345621   7.001   0.353   6.519  0.1060 -0.3216  0.6376
  120MOL   H16445622   6.734   0.351   6.412  0.8517 -0.9783  0.0306
  120MOL   H16545623   6.806   0.241   6.533  0.8335 -0.2988 -1.7426
  120MOL   H16645624   6.747   0.386   6.706  1.9461  1.2332 -0.0577
  120MOL   H16745625   6.531   0.313   6.592 -2.3895 -0.1655  1.0907
  120MOL   H16845626   6.542   0.459   6.498  0.7815 -0.2905 -0.8929
  120MOL   H16945627   6.488   0.411   6.799 -1.0834 -1.2291 -0.8002
  120MOL   H17045628   6.538   0.567   6.746  0.5553  1.2349 -1.5842
  120MOL   H17145629   6.758   0.619   6.691 -0.2929 -1.2929  0.8133
  120MOL   H17245630   6.719   0.614   6.510  0.4265 -0.7123 -0.1750
  120MOL   C17345631   6.336   0.499   6.671  0.3816  0.5213 -0.6067
  120MOL   C17445632   6.268   0.368   6.656  0.2927 -0.0035 -0.1836
  120MOL   C17545633   6.121   0.395   6.677  0.5195 -0.7908 -0.8782
  120MOL   C17645634   6.099   0.536   6.732 -0.5275 -0.0693 -0.3770
  120MOL   C17745635   6.004   0.545   6.855 -0.2276 -0.5975 -0.1241
  120MOL   C17845636   5.967   0.692   6.907 -0.1627  0.2685  0.0901
  120MOL   C17945637   6.245   0.578   6.765  0.1911 -0.2567 -0.0632
  120MOL   H18045638   6.335   0.540   6.570  1.2622  1.5354 -0.2165
  120MOL   H18145639   6.313   0.295   6.723  0.0609 -1.2087 -1.3349
  120MOL   H18245640   6.263   0.329   6.555 -0.5388 -1.0877  0.2593
  120MOL   H18345641   6.058   0.369   6.592  1.0579  0.5388 -1.6941
  120MOL   H18445642   6.081   0.325   6.751  1.7657 -0.6653 -0.0798
  120MOL   H18545643   6.066   0.594   6.646  0.3342  2.6669  1.0812
  120MOL   H18645644   6.022   0.471   6.933 -3.1097 -1.6376 -0.3539
  120MOL   H18745645   5.908   0.502   6.824 -0.6932 -0.7102  1.4272
  120MOL   H18845646   6.064   0.741   6.918 -0.9503  1.7876  0.3323
  120MOL   H18945647   5.930   0.689   7.009 -1.0470  2.3680 -0.1449
  120MOL   H19045648   6.263   0.553   6.870 -1.7672 -1.4623  0.0055
  120MOL   H19145649   6.260   0.683   6.742 -0.4359 -0.0376  0.5029
  120MOL   C19245650   5.867   0.782   6.820  0.1617  0.2044  0.2918
  120MOL   C19345651   5.932   0.875   6.716  0.2129  0.3180 -0.5759
  120MOL   C19445652   5.839   1.003   6.718 -0.3925  0.0903  0.0707
  120MOL   C19545653   5.775   1.005   6.859 -0.6152 -0.3668 -0.2283
  120MOL   C19645654   5.635   1.056   6.862  0.3693 -0.8211 -0.1100
  120MOL   C19745655   5.620   1.195   6.824 -0.8455  0.4848  0.1616
  120MOL   C19845656   5.781   0.864   6.917  0.1848  0.2404  0.3928
  120MOL   H19945657   5.801   0.718   6.761  1.3275 -0.4737 -0.2847
  120MOL   H20045658   6.028   0.895   6.765 -0.0437 -0.9711  0.4970
  120MOL   H20145659   5.949   0.830   6.619 -0.2449 -1.7935  0.2940
  120MOL   H20245660   5.762   0.993   6.642  0.5644  0.7796 -1.0060
  120MOL   H20345661   5.904   1.085   6.687  0.2083  0.2151  1.5998
  120MOL   H20445662   5.833   1.072   6.922  0.1022 -0.8660 -0.3413
  120MOL   H20545663   5.582   1.038   6.956 -1.2135 -2.6908 -1.3130
  120MOL   H20645664   5.585   0.998   6.784 -1.5868  1.5844 -0.6933
  120MOL   H20745665   5.645   1.208   6.719 -1.9956  0.1199 -0.1650
  120MOL   H20845666   5.688   1.266   6.873 -0.3997  0.6126 -0.6423
  120MOL   H20945667   5.682   0.823   6.932  0.4380 -0.1082  1.1179
  120MOL   H21045668   5.831   0.868   7.013  0.0461  1.5786  0.4190
  120MOL   C21145669   5.475   1.251   6.836  0.9099  0.1646  0.7328
  120MOL   C21245670   5.456   1.394   6.787  0.1257  0.0469 -0.6954
  120MOL   C21345671   5.346   1.457   6.860 -0.1364  0.3620  0.1198
  120MOL   C21445672   5.302   1.364   6.970  0.3243 -0.5150  0.6637
  120MOL   C21545673   5.268   1.424   7.105  0.3891  0.1745  0.0869
  120MOL   C21645674   5.144   1.521   7.109 -0.7810  0.2725 -0.5689
  120MOL   C21745675   5.414   1.249   6.976 -0.4187 -0.0369 -0.2918
  120MOL   H21845676   5.422   1.172   6.783 -0.6385  0.9461  1.1085
  120MOL   H21945677   5.549   1.449   6.795 -0.7466  1.4169  0.1442
  120MOL   H22045678   5.437   1.395   6.680 -1.8734 -1.3306 -0.3795
  120MOL   H22145679   5.384   1.551   6.899 -0.1273  0.1321  0.6600
  120MOL   H22245680   5.262   1.472   6.792  0.6927 -0.8675 -1.1949
  120MOL   H22345681   5.213   1.311   6.937 -0.8695  0.8925  1.5763
  120MOL   H22445682   5.363   1.469   7.136  0.3079  1.0771 -0.9608
  120MOL   H22545683   5.240   1.344   7.174 -1.1680  0.8136  0.2053
  120MOL   H22645684   5.139   1.584   7.198 -1.9925  1.0743 -1.1810
  120MOL   H22745685   5.161   1.587   7.025  2.1704  0.9029  0.4789
  120MOL   H22845686   5.370   1.152   6.999 -0.1577 -0.1202 -0.1461
  120MOL   H22945687   5.494   1.274   7.046 -0.1978  1.5131 -1.0812
  120MOL   C23045688   5.007   1.445   7.098  0.3207 -0.0515 -0.5116
  120MOL   C23145689   4.891   1.544   7.123  0.7257 -0.4061 -0.1815
  120MOL   C23245690   4.778   1.459   7.170  0.3600  0.0112 -0.0103
  120MOL   C23345691   4.841   1.334   7.245  0.3067  0.0110 -0.1898
  120MOL   C23445692   4.751   1.211   7.232 -0.9820  0.7212 -0.3813
  120MOL   C23545693   4.798   1.090   7.313  0.3763 -0.4829 -0.6978
  120MOL   C23645694   4.989   1.326   7.195 -0.0103  0.4148 -0.0418
  120MOL   H23745695   5.005   1.414   6.993  0.5821 -1.6135 -0.0633
  120MOL   H23845696   4.919   1.626   7.190 -2.6634  1.6584 -1.1174
  120MOL   H23945697   4.855   1.595   7.033  0.4225  0.9769  0.6982
  120MOL   H24045698   4.721   1.426   7.083 -1.0946 -0.4143  1.1029
  120MOL   H24145699   4.718   1.529   7.229 -2.4174  1.7020 -4.5656
  120MOL   H24245700   4.844   1.353   7.352 -0.2631 -2.1359  0.2169
  120MOL   H24345701   4.752   1.185   7.127  1.2682  1.4247 -0.5480
  120MOL   H24445702   4.646   1.234   7.254 -0.5408  0.3355  2.3913
  120MOL   H24545703   4.895   1.057   7.277  1.0273 -0.5658  1.0917
  120MOL   H24645704   4.814   1.129   7.414  0.3544  0.6005 -1.1070
  120MOL   H24745705   5.026   1.231   7.156  0.7795  1.7994 -2.7407
  120MOL   H24845706   5.046   1.331   7.288 -1.1485  0.3050  0.6856
  120MOL   C24945707   4.696   0.976   7.301 -0.1367 -0.1732  0.2196
  120MOL   C25045708   4.736   0.862   7.390 -1.0199  0.2807 -0.3004
  120MOL   C25145709   4.604   0.769   7.385  0.1864  0.0030  0.2194
  120MOL   C25245710   4.489   0.871   7.380  0.2168 -0.2961 -0.2264
  120MOL   C25345711   4.366   0.833   7.297  0.1802  0.2534  0.1974
  120MOL   C25445712   4.264   0.748   7.377 -0.3424  1.0317 -0.1515
  120MOL   C25545713   4.553   1.006   7.341 -0.5528 -0.4068 -0.1414
  120MOL   H25645714   4.686   0.939   7.198  1.3308  0.0952 -0.0267
  120MOL   H25745715   4.827   0.808   7.363 -1.7915  0.0536 -2.4970
  120MOL   H25845716   4.758   0.905   7.488 -0.0542  1.4255 -1.0194
  120MOL   H25945717   4.584   0.694   7.462  0.5115  0.1706  0.4669
  120MOL   H26045718   4.600   0.716   7.290  0.2858  1.2329 -0.4789
  120MOL   H26145719   4.449   0.897   7.477 -0.3810  0.0436 -0.5603
  120MOL   H26245720   4.394   0.775   7.208 -0.0708 -0.8023  0.7935
  120MOL   H26345721   4.316   0.922   7.258 -1.4048 -1.0164 -0.7377
  120MOL   H26445722   4.222   0.812   7.455  0.5549 -1.4868  2.4838
  120MOL   H26545723   4.308   0.670   7.439 -0.6130 -0.1648 -1.4413
  120MOL   H26645724   4.563   1.060   7.435 -0.8353 -0.7964  0.1108
  120MOL   H26745725   4.512   1.062   7.257  1.9503  1.3773 -0.2325
  120MOL   C26845726   4.158   0.665   7.296 -0.4108 -0.8395  0.1262
  120MOL   C26945727   4.033   0.608   7.363 -0.2715  0.2917 -0.0646
  120MOL   C27045728   3.982   0.495   7.276  0.2626  0.1395  0.7855
  120MOL   C27145729   4.101   0.454   7.182 -0.0255 -0.0707  0.6452
  120MOL   C27245730   4.120   0.302   7.159 -0.0943 -0.1328 -0.4524
  120MOL   C27345731   4.026   0.243   7.055  0.0049 -0.3820  0.0461
  120MOL   C27445732   4.218   0.541   7.238 -0.0607 -0.1358 -0.2698
  120MOL   H27545733   4.112   0.738   7.229  0.9473 -0.3072 -0.2340
  120MOL   H27645734   4.079   0.572   7.455 -0.2045 -0.4086 -0.3689
  120MOL   H27745735   3.956   0.676   7.400  0.1649  0.2443  0.9440
  120MOL   H27845736   3.964   0.410   7.342 -1.4993  1.9566  2.7243
  120MOL   H27945737   3.886   0.512   7.228  0.7648 -1.8651 -1.0542
  120MOL   H28045738   4.075   0.490   7.082 -4.0781 -1.2357  1.2070
  120MOL   H28145739   4.113   0.239   7.247 -1.9101 -1.1691 -1.3055
  120MOL   H28245740   4.217   0.277   7.117 -0.9208 -1.3551 -1.6942
  120MOL   H28345741   3.982   0.150   7.091 -1.5888 -0.0305 -0.9129
  120MOL   H28445742   3.936   0.304   7.071 -0.1528 -1.1444  2.1168
  120MOL   H28545743   4.271   0.489   7.318  0.4501  0.8375  0.0372
  120MOL   H28645744   4.295   0.570   7.167 -0.2051  2.3279  0.5461
  120MOL   C28745745   4.075   0.227   6.908 -0.2868 -0.2839 -0.0764
  120MOL   C28845746   3.977   0.151   6.818 -0.6545  0.7147 -0.4149
  120MOL   C28945747   4.018   0.178   6.674 -0.2557 -0.3503 -0.4189
  120MOL   C29045748   4.090   0.317   6.681 -0.0598 -0.5176 -0.2907
  120MOL   C29145749   4.036   0.434   6.590  0.4493  0.6027 -0.6008
  120MOL   C29245750   4.051   0.405   6.436 -0.7287 -0.1174 -0.4153
  120MOL   C29345751   4.114   0.360   6.835  0.4724  0.8427 -1.1480
  120MOL   H29445752   4.168   0.170   6.904 -0.4347 -0.4923 -0.5212
  120MOL   H29545753   3.978   0.047   6.850 -2.8225  0.5538 -0.7317
  120MOL   H29645754   3.873   0.178   6.836 -0.5379 -0.0561  1.5060
  120MOL   H29745755   3.927   0.180   6.613 -1.0379 -0.0579  0.7335
  120MOL   H29845756   4.080   0.100   6.631  0.0885  0.2245 -0.9793
  120MOL   H29945757   4.190   0.290   6.647  0.1415 -0.9311  0.6192
  120MOL   H30045758   4.081   0.530   6.611  1.3444 -0.0989  0.7884
  120MOL   H30145759   3.931   0.446   6.619 -0.1596 -1.9497 -1.5609
  120MOL   H30245760   3.986   0.322   6.410 -1.0337  0.4060 -1.3467
  120MOL   H30345761   4.148   0.364   6.410 -0.6498  0.3653 -0.8887
  120MOL   H30445762   4.041   0.439   6.853 -1.7960 -1.6747  1.0476
  120MOL   H30545763   4.208   0.404   6.868 -0.0611  0.1727  1.3505
  120MOL   C30645764   4.006   0.529   6.354  0.1252 -0.3034 -0.4037
  120MOL   C30745765   4.058   0.533   6.207 -0.6358  0.0982 -1.4985
  120MOL   C30845766   3.943   0.597   6.120 -0.7280  0.4651  0.2277
  120MOL   C30945767   3.831   0.648   6.215 -0.5873  0.6543  0.6999
  120MOL   C31045768   3.687   0.647   6.150 -0.2852 -0.5271  0.1800
  120MOL   C31145769   3.657   0.743   6.032 -0.3724  0.7971  0.0849
  120MOL   C31245770   3.849   0.551   6.335  0.1627  0.6301 -0.0077
  120MOL   H31345771   4.034   0.621   6.405  1.6629  1.2460 -3.8978
  120MOL   H31445772   4.146   0.597   6.213 -0.9300  0.2727  2.7800
  120MOL   H31545773   4.082   0.435   6.167 -0.1411 -0.6672  0.6273
  120MOL   H31645774   3.985   0.674   6.055  0.3532 -0.7852 -0.5695
  120MOL   H31745775   3.902   0.532   6.042  2.3246 -0.1248 -0.9635
  120MOL   H31845776   3.862   0.747   6.249  1.0103 -0.0796  1.4739
  120MOL   H31945777   3.659   0.544   6.128  0.5885 -0.5832 -0.6904
  120MOL   H32045778   3.619   0.677   6.230 -0.2286  0.1528 -0.0244
  120MOL   H32145779   3.745   0.753   5.968  0.5421 -0.3538  1.1384
  120MOL   H32245780   3.633   0.839   6.078  1.4856  1.5848 -0.5102
  120MOL   H32345781   3.798   0.455   6.324  2.8175 -0.9971  1.2957
  120MOL   H32445782   3.811   0.592   6.429  2.0786  0.6360  0.7885
  120MOL   C32545783   3.537   0.695   5.951 -0.4676 -0.2481 -0.3265
  120MOL   C32645784   3.407   0.684   6.034  0.1155  0.0877 -0.1137
  120MOL   C32745785   3.285   0.724   5.955 -0.8015 -0.1110 -0.3266
  120MOL   C32845786   3.343   0.764   5.813 -0.0448  0.0837  0.0548
  120MOL   C32945787   3.322   0.640   5.717 -0.2153 -0.3509 -0.3841
  120MOL   C33045788   3.173   0.614   5.672 -0.5523  0.2994  0.2820
  120MOL   C33145789   3.492   0.794   5.844 -0.1303  0.0396 -0.5673
  120MOL   H33245790   3.560   0.601   5.901  0.3752 -1.2087  1.8296
  120MOL   H33345791   3.405   0.747   6.123  0.4607 -0.3177  0.1855
  120MOL   H33445792   3.398   0.587   6.083 -0.3960  0.2843  0.1883
  120MOL   H33545793   3.216   0.640   5.944 -1.1494  0.1385 -0.0561
  120MOL   H33645794   3.245   0.810   6.009 -2.2642  0.1043 -1.7173
  120MOL   H33745795   3.299   0.852   5.767 -4.1580 -1.2136  1.3030
  120MOL   H33845796   3.384   0.657   5.629  1.1045  5.0237  1.3732
  120MOL   H33945797   3.352   0.546   5.764 -0.7767  0.2014  1.1195
  120MOL   H34045798   3.101   0.626   5.752  0.2437 -1.4655  1.2710
  120MOL   H34145799   3.140   0.698   5.610  1.1897  1.0901  0.3803
  120MOL   H34245800   3.492   0.894   5.889 -1.3256  0.2795 -1.0872
  120MOL   H34345801   3.547   0.799   5.751  0.8984  0.6253  0.0657
  120MOL   C34445802   3.153   0.475   5.613 -0.2229 -0.4284 -0.2491
  120MOL   C34545803   3.044   0.473   5.507  0.1805 -0.1554  0.2817
  120MOL   C34645804   2.998   0.325   5.506 -0.6118  0.0316  0.3412
  120MOL   C34745805   2.983   0.297   5.654 -0.5608  0.6720 -0.0394
  120MOL   C34845806   2.968   0.147   5.688  0.1704 -1.3065 -0.2473
  120MOL   C34945807   2.900   0.131   5.824  0.2894  0.1283  0.1510
  120MOL   C35045808   3.104   0.365   5.717 -0.9114 -0.0298  0.4569
  120MOL   H35145809   3.245   0.453   5.559  0.1035 -0.7422  0.4321
  120MOL   H35245810   3.085   0.512   5.414  1.0453 -0.1880  0.6476
  120MOL   H35345811   2.956   0.532   5.531 -1.2791 -0.8977 -2.8982
  120MOL   H35445812   2.904   0.318   5.451 -0.2146  0.6239 -0.4145
  120MOL   H35545813   3.077   0.263   5.462  1.0518  2.1228  0.2777
  120MOL   H35645814   2.890   0.348   5.680 -1.7250 -1.7257  0.6306
  120MOL   H35745815   2.906   0.097   5.614  0.8280 -0.9312 -1.0633
  120MOL   H35845816   3.065   0.098   5.695  0.6637 -0.3771 -0.4655
  120MOL   H35945817   2.803   0.181   5.823 -0.1846 -0.7668 -2.3171
  120MOL   H36045818   2.966   0.171   5.901 -1.4883  1.6425  0.9286
  120MOL   H36145819   3.080   0.407   5.814  0.0138 -1.5772  1.3793
  120MOL   H36245820   3.186   0.295   5.729  0.3995  0.6571 -3.8239
  120MOL   C36345821   2.878   7.635   5.852 -0.0781  0.5290  0.0658
  120MOL   C36445822   2.798   7.548   5.755  0.7560  0.0446  0.3169
  120MOL   C36545823   2.720   7.444   5.838 -0.4966  0.4761 -0.3197
  120MOL   C36645824   2.772   7.456   5.979  0.4277 -0.0659  0.1619
  120MOL   C36745825   2.683   7.399   6.091 -0.5442 -0.0114  0.4455
  120MOL   C36845826   2.757   7.401   6.224 -0.1257  0.9672  0.0505
  120MOL   C36945827   2.805   7.603   5.987  0.1328 -0.0388  0.2778
  120MOL   H37045828   2.975   7.587   5.864 -0.4953 -0.5443 -0.8409
  120MOL   H37145829   2.713   7.590   5.700 -0.3565 -1.8443  0.5394
  120MOL   H37245830   2.860   7.493   5.685 -0.3498 -2.1314  0.9859
  120MOL   H37345831   2.613   7.463   5.831 -0.6845 -0.9012 -1.3840
  120MOL   H37445832   2.732   7.346   5.792 -0.6160  0.5019 -0.4025
  120MOL   H37545833   2.872   7.413   5.980  2.3410  4.2624  1.1757
  120MOL   H37645834   2.585   7.447   6.103  0.0058  0.7289  2.1456
  120MOL   H37745835   2.662   7.295   6.067  2.8532 -0.5393 -0.5071
  120MOL   H37845836   2.719   7.338   6.304 -1.7551  1.4930 -0.3014
  120MOL   H37945837   2.745   7.502   6.263  1.3394  0.8532  0.8196
  120MOL   H38045838   2.713   0.014   5.996 -0.3025 -0.6601 -0.0436
  120MOL   H38145839   2.869   7.622   6.072 -1.7310 -0.7331  1.8761
  120MOL   H38245840   2.862   7.374   6.217  0.2949  2.2295  1.0929
  121MOL     C145841   5.460   4.166   4.533  0.2451 -0.3673  0.6578
  121MOL     C245842   5.611   4.131   4.566  0.3426 -0.0460  0.5289
  121MOL     C345843   5.630   3.978   4.526  0.2895 -0.0111  0.2580
  121MOL     C445844   5.482   3.929   4.508 -0.6699 -0.3991 -0.4654
  121MOL     C545845   5.462   3.781   4.538 -0.5095  1.0028 -0.4407
  121MOL     C645846   5.459   3.745   4.689  0.1205  0.2131 -0.4230
  121MOL     C745847   5.390   4.036   4.570  0.3444 -0.3109  0.0339
  121MOL     H845848   5.425   4.253   4.589  2.2029  1.1962 -0.4975
  121MOL     H945849   5.630   4.146   4.672 -2.8053  0.6508  1.0623
  121MOL    H1045850   5.676   4.192   4.503  0.3050 -0.5504 -0.0067
  121MOL    H1145851   5.702   3.963   4.445  0.2668 -1.2513  0.4437
  121MOL    H1245852   5.678   3.923   4.607  0.4509  0.5756  0.5631
  121MOL    H1345853   5.475   3.934   4.400  0.0880  1.3701 -0.4532
  121MOL    H1445854   5.373   3.751   4.484 -0.0932 -1.4192  0.1584
  121MOL    H1545855   5.544   3.729   4.488 -0.8792  0.1326 -0.1505
  121MOL    H1645856   5.507   3.826   4.742  0.0425  0.9843 -1.4972
  121MOL    H1745857   5.360   3.759   4.733 -0.1334  1.9680 -1.4945
  121MOL    H1845858   5.289   4.023   4.530  0.1673 -2.0094  0.9909
  121MOL    H1945859   5.373   4.021   4.676 -2.1787 -0.0386 -0.3024
  121MOL    H2045860   5.460   4.188   4.426 -1.5950 -1.2096  0.4541
  121MOL    C2145861   5.528   3.613   4.730 -0.0891 -0.1678 -0.3625
  121MOL    C2245862   5.520   3.578   4.879  0.3873 -0.3669  0.2152
  121MOL    C2345863   5.481   3.437   4.897 -0.0775  0.6010  0.5712
  121MOL    C2445864   5.485   3.379   4.753  0.3170  0.2013 -0.0479
  121MOL    C2545865   5.409   3.251   4.731 -0.3448  0.4576 -0.0268
  121MOL    C2645866   5.471   3.131   4.800  0.1639  0.2950 -0.2539
  121MOL    C2745867   5.451   3.497   4.667  0.2894  0.5913  0.4886
  121MOL    H2845868   5.636   3.612   4.714  0.3999 -0.0709  2.5504
  121MOL    H2945869   5.613   3.595   4.933  0.8734  0.9804 -1.0063
  121MOL    H3045870   5.457   3.654   4.923 -0.0921 -0.0340 -1.0140
  121MOL    H3145871   5.548   3.378   4.960 -0.1732 -1.4275 -1.1547
  121MOL    H3245872   5.388   3.446   4.952 -1.0415  2.4596 -1.2959
  121MOL    H3345873   5.589   3.361   4.726  0.0202 -0.3686 -0.8117
  121MOL    H3445874   5.400   3.223   4.626 -1.0267  0.3446  0.0590
  121MOL    H3545875   5.303   3.270   4.749 -0.6614 -0.8795 -0.3589
  121MOL    H3645876   5.397   3.052   4.817  0.0486  0.5919  0.6164
  121MOL    H3745877   5.496   3.169   4.898  0.2364  0.7413 -0.4450
  121MOL    H3845878   5.469   3.481   4.560  1.4195 -0.4706  0.8221
  121MOL    H3945879   5.345   3.522   4.669  0.5328  1.5431  1.9190
  121MOL    C4045880   5.594   3.057   4.732  0.1611 -0.2024 -0.3301
  121MOL    C4145881   5.654   2.965   4.842 -0.1150 -0.0259  0.3423
  121MOL    C4245882   5.679   2.834   4.775 -0.0014 -0.2025 -0.4534
  121MOL    C4345883   5.583   2.824   4.659  0.2305 -0.3170 -0.0845
  121MOL    C4445884   5.633   2.734   4.543  0.7063 -0.3264 -0.1823
  121MOL    C4545885   5.634   2.587   4.577 -0.1585  0.5825 -0.0001
  121MOL    C4645886   5.560   2.967   4.617 -0.5698 -0.1506 -0.1814
  121MOL    H4745887   5.670   3.126   4.696  1.5038 -1.1131  0.6917
  121MOL    H4845888   5.590   2.949   4.929  0.3379 -0.0447  0.6727
  121MOL    H4945889   5.751   3.008   4.870  0.9450 -2.0693 -0.1183
  121MOL    H5045890   5.781   2.833   4.739  1.3606 -0.3745  3.1740
  121MOL    H5145891   5.680   2.753   4.848  2.1244  0.6315  0.4996
  121MOL    H5245892   5.496   2.772   4.701 -0.1663  1.1664  0.9494
  121MOL    H5345893   5.555   2.744   4.468 -2.1964 -2.1639  2.4628
  121MOL    H5445894   5.729   2.766   4.502  0.5922  0.0892 -0.1239
  121MOL    H5545895   5.534   2.552   4.605 -0.4444  1.3913 -0.0059
  121MOL    H5645896   5.695   2.571   4.666 -0.6133  0.2060  0.2493
  121MOL    H5745897   5.616   2.994   4.528  1.7892 -0.8222  1.0619
  121MOL    H5845898   5.458   2.987   4.584 -0.2000  0.3346 -1.0438
  121MOL    C5945899   5.686   2.484   4.467  0.0614 -0.1972  0.1606
  121MOL    C6045900   5.833   2.512   4.434 -0.3348 -0.1498 -0.0636
  121MOL    C6145901   5.868   2.381   4.354  0.1552 -0.2339 -0.3785
  121MOL    C6245902   5.782   2.271   4.416 -0.2575 -0.6629 -0.7193
  121MOL    C6345903   5.715   2.179   4.314 -0.2926 -0.0485  0.0354
  121MOL    C6445904   5.642   2.065   4.387 -0.9127  0.4159 -0.5078
  121MOL    C6545905   5.679   2.343   4.508  0.2040  0.1677  0.1301
  121MOL    H6645906   5.628   2.497   4.376  0.4494 -0.6559 -0.1535
  121MOL    H6745907   5.849   2.592   4.362 -0.6790 -0.5269 -0.5648
  121MOL    H6845908   5.892   2.529   4.524  0.5281 -1.0244 -0.4622
  121MOL    H6945909   5.851   2.393   4.247 -1.2425 -1.4841 -0.3056
  121MOL    H7045910   5.972   2.348   4.351 -0.1818 -1.3410 -0.1002
  121MOL    H7145911   5.849   2.213   4.480  0.3514  0.0895 -0.6590
  121MOL    H7245912   5.792   2.133   4.252  0.5941  0.9027  0.4155
  121MOL    H7345913   5.649   2.245   4.257 -2.6948  0.9536  3.8395
  121MOL    H7445914   5.716   2.015   4.450 -0.3826  2.4321  0.5195
  121MOL    H7545915   5.562   2.101   4.452  0.0977  1.5807  0.1081
  121MOL    H7645916   5.582   2.299   4.484  0.8520 -2.6249  2.2990
  121MOL    H7745917   5.676   2.333   4.617  2.1427  3.8996  0.6075
  121MOL    C7845918   5.584   1.962   4.282 -0.6101  0.2305  0.2091
  121MOL    C7945919   5.515   1.845   4.357  0.1131  0.5416  0.2915
  121MOL    C8045920   5.401   1.805   4.269  0.2833 -0.2879 -0.3753
  121MOL    C8145921   5.345   1.934   4.207 -0.2245  0.7865  0.2478
  121MOL    C8245922   5.236   2.007   4.296 -0.5451 -0.0071  0.4537
  121MOL    C8345923   5.096   1.949   4.281  0.5736  0.9898 -0.2683
  121MOL    C8445924   5.467   2.016   4.189 -0.7840 -1.3902 -0.1011
  121MOL    H8545925   5.666   1.913   4.229 -1.2464 -2.0278  1.2303
  121MOL    H8645926   5.575   1.755   4.367  1.2505  1.3414  0.9053
  121MOL    H8745927   5.489   1.876   4.458  3.0428  2.4478  0.5211
  121MOL    H8845928   5.422   1.726   4.197  0.5621 -3.2582  2.8888
  121MOL    H8945929   5.320   1.775   4.336  1.0895 -0.5303  0.4895
  121MOL    H9045930   5.306   1.919   4.106  1.1735 -0.7008 -0.0876
  121MOL    H9145931   5.232   2.113   4.270 -0.5222 -0.0354  0.3369
  121MOL    H9245932   5.266   2.009   4.401 -1.0829 -1.7288  0.6502
  121MOL    H9345933   5.100   1.843   4.308 -1.2753  1.2257  1.0336
  121MOL    H9445934   5.072   1.957   4.175  3.1428  0.9666 -0.8691
  121MOL    H9545935   5.447   2.122   4.204  0.0715 -1.0644 -1.1734
  121MOL    H9645936   5.505   2.010   4.087 -0.8468 -1.4512 -0.1206
  121MOL    C9745937   4.981   2.016   4.364 -0.9714 -0.8097 -0.2349
  121MOL    C9845938   4.837   1.965   4.339  0.5705  0.7440  0.5834
  121MOL    C9945939   4.752   2.079   4.272  0.1955 -0.2158 -0.5602
  121MOL   C10045940   4.820   2.197   4.341  1.2521 -0.5604  0.8853
  121MOL   C10145941   4.788   2.333   4.270 -0.3274 -0.0688  0.8808
  121MOL   C10245942   4.649   2.388   4.279  0.0028 -0.1246  0.3450
  121MOL   C10345943   4.973   2.168   4.339  0.2595  0.2717 -1.0140
  121MOL   H10445944   5.007   1.990   4.466  0.6566  1.7169  0.0392
  121MOL   H10545945   4.832   1.879   4.273 -1.0331  0.9744  0.3756
  121MOL   H10645946   4.785   1.942   4.432 -1.5793 -0.1080 -0.8126
  121MOL   H10745947   4.765   2.074   4.164  0.1460 -1.3652 -0.5246
  121MOL   H10845948   4.647   2.080   4.301 -0.0879  0.6825 -1.5765
  121MOL   H10945949   4.787   2.208   4.444  0.7940  0.4008  0.6443
  121MOL   H11045950   4.863   2.404   4.305 -0.9847  0.7300  0.6905
  121MOL   H11145951   4.822   2.319   4.168 -0.6632 -0.2368  0.7918
  121MOL   H11245952   4.580   2.305   4.263  1.4165 -1.3943  0.7311
  121MOL   H11345953   4.625   2.436   4.374 -0.4516  0.6114 -0.1346
  121MOL   H11445954   5.016   2.181   4.240 -1.8386  1.3856 -1.8215
  121MOL   H11545955   5.035   2.215   4.416 -0.8466 -0.0775  0.1166
  121MOL   C11645956   4.607   2.484   4.164 -0.3209  0.6578 -0.5017
  121MOL   C11745957   4.464   2.543   4.186 -0.2527  0.2077 -0.2600
  121MOL   C11845958   4.483   2.694   4.178  0.3303 -0.4572  0.2326
  121MOL   C11945959   4.614   2.713   4.100  0.6372 -0.3205  0.5826
  121MOL   C12045960   4.676   2.846   4.106 -0.6779  0.2133 -0.4564
  121MOL   C12145961   4.593   2.957   4.028 -0.3158  0.0426  0.0662
  121MOL   C12245962   4.703   2.603   4.148 -0.2720  0.2533 -0.0080
  121MOL   H12345963   4.610   2.433   4.068  0.5126 -0.8862  0.3157
  121MOL   H12445964   4.416   2.506   4.277  1.2171 -1.3801 -0.0975
  121MOL   H12545965   4.416   2.505   4.096  1.7476  1.3641 -1.8529
  121MOL   H12645966   4.477   2.739   4.277 -0.5670  1.8946 -0.8672
  121MOL   H12745967   4.400   2.743   4.127 -0.8333 -0.8394  1.6992
  121MOL   H12845968   4.595   2.693   3.994 -1.9691  3.1331  0.2951
  121MOL   H12945969   4.776   2.852   4.062  0.1053  1.2606  1.4299
  121MOL   H13045970   4.679   2.885   4.207 -3.8098 -1.3184  0.3011
  121MOL   H13145971   4.485   2.947   4.022 -0.1619 -1.6706 -0.0536
  121MOL   H13245972   4.640   2.943   3.931 -2.2875  2.3262 -1.2633
  121MOL   H13345973   4.780   2.560   4.085  1.4444  1.3477  1.2938
  121MOL   H13445974   4.751   2.636   4.240  0.2589 -0.8856  0.1300
  121MOL   C13545975   4.642   3.088   4.089  0.3890  0.0646 -0.4677
  121MOL   C13645976   4.628   3.214   4.010  0.6061  0.0196 -0.4368
  121MOL   C13745977   4.656   3.334   4.105  0.1461 -0.5812 -0.7384
  121MOL   C13845978   4.583   3.277   4.234  0.1892  0.2631  0.1833
  121MOL   C13945979   4.633   3.335   4.366 -0.9587 -0.0282  0.0064
  121MOL   C14045980   4.637   3.485   4.370  0.6317 -0.1438  0.8605
  121MOL   C14145981   4.594   3.127   4.229 -0.3914 -0.0948 -0.1813
  121MOL   H14245982   4.750   3.076   4.101 -0.1266 -2.6767  1.8006
  121MOL   H14345983   4.694   3.221   3.924 -0.3291  0.0707 -1.1581
  121MOL   H14445984   4.528   3.220   3.968  0.1608  0.6549  0.6965
  121MOL   H14545985   4.761   3.351   4.128  0.1228 -0.9471 -0.3494
  121MOL   H14645986   4.607   3.425   4.071  0.3209  0.4632  1.6642
  121MOL   H14745987   4.478   3.295   4.211 -0.0642  2.4852  2.8240
  121MOL   H14845988   4.738   3.304   4.374 -1.2069 -0.9331 -0.1992
  121MOL   H14945989   4.587   3.289   4.453  2.0867 -1.6170  0.8693
  121MOL   H15045990   4.704   3.530   4.296 -0.1094 -1.0223 -0.3748
  121MOL   H15145991   4.539   3.518   4.336  0.2686 -0.0949  1.9446
  121MOL   H15245992   4.508   3.068   4.261  0.3438 -1.1854 -0.1684
  121MOL   H15345993   4.664   3.094   4.307 -0.5772  2.6958  1.2260
  121MOL   C15445994   4.666   3.547   4.512  0.5578  0.4681  0.3283
  121MOL   C15545995   4.568   3.495   4.620 -0.0000 -0.0116 -0.3389
  121MOL   C15645996   4.544   3.616   4.720 -0.1248 -0.0992 -0.0820
  121MOL   C15745997   4.582   3.747   4.644 -0.1666  0.4018 -0.2620
  121MOL   C15845998   4.482   3.864   4.635  0.6142  0.9539  0.4832
  121MOL   C15945999   4.523   3.984   4.541  0.4854 -0.7435  0.4282
  121MOL   C16046000   4.643   3.697   4.514 -0.1427 -0.0821  0.3529
  121MOL   H16146001   4.756   3.523   4.569  1.3487  1.6341 -0.3920
  121MOL   H16246002   4.470   3.466   4.582 -0.5325  1.3720 -0.0602
  121MOL   H16346003   4.606   3.408   4.673 -0.1057 -0.7800 -1.4963
  121MOL   H16446004   4.440   3.622   4.751  0.3658  2.7737  1.1296
  121MOL   H16546005   4.607   3.610   4.808 -0.1046 -3.0947 -0.2495
  121MOL   H16646006   4.666   3.791   4.697 -0.6860 -0.4151  1.2691
  121MOL   H16746007   4.465   3.888   4.740 -2.5848  0.4364  0.1397
  121MOL   H16846008   4.384   3.824   4.607  1.3980 -0.7542  0.1356
  121MOL   H16946009   4.622   4.022   4.568  0.3438 -0.6445  0.8265
  121MOL   H17046010   4.537   3.946   4.440  0.7234  0.0452  0.1589
  121MOL   H17146011   4.716   3.769   4.479 -0.2492 -0.1364  0.0155
  121MOL   H17246012   4.575   3.711   4.430 -0.7338 -0.1147  0.8225
  121MOL   C17346013   4.418   4.103   4.557  0.1634  0.4200  0.0099
  121MOL   C17446014   4.438   4.174   4.686 -0.0156  0.6626  0.2918
  121MOL   C17546015   4.372   4.305   4.657 -0.2485 -0.7992 -0.2109
  121MOL   C17646016   4.369   4.344   4.510  0.0181  0.8757  0.1325
  121MOL   C17746017   4.448   4.477   4.472 -1.1193 -0.6465 -0.1862
  121MOL   C17846018   4.581   4.498   4.542  0.7508  0.0358  1.0008
  121MOL   C17946019   4.424   4.215   4.449  0.9875 -0.4158 -0.2358
  121MOL   H18046020   4.330   4.038   4.550  2.2779 -2.4273 -1.2502
  121MOL   H18146021   4.544   4.198   4.692  0.2171 -0.3894  0.5282
  121MOL   H18246022   4.409   4.110   4.770 -0.6626  0.8793  0.2395
  121MOL   H18346023   4.273   4.312   4.702  0.0193 -0.2107  0.3091
  121MOL   H18446024   4.423   4.382   4.716 -0.2657 -0.8438 -0.1396
  121MOL   H18546025   4.264   4.364   4.489  0.0109 -1.3951 -2.2402
  121MOL   H18646026   4.381   4.562   4.480  0.2121  0.4087 -0.1546
  121MOL   H18746027   4.464   4.472   4.365 -4.4108 -0.3856 -0.7543
  121MOL   H18846028   4.638   4.406   4.552 -0.9327 -0.9143  2.1226
  121MOL   H18946029   4.557   4.535   4.642  0.3852 -1.1824  1.3703
  121MOL   H19046030   4.528   4.241   4.429  0.9534  0.1314  0.2743
  121MOL   H19146031   4.389   4.194   4.348  2.0843  0.2842 -0.7716
  121MOL   C19246032   4.658   4.610   4.464 -0.0105 -0.5486 -0.0348
  121MOL   C19346033   4.811   4.600   4.485 -0.4991 -0.6991  0.0512
  121MOL   C19446034   4.857   4.726   4.421 -0.4412  0.5671  0.2823
  121MOL   C19546035   4.754   4.830   4.463 -0.4702  0.0783 -1.3606
  121MOL   C19646036   4.722   4.934   4.353 -0.7684  0.0114 -0.2625
  121MOL   C19746037   4.843   5.023   4.320 -0.4812  0.0087  0.6084
  121MOL   C19846038   4.631   4.751   4.513  0.4118 -0.3718 -0.1495
  121MOL   H19946039   4.650   4.626   4.356  2.5708  1.8553  0.0765
  121MOL   H20046040   4.826   4.604   4.593  1.0613  2.4201 -0.2323
  121MOL   H20146041   4.849   4.507   4.443  0.6825  0.6299 -1.8763
  121MOL   H20246042   4.857   4.722   4.312 -1.1091 -0.7948  0.3257
  121MOL   H20346043   4.959   4.750   4.451 -0.1571 -0.2104 -0.0429
  121MOL   H20446044   4.789   4.889   4.549 -2.7195 -1.4152  0.6296
  121MOL   H20546045   4.636   4.994   4.383 -0.7322  0.6208 -1.3478
  121MOL   H20646046   4.686   4.878   4.267  1.3480 -1.5062 -0.2012
  121MOL   H20746047   4.905   4.951   4.266  0.9535  0.3240  1.8058
  121MOL   H20846048   4.906   5.069   4.396 -2.0728 -0.4958  2.2586
  121MOL   H20946049   4.541   4.785   4.462 -2.1579 -3.1641  2.3051
  121MOL   H21046050   4.630   4.754   4.622 -0.0831 -1.2026 -0.1259
  121MOL   C21146051   4.823   5.139   4.219 -0.5941 -0.2656 -0.2192
  121MOL   C21246052   4.956   5.204   4.180 -0.0803  0.0650 -0.0052
  121MOL   C21346053   4.932   5.356   4.178 -0.3463 -0.4524  0.5264
  121MOL   C21446054   4.782   5.375   4.208  0.0430  0.2438 -0.1876
  121MOL   C21546055   4.730   5.496   4.296 -0.4542  0.9696  0.4137
  121MOL   C21646056   4.765   5.636   4.254 -0.6132 -0.7615 -0.2315
  121MOL   C21746057   4.729   5.247   4.276 -0.4629  0.2090  0.6622
  121MOL   H21846058   4.773   5.102   4.130  0.6418  2.1942 -1.9837
  121MOL   H21946059   5.045   5.159   4.225  0.5385  0.8934 -0.3982
  121MOL   H22046060   4.972   5.176   4.075  0.9730 -1.0695  0.4449
  121MOL   H22146061   4.982   5.406   4.261 -1.4118  0.2507  0.7581
  121MOL   H22246062   4.958   5.411   4.088 -1.6445 -1.0793 -0.2483
  121MOL   H22346063   4.727   5.369   4.114  0.1833 -2.8476 -0.1420
  121MOL   H22446064   4.770   5.487   4.397  2.5114 -1.1971 -0.8762
  121MOL   H22546065   4.623   5.479   4.309 -0.8283  1.6233 -1.6816
  121MOL   H22646066   4.872   5.634   4.232 -0.7246 -1.8446 -0.7144
  121MOL   H22746067   4.719   5.667   4.160  2.4504  1.2339 -1.1670
  121MOL   H22846068   4.625   5.224   4.253 -0.1212  0.4065 -1.1899
  121MOL   H22946069   4.739   5.246   4.384 -0.9220 -1.6975  0.7154
  121MOL   C23046070   4.755   5.744   4.364 -0.2693  1.2374  0.0658
  121MOL   C23146071   4.616   5.810   4.372 -0.0324  0.2772 -0.1418
  121MOL   C23246072   4.611   5.915   4.260  0.1960 -0.6882  0.7485
  121MOL   C23346073   4.754   5.962   4.238 -0.5457  0.2644 -0.3359
  121MOL   C23446074   4.769   6.103   4.287  0.5461  0.2658 -0.2848
  121MOL   C23546075   4.913   6.150   4.283  0.5144  0.0016 -0.0909
  121MOL   C23646076   4.841   5.868   4.321  0.4914 -0.4070 -0.1506
  121MOL   H23746077   4.772   5.713   4.467  2.1801 -1.9915 -1.2245
  121MOL   H23846078   4.533   5.741   4.362  0.3152 -0.2570  0.6193
  121MOL   H23946079   4.598   5.858   4.468  1.6546  1.2182 -0.2646
  121MOL   H24046080   4.539   5.995   4.279  0.6434  0.8997 -3.5665
  121MOL   H24146081   4.579   5.873   4.164 -1.2993  0.3183  0.7975
  121MOL   H24246082   4.771   5.968   4.131 -2.0947  1.9364 -0.5206
  121MOL   H24346083   4.733   6.104   4.390 -0.7761  0.2241 -0.7373
  121MOL   H24446084   4.709   6.175   4.232  0.3722 -0.3971 -0.9685
  121MOL   H24546085   4.955   6.127   4.381 -1.8598 -0.3833  0.8829
  121MOL   H24646086   4.960   6.094   4.202  1.0960  0.0332  0.2243
  121MOL   H24746087   4.884   5.917   4.408  2.2430 -0.1746 -1.1106
  121MOL   H24846088   4.934   5.832   4.275  1.2993  0.3527  0.8650
  121MOL   C24946089   4.929   6.306   4.275 -0.8999 -0.8128  0.0941
  121MOL   C25046090   4.860   6.392   4.385 -0.6072  1.1702  0.3038
  121MOL   C25146091   4.942   6.514   4.404  0.1899 -0.1393  0.3890
  121MOL   C25246092   5.083   6.463   4.396 -0.2100 -0.2868  0.3359
  121MOL   C25346093   5.186   6.575   4.378 -1.0975 -0.0873  0.0907
  121MOL   C25446094   5.334   6.523   4.404 -0.2470  0.4253  1.0255
  121MOL   C25546095   5.081   6.360   4.271  0.0726 -0.0569 -0.6927
  121MOL   H25646096   4.880   6.336   4.183  1.9372  1.3960 -0.7533
  121MOL   H25746097   4.753   6.407   4.370 -0.7420  0.3432  0.4168
  121MOL   H25846098   4.882   6.324   4.467  1.0736  0.7519 -0.4905
  121MOL   H25946099   4.926   6.568   4.497  0.7661  1.3965 -0.3814
  121MOL   H26046100   4.918   6.582   4.322 -0.7329 -0.9924 -0.0605
  121MOL   H26146101   5.107   6.412   4.489  0.7351  1.0158  0.8232
  121MOL   H26246102   5.163   6.652   4.453 -0.9971  0.5629 -0.5451
  121MOL   H26346103   5.174   6.606   4.275 -0.2914 -1.5294 -0.4381
  121MOL   H26446104   5.348   6.433   4.345 -2.9345  0.8479 -0.3332
  121MOL   H26546105   5.338   6.495   4.510 -1.3386 -0.8952  0.7317
  121MOL   H26646106   5.151   6.279   4.291  0.3065  0.7182  1.8825
  121MOL   H26746107   5.101   6.414   4.179  1.4245  1.2415  0.3505
  121MOL   C26846108   5.442   6.621   4.358  0.3497 -0.2876 -0.0099
  121MOL   C26946109   5.474   6.628   4.206  0.2260 -0.4173  0.4007
  121MOL   C27046110   5.625   6.665   4.193  0.2245 -0.3182 -0.1152
  121MOL   C27146111   5.694   6.628   4.324  0.3867 -0.0075  0.5995
  121MOL   C27246112   5.804   6.525   4.317 -0.2468 -0.3450 -0.2541
  121MOL   C27346113   5.877   6.502   4.447 -0.1541  0.1459  0.0893
  121MOL   C27446114   5.581   6.600   4.425 -0.1878  0.3662 -0.0692
  121MOL   H27546115   5.424   6.724   4.390  0.0811 -0.2342 -0.3398
  121MOL   H27646116   5.446   6.534   4.159 -0.8994 -0.1577  0.5421
  121MOL   H27746117   5.413   6.697   4.148  0.2957 -1.2664 -0.7014
  121MOL   H27846118   5.659   6.602   4.111  0.7946 -0.3173  0.1171
  121MOL   H27946119   5.658   6.767   4.173  1.8283 -0.7063  0.4774
  121MOL   H28046120   5.746   6.716   4.361 -0.3097  1.4186 -1.7647
  121MOL   H28146121   5.887   6.564   4.259  1.0037 -0.8670  1.1503
  121MOL   H28246122   5.769   6.430   4.275  0.6593 -1.3231  1.1534
  121MOL   H28346123   5.901   6.594   4.499 -1.2568  0.2309  0.4463
  121MOL   H28446124   5.807   6.456   4.516  1.0384 -1.4553  0.2758
  121MOL   H28546125   5.591   6.498   4.462  0.7707 -0.0738 -1.5103
  121MOL   H28646126   5.589   6.670   4.508 -2.1586  1.8780 -1.1126
  121MOL   C28746127   6.007   6.413   4.446  1.1464 -0.0321  0.9965
  121MOL   C28846128   6.125   6.484   4.374  0.3331  0.0605  0.1748
  121MOL   C28946129   6.185   6.568   4.479 -0.0479 -0.3459  0.2733
  121MOL   C29046130   6.170   6.490   4.610  0.1032 -0.4217 -0.2457
  121MOL   C29146131   6.144   6.582   4.731  0.2074  0.2555 -0.0383
  121MOL   C29246132   6.150   6.507   4.862 -0.1427  0.4936  0.2774
  121MOL   C29346133   6.051   6.387   4.589  0.1219 -0.0705  0.4921
  121MOL   H29446134   5.982   6.321   4.392  1.4408  1.0943 -1.0979
  121MOL   H29546135   6.196   6.403   4.357  0.4831  0.6554 -2.1677
  121MOL   H29646136   6.108   6.535   4.280 -1.6759 -0.3033  0.3058
  121MOL   H29746137   6.138   6.665   4.493  1.0162  0.2207 -0.0149
  121MOL   H29846138   6.290   6.594   4.459  0.1706 -1.2840  0.1998
  121MOL   H29946139   6.262   6.435   4.628  0.5459  0.1698 -0.6928
  121MOL   H30046140   6.047   6.633   4.722 -0.4030 -0.8631  0.1627
  121MOL   H30146141   6.226   6.654   4.737 -0.7523  1.4102 -0.3159
  121MOL   H30246142   6.230   6.434   4.853 -1.2652 -0.6686 -0.5320
  121MOL   H30346143   6.055   6.459   4.885 -0.2427  0.1664 -0.7892
  121MOL   H30446144   5.974   6.382   4.665 -0.5831 -0.9504 -0.2652
  121MOL   H30546145   6.098   6.290   4.572 -1.2078 -0.5918 -0.3053
  121MOL   C30646146   6.174   6.608   4.976 -0.3980 -0.2114  0.1381
  121MOL   C30746147   6.184   6.543   5.118 -0.2724 -0.9153 -0.0807
  121MOL   C30846148   6.290   6.625   5.190  0.1437 -0.8026  0.2004
  121MOL   C30946149   6.343   6.735   5.102  0.0699  0.6947  0.5194
  121MOL   C31046150   6.493   6.761   5.120 -0.0435 -0.3301  0.4847
  121MOL   C31146151   6.565   6.837   5.005 -0.6648  0.0902 -0.4069
  121MOL   C31246152   6.310   6.687   4.964  0.3529 -0.4773 -0.1538
  121MOL   H31346153   6.100   6.687   4.973 -0.0876  0.0442 -1.1801
  121MOL   H31446154   6.089   6.544   5.171  0.4570  0.1966  1.2108
  121MOL   H31546155   6.208   6.436   5.111  0.6813 -0.7334  0.4810
  121MOL   H31646156   6.242   6.668   5.278 -2.8671 -0.6636 -1.4775
  121MOL   H31746157   6.363   6.557   5.235  1.7254  2.6956  3.1570
  121MOL   H31846158   6.291   6.830   5.114 -2.1119 -0.4013  0.0095
  121MOL   H31946159   6.513   6.824   5.207 -2.1359  0.1753  0.6442
  121MOL   H32046160   6.533   6.661   5.131 -1.3147 -0.8215  0.7509
  121MOL   H32146161   6.532   6.806   4.906  0.9022 -2.4957 -0.1640
  121MOL   H32246162   6.672   6.817   5.014 -0.3360  1.7913 -0.2644
  121MOL   H32346163   6.393   6.624   4.929 -1.0690 -1.4190 -1.8858
  121MOL   H32446164   6.305   6.775   4.900  1.9007  2.0877  3.1219
  121MOL   C32546165   6.551   6.999   5.010  0.3083  0.1405 -0.1661
  121MOL   C32646166   6.650   7.057   5.117 -0.3506 -0.0902 -0.7099
  121MOL   C32746167   6.696   7.199   5.066 -0.5151  0.6495 -0.0869
  121MOL   C32846168   6.710   7.172   4.912 -0.4794 -0.1030 -0.4988
  121MOL   C32946169   6.702   7.300   4.823 -0.4436 -0.3720 -0.3265
  121MOL   C33046170   6.818   7.397   4.846 -0.6687 -0.1638 -0.3000
  121MOL   C33146171   6.591   7.077   4.877 -0.5785  0.4041  0.5139
  121MOL   H33246172   6.453   7.033   5.044  0.9037  0.7138  1.0353
  121MOL   H33346173   6.737   6.991   5.122 -0.5164 -0.1521  1.8937
  121MOL   H33446174   6.605   7.066   5.215  0.2776  0.7876 -0.4973
  121MOL   H33546175   6.621   7.276   5.084  0.6543  2.1942 -1.5932
  121MOL   H33646176   6.791   7.230   5.109  0.0307 -0.2914 -0.5895
  121MOL   H33746177   6.812   7.136   4.898 -0.6491 -0.4575 -0.8356
  121MOL   H33846178   6.695   7.271   4.718 -1.4492 -2.6583  0.3360
  121MOL   H33946179   6.614   7.363   4.835  0.3442  0.9238 -1.2048
  121MOL   H34046180   6.794   7.449   4.939 -0.9490  0.9581 -0.9921
  121MOL   H34146181   6.912   7.343   4.850 -2.0128 -2.4552  1.5945
  121MOL   H34246182   6.629   6.998   4.812 -1.0939 -0.2674  1.0192
  121MOL   H34346183   6.509   7.129   4.826 -0.7480  1.0877  1.4821
  121MOL   C34446184   6.831   7.515   4.740 -0.0552  0.0829 -0.2760
  121MOL   C34546185   6.949   7.600   4.782 -0.1255  0.1331 -0.4083
  121MOL   C34646186   6.918   0.081   4.708  0.3501  0.4258 -0.0538
  121MOL   C34746187   6.770   0.102   4.705  0.6499 -0.8576 -0.6446
  121MOL   C34846188   6.718   0.168   4.574  0.3888 -0.4984 -0.4598
  121MOL   C34946189   6.754   0.320   4.580  0.6472  1.1029  0.1805
  121MOL   C35046190   6.712   7.607   4.727 -0.2688  0.1148  0.2593
  121MOL   H35146191   6.841   7.475   4.639 -0.3095 -2.8056  0.8071
  121MOL   H35246192   7.047   7.562   4.754  1.4249  1.5893  2.7435
  121MOL   H35346193   6.942   7.622   4.889  1.2295 -2.1181  0.1866
  121MOL   H35446194   6.985   0.159   4.744 -0.2956  1.7296 -1.6220
  121MOL   H35546195   6.967   0.060   4.613  0.7021 -0.9611  0.4160
  121MOL   H35646196   6.734   0.168   4.784 -0.6306 -2.9800  0.5821
  121MOL   H35746197   6.747   0.108   4.488 -0.5203  0.0835 -1.1857
  121MOL   H35846198   6.611   0.155   4.582  0.1877  1.1911 -0.1903
  121MOL   H35946199   6.862   0.329   4.584  0.7856 -1.2204  3.1488
  121MOL   H36046200   6.716   0.370   4.669  1.1235 -0.6997  1.4240
  121MOL   H36146201   6.654   7.605   4.819 -0.6695 -0.8381 -0.0095
  121MOL   H36246202   6.644   7.571   4.650 -2.3843  0.4557  1.9277
  121MOL   C36346203   6.711   0.399   4.454  0.1123  0.5891 -0.0818
  121MOL   C36446204   6.737   0.335   4.316  0.3862 -0.4837 -0.3378
  121MOL   C36546205   6.723   0.440   4.210 -0.0834 -0.0958  0.2493
  121MOL   C36646206   6.729   0.576   4.289  0.2559 -0.1329 -0.8830
  121MOL   C36746207   6.817   0.688   4.222 -0.7303 -0.2097 -0.7814
  121MOL   C36846208   6.781   0.824   4.280  0.5859 -0.1316 -0.1600
  121MOL   C36946209   6.768   0.538   4.437 -0.0130  0.4816  0.1699
  121MOL   H37046210   6.603   0.406   4.466  0.1611 -0.0721  0.8532
  121MOL   H37146211   6.844   0.316   4.321  0.6973  0.9067 -1.3000
  121MOL   H37246212   6.675   0.246   4.302  0.4064 -0.2951 -1.7005
  121MOL   H37346213   6.803   0.440   4.136  0.7938  0.7261  1.1836
  121MOL   H37446214   6.626   0.418   4.164  0.6992  1.0466 -2.0073
  121MOL   H37546215   6.626   0.612   4.293 -1.0623 -3.7305 -0.5621
  121MOL   H37646216   6.923   0.661   4.228 -0.5445  0.7164  0.1610
  121MOL   H37746217   6.811   0.683   4.113  1.2205 -0.7436 -0.9001
  121MOL   H37846218   6.679   0.852   4.255 -0.5530 -3.3221  0.6248
  121MOL   H37946219   6.848   0.907   4.258  0.4698  0.0333  0.1086
  121MOL   H38046220   6.876   0.524   4.447  0.4548  1.1425 -3.3343
  121MOL   H38146221   6.732   0.605   4.516 -0.1508 -0.1543  0.6526
  121MOL   H38246222   6.777   0.811   4.388 -0.6592  0.1527 -0.1730
  122MOL     C146223   6.873   1.042   2.559 -0.7653 -0.6622  0.4495
  122MOL     C246224   7.026   1.061   2.556 -0.2997 -0.4051  0.6799
  122MOL     C346225   7.057   1.161   2.664  0.2566 -0.2426  1.0510
  122MOL     C446226   6.948   1.129   2.761 -0.3555 -0.2273 -0.5636
  122MOL     C546227   6.937   1.240   2.875 -0.0188  0.6541  0.3025
  122MOL     C646228   6.818   1.225   2.975  0.0665 -0.3065 -0.0247
  122MOL     C746229   6.831   1.131   2.673 -0.6771  0.1724 -0.1251
  122MOL     H846230   6.811   1.074   2.475 -2.1769 -0.6527  1.4903
  122MOL     H946231   7.045   1.116   2.464  3.4920  0.6810  2.0445
  122MOL    H1046232   7.075   0.964   2.565  1.6689  0.2194 -2.4456
  122MOL    H1146233   7.150   1.142   2.719  1.4834 -0.7017 -1.1169
  122MOL    H1246234   7.074   1.263   2.630  1.0370 -1.0090 -0.9935
  122MOL    H1346235   6.961   1.030   2.803  0.8920  1.1050  2.3746
  122MOL    H1446236   7.033   1.237   2.927  0.6661  0.5798 -0.9610
  122MOL    H1546237   6.925   1.343   2.843 -0.5094  0.7193  0.6762
  122MOL    H1646238   6.847   1.303   3.045 -0.7890  1.3192 -1.4271
  122MOL    H1746239   6.734   1.270   2.921  1.9674  0.9612 -2.0297
  122MOL    H1846240   6.741   1.085   2.714  0.7737 -2.5051  0.0918
  122MOL    H1946241   6.808   1.235   2.648  0.5725  1.0650  2.3326
  122MOL    H2046242   6.846   0.941   2.587 -0.6899 -0.6947  0.4047
  122MOL    C2146243   6.789   1.085   3.031  0.3339 -0.0307  0.2512
  122MOL    C2246244   6.911   1.028   3.106  0.1134  0.0798 -0.0147
  122MOL    C2346245   6.853   0.966   3.235 -0.3228  0.5473 -0.1285
  122MOL    C2446246   6.704   0.960   3.218  0.5034 -0.5464  0.0262
  122MOL    C2546247   6.633   0.947   3.361  0.2855  0.2718  0.0390
  122MOL    C2646248   6.683   0.827   3.452  1.0163  0.8352 -0.1264
  122MOL    C2746249   6.668   1.073   3.129 -0.1504  0.2298 -0.3630
  122MOL    H2846250   6.777   1.014   2.949 -0.0683  1.3694 -0.9401
  122MOL    H2946251   6.958   0.956   3.038 -0.4689 -1.9941  1.7113
  122MOL    H3046252   6.982   1.104   3.137 -0.4339  0.2856  0.7607
  122MOL    H3146253   6.885   0.867   3.268  2.0554  1.8228  1.5719
  122MOL    H3246254   6.882   1.024   3.323 -1.6483 -0.2540  0.8584
  122MOL    H3346255   6.691   0.870   3.157 -1.6560  0.8675 -1.6511
  122MOL    H3446256   6.526   0.932   3.347  0.5359 -0.9364 -0.6029
  122MOL    H3546257   6.636   1.047   3.405  0.2228  0.1080  0.4206
  122MOL    H3646258   6.790   0.841   3.470  0.6806  3.1605  0.1378
  122MOL    H3746259   6.666   0.726   3.415 -0.1707  1.0615 -0.2162
  122MOL    H3846260   6.571   1.048   3.085  0.1661 -1.6451 -0.0434
  122MOL    H3946261   6.662   1.158   3.197  1.7448 -1.1964  1.6228
  122MOL    C4046262   6.620   0.808   3.594  0.5376  0.2501  1.1056
  122MOL    C4146263   6.664   0.688   3.689 -0.3482 -0.2016  0.3203
  122MOL    C4246264   6.722   0.757   3.815 -0.7679 -0.6435  0.2328
  122MOL    C4346265   6.761   0.895   3.768  0.2935 -0.5281  0.6407
  122MOL    C4446266   6.778   1.001   3.878 -0.9566 -0.1523 -0.4808
  122MOL    C4546267   6.880   1.116   3.845 -0.2332  1.0332  0.5207
  122MOL    C4646268   6.649   0.932   3.674  0.6169 -0.1835 -0.0075
  122MOL    H4746269   6.513   0.802   3.573  0.4835 -3.0252  2.0868
  122MOL    H4846270   6.748   0.639   3.640  0.4635  1.2684  0.2196
  122MOL    H4946271   6.591   0.608   3.698 -1.7857  0.9958 -0.5104
  122MOL    H5046272   6.637   0.758   3.883  0.0734 -0.7405  1.2944
  122MOL    H5146273   6.808   0.708   3.861  0.4732  0.9640 -0.3182
  122MOL    H5246274   6.851   0.891   3.708  0.1306 -0.1788  0.3678
  122MOL    H5346275   6.684   1.042   3.916  0.2555  0.6255  1.7758
  122MOL    H5446276   6.798   0.947   3.970 -0.1755 -0.1417 -0.6413
  122MOL    H5546277   6.876   1.183   3.930 -2.1686 -0.3485  1.5520
  122MOL    H5646278   6.855   1.174   3.756 -1.5579 -0.1116  0.1288
  122MOL    H5746279   6.554   0.953   3.723 -0.1123 -0.7490 -1.1646
  122MOL    H5846280   6.669   1.020   3.612  2.6068  0.8440  2.0317
  122MOL    C5946281   7.033   1.070   3.829  0.1006 -0.5628 -1.0045
  122MOL    C6046282   7.128   1.177   3.773  0.3374  0.0762  0.3169
  122MOL    C6146283   7.271   1.142   3.821  0.2467  0.1730 -0.2830
  122MOL    C6246284   7.250   1.083   3.961 -0.2709  0.0576  0.0201
  122MOL    C6346285   7.365   0.983   3.988  0.2052 -0.5676  0.2411
  122MOL    C6446286   7.364   0.927   4.134  0.5026 -0.4949  0.6739
  122MOL    C6546287   7.107   1.021   3.960 -0.3849 -0.2735  0.2337
  122MOL    H6646288   7.031   0.986   3.760 -0.1585 -0.5394 -1.0263
  122MOL    H6746289   7.117   1.183   3.665 -0.1037 -0.5673  0.3212
  122MOL    H6846290   7.087   1.267   3.818 -0.3654  0.2879 -0.7385
  122MOL    H6946291   7.315   1.061   3.764  0.6603 -0.6292  1.1499
  122MOL    H7046292   7.345   1.221   3.807 -0.1033  0.5413 -0.0651
  122MOL    H7146293   7.259   1.165   4.033  1.1097 -0.9658  1.0395
  122MOL    H7246294   7.465   1.024   3.979 -0.0552 -0.1434 -0.7546
  122MOL    H7346295   7.350   0.906   3.912  1.3231 -0.0489 -0.5047
  122MOL    H7446296   7.353   1.010   4.203  4.6808 -1.5412  2.7460
  122MOL    H7546297   7.277   0.868   4.164  0.7497 -0.3873  1.6023
  122MOL    H7646298   7.104   0.912   3.963 -0.9110 -0.3444 -1.8399
  122MOL    H7746299   7.062   1.066   4.048 -0.4532  1.0952 -0.4958
  122MOL    C7846300   7.504   0.868   4.171 -0.2614 -0.3756  0.1760
  122MOL    C7946301   7.519   0.831   4.321  0.0173 -0.9577  0.8229
  122MOL    C8046302   7.627   0.722   4.337  0.4324 -0.3139 -0.0404
  122MOL    C8146303   0.010   0.677   4.186  0.4608  1.0468 -0.5143
  122MOL    C8246304   0.037   0.527   4.171 -0.2150  0.0546 -0.0301
  122MOL    C8346305   0.161   0.480   4.248 -0.0369  0.6422  0.4925
  122MOL    C8446306   7.536   0.735   4.100  0.5621 -0.0715  0.1120
  122MOL    H8546307   7.578   0.945   4.148 -1.9160  0.7136 -1.7138
  122MOL    H8646308   7.529   0.912   4.393 -0.4623 -0.1635 -0.0061
  122MOL    H8746309   7.420   0.795   4.352 -0.0045  0.4224  2.4317
  122MOL    H8846310   0.069   0.766   4.382  0.0876  0.9517 -0.5782
  122MOL    H8946311   7.591   0.638   4.396  1.0995 -0.4645  0.1635
  122MOL    H9046312   0.094   0.743   4.165  0.9147  1.6517  3.0009
  122MOL    H9146313   0.047   0.485   4.071 -0.4997 -1.6669  0.6401
  122MOL    H9246314   7.609   0.466   4.220  1.0301 -0.9476  0.6844
  122MOL    H9346315   0.164   0.371   4.255 -0.6445  0.7017  2.0040
  122MOL    H9446316   0.157   0.522   4.349  1.1333  0.7511  0.4978
  122MOL    H9546317   7.451   0.668   4.106  0.3278  0.4260  3.1332
  122MOL    H9646318   7.560   0.752   3.995  0.8983  0.4569  0.2676
  122MOL    C9746319   0.292   0.533   4.188  0.0371  0.2412  0.0399
  122MOL    C9846320   0.337   0.478   4.049  0.3512 -0.1289 -0.6698
  122MOL    C9946321   0.486   0.470   4.048  0.1882  0.3039  0.8426
  122MOL   C10046322   0.529   0.493   4.195 -0.6573  0.0319 -0.5176
  122MOL   C10146323   0.640   0.393   4.233 -0.6448  0.2506  0.3142
  122MOL   C10246324   0.775   0.400   4.152  0.1483 -0.7247 -0.5640
  122MOL   C10346325   0.405   0.476   4.272  0.1153  0.0427 -0.2508
  122MOL   H10446326   0.303   0.642   4.196  0.5017  0.0858  1.7754
  122MOL   H10546327   0.297   0.377   4.047  0.6989 -0.2677 -0.6932
  122MOL   H10646328   0.291   0.534   3.968 -1.2950 -0.3630  0.0667
  122MOL   H10746329   0.514   0.382   3.991 -0.5334  1.4969 -1.4121
  122MOL   H10846330   0.528   0.551   3.987  1.9812 -0.2837  1.2729
  122MOL   H10946331   0.570   0.590   4.224 -1.6801 -0.6713  3.6195
  122MOL   H11046332   0.672   0.405   4.336  2.6720 -0.6247 -0.5321
  122MOL   H11146333   0.623   0.286   4.221 -0.4499  0.4259 -1.7720
  122MOL   H11246334   0.749   0.368   4.051 -1.7553 -0.2466 -0.2522
  122MOL   H11346335   0.804   0.501   4.123  0.9167 -0.8093 -0.0811
  122MOL   H11446336   0.391   0.368   4.273  0.9193 -0.0876 -1.8129
  122MOL   H11546337   0.420   0.501   4.377 -1.3867  1.1283 -0.2772
  122MOL   C11646338   0.891   0.319   4.209  0.1860 -0.4306  0.2952
  122MOL   C11746339   1.000   0.312   4.103  0.1322  0.4563 -0.8147
  122MOL   C11846340   1.129   0.350   4.187  0.4378 -0.2600  0.2308
  122MOL   C11946341   1.100   0.331   4.333  0.4341  0.3100  0.4283
  122MOL   C12046342   1.194   0.400   4.430 -0.0316 -0.3823  0.5022
  122MOL   C12146343   1.187   0.356   4.573  0.1860 -0.4389 -0.6373
  122MOL   C12246344   0.957   0.387   4.333 -0.4013 -0.2180 -0.3535
  122MOL   H12346345   0.851   0.218   4.222  0.9129 -0.6640  0.7060
  122MOL   H12446346   0.986   0.381   4.020  0.5262  1.9362  0.3252
  122MOL   H12546347   1.004   0.211   4.063  0.6194  0.6243 -1.2060
  122MOL   H12646348   1.167   0.449   4.161 -1.7883  0.8794  1.1409
  122MOL   H12746349   1.209   0.279   4.169  1.0577  0.4490  0.1847
  122MOL   H12846350   1.094   0.227   4.364 -0.0077  0.1044 -0.3539
  122MOL   H12946351   1.197   0.506   4.406  1.3272 -1.0660 -2.5900
  122MOL   H13046352   1.300   0.382   4.414 -0.0491 -1.5720  1.6172
  122MOL   H13146353   1.288   0.368   4.611 -0.3678  0.8191  0.4625
  122MOL   H13246354   1.170   0.249   4.585 -0.1514 -0.2299  0.7973
  122MOL   H13346355   0.903   0.364   4.425  0.5662 -0.1438  0.2492
  122MOL   H13446356   0.964   0.495   4.321 -0.5633 -0.1919 -0.2151
  122MOL   C13546357   1.077   0.415   4.657 -0.5039  0.3821 -0.2249
  122MOL   C13646358   1.061   0.365   4.804  0.8267 -0.5158  0.3181
  122MOL   C13746359   0.979   0.468   4.881 -0.5684  0.9170  0.3733
  122MOL   C13846360   1.035   0.595   4.823  0.2234 -0.0157  0.1789
  122MOL   C13946361   0.939   0.717   4.844  0.0899 -0.1226 -0.3958
  122MOL   C14046362   1.000   0.854   4.801  0.1121  0.0274  0.1567
  122MOL   C14146363   1.079   0.562   4.672  0.0934  0.1356  0.0855
  122MOL   H14246364   0.976   0.402   4.616 -1.5480  2.8967  1.4648
  122MOL   H14346365   1.007   0.270   4.807 -0.5089  0.2044 -0.7617
  122MOL   H14446366   1.157   0.347   4.853  0.0122 -1.4681  1.6069
  122MOL   H14546367   0.874   0.449   4.861 -0.2098 -0.1895 -0.5159
  122MOL   H14646368   0.986   0.457   4.989 -1.3670  0.0818  0.3437
  122MOL   H14746369   1.129   0.614   4.875 -0.4719  1.3313  0.9825
  122MOL   H14846370   0.910   0.726   4.948  3.5323 -1.7679  0.7966
  122MOL   H14946371   0.844   0.699   4.793 -0.2110  1.7139 -0.5079
  122MOL   H15046372   1.021   0.854   4.694 -0.4058 -3.0499  0.0084
  122MOL   H15146373   0.920   0.926   4.817  0.6513  0.4971  0.7406
  122MOL   H15246374   1.176   0.606   4.649 -1.1892  2.1160 -1.7214
  122MOL   H15346375   1.019   0.604   4.592 -2.0808  0.6063  1.9258
  122MOL   C15446376   1.115   0.902   4.887  0.5411 -0.8487 -0.2619
  122MOL   C15546377   1.094   1.042   4.942 -0.2133 -0.2967  0.0417
  122MOL   C15646378   1.242   1.084   4.967 -0.2317  0.5611  1.1532
  122MOL   C15746379   1.340   0.993   4.898 -0.7274  0.6276  0.3091
  122MOL   C15846380   1.450   1.068   4.826  0.3576  0.1180 -0.0711
  122MOL   C15946381   1.549   1.127   4.928  0.2286 -0.2977  0.1535
  122MOL   C16046382   1.249   0.904   4.810 -0.3270 -0.4528  0.1457
  122MOL   H16146383   1.129   0.827   4.965  0.5722  0.0459  0.5933
  122MOL   H16246384   1.051   1.101   4.861 -1.6983 -3.1420 -1.2891
  122MOL   H16346385   1.038   1.049   5.035  0.1887  2.3412  0.1417
  122MOL   H16446386   1.251   1.188   4.936 -1.6625  0.7859  1.4423
  122MOL   H16546387   1.258   1.088   5.075  0.2370  1.8828  1.0452
  122MOL   H16646388   1.385   0.928   4.973  0.5893  4.0922  2.6245
  122MOL   H16746389   1.413   1.134   4.748 -1.9692 -0.1583  0.7517
  122MOL   H16846390   1.507   0.997   4.766  0.5704  0.7096 -0.5675
  122MOL   H16946391   1.494   1.181   5.005  0.4778 -0.2918  0.3274
  122MOL   H17046392   1.605   1.052   4.984  1.6479  0.5331 -0.1339
  122MOL   H17146393   1.291   0.803   4.811  2.6868  0.7298  0.6227
  122MOL   H17246394   1.234   0.950   4.713 -0.4432  0.5467  0.6240
  122MOL   C17346395   1.656   1.215   4.859  0.2054 -0.1946  0.0888
  122MOL   C17446396   1.753   1.284   4.957 -0.3124 -0.0739  0.0839
  122MOL   C17546397   1.871   1.186   4.969  0.8720  0.0865 -0.0335
  122MOL   C17646398   1.896   1.143   4.830  0.1348 -0.1560 -0.0579
  122MOL   C17746399   1.953   0.999   4.816 -0.6610  0.1228  0.2898
  122MOL   C17846400   1.985   0.955   4.674  0.1675 -0.6750 -0.3145
  122MOL   C17946401   1.751   1.138   4.769 -0.0009 -0.0630 -0.0140
  122MOL   H18046402   1.598   1.284   4.798 -0.6023 -0.1911  0.8573
  122MOL   H18146403   1.699   1.310   5.048  1.5281 -0.8221  1.4086
  122MOL   H18246404   1.795   1.380   4.928  0.1069  0.3977  2.1572
  122MOL   H18346405   1.954   1.230   5.025  1.4481  0.3378 -1.0735
  122MOL   H18446406   1.833   1.107   5.034  1.7480 -0.0050  0.3807
  122MOL   H18546407   1.957   1.215   4.776  0.1824 -1.2685 -1.5398
  122MOL   H18646408   1.901   0.924   4.876 -2.0700  0.9877  0.1909
  122MOL   H18746409   2.047   1.002   4.871 -1.0514  2.0058  0.8963
  122MOL   H18846410   2.056   1.030   4.641  1.5722 -1.9971 -0.3148
  122MOL   H18946411   1.897   0.959   4.609 -0.0304  1.2812  0.0545
  122MOL   H19046412   1.717   1.036   4.752  2.4206 -0.8429 -0.4554
  122MOL   H19146413   1.748   1.176   4.667 -1.1083 -1.0052 -0.3294
  122MOL   C19246414   2.055   0.818   4.644  0.4583 -0.9506  0.8456
  122MOL   C19346415   2.163   0.827   4.526  0.4824 -0.1169 -0.0787
  122MOL   C19446416   2.197   0.679   4.512  0.7845  0.6832 -0.5555
  122MOL   C19546417   2.056   0.612   4.519  0.3251  0.2363  0.1517
  122MOL   C19646418   2.078   0.469   4.567 -0.8137 -0.3540  0.5475
  122MOL   C19746419   2.135   0.389   4.449  0.0313  0.3770  0.7871
  122MOL   C19846420   1.965   0.698   4.611 -0.4045 -0.5841  0.2895
  122MOL   H19946421   2.108   0.788   4.734  2.4804 -1.8264 -0.6090
  122MOL   H20046422   2.118   0.867   4.435 -1.1413 -1.7325 -0.0124
  122MOL   H20146423   2.249   0.888   4.552  1.9046 -0.6135 -3.4560
  122MOL   H20246424   2.260   0.660   4.599 -0.3153  0.5526  0.2317
  122MOL   H20346425   2.255   0.672   4.420  0.9073  0.4674 -0.4616
  122MOL   H20446426   2.016   0.604   4.418  3.1079  0.5879 -1.0062
  122MOL   H20546427   1.976   0.435   4.586 -1.1320 -1.7397 -3.1548
  122MOL   H20646428   2.143   0.460   4.654 -0.1661  1.2319  0.2444
  122MOL   H20746429   2.233   0.425   4.417 -0.9643  1.7044 -0.7845
  122MOL   H20846430   2.063   0.397   4.367  2.3719  1.7744 -1.1903
  122MOL   H20946431   1.934   0.640   4.698  3.5693  1.5640  3.3097
  122MOL   H21046432   1.874   0.734   4.563  0.4169  0.1339 -0.7526
  122MOL   C21146433   2.157   0.236   4.469 -0.2962 -0.3131 -0.3996
  122MOL   C21246434   2.252   0.177   4.360  0.3141 -0.3373 -0.7707
  122MOL   C21346435   2.214   0.029   4.352 -1.0061  0.1439  0.3035
  122MOL   C21446436   2.092   0.006   4.448 -0.6770  0.3257  0.0180
  122MOL   C21546437   1.981   7.565   4.399  0.1847  0.0327  0.3058
  122MOL   C21646438   2.011   7.416   4.398  0.6398  0.1365 -0.6220
  122MOL   C21746439   2.035   0.145   4.461  0.2517 -0.3079  0.1548
  122MOL   H21846440   2.205   0.228   4.567 -3.4194 -0.7076  1.1803
  122MOL   H21946441   2.236   0.219   4.261  1.9898  2.0961 -0.0602
  122MOL   H22046442   2.356   0.200   4.383 -0.0718 -0.3949  1.1575
  122MOL   H22146443   2.169   7.643   4.258  0.0286 -0.4015 -0.0115
  122MOL   H22246444   2.302   7.620   4.384  0.4974  2.5879  0.5577
  122MOL   H22346445   2.130   7.619   4.544 -1.4666 -0.8845 -0.0992
  122MOL   H22446446   1.958   7.595   4.296  0.5440 -0.2488  0.1437
  122MOL   H22546447   1.889   7.591   4.452 -1.0754  2.3526 -2.8463
  122MOL   H22646448   2.115   7.412   4.365  0.9245  1.1184  0.1399
  122MOL   H22746449   2.010   7.371   4.497  0.8040  1.6581  0.0867
  122MOL   H22846450   1.985   0.152   4.558  0.6605  0.4945  0.3147
  122MOL   H22946451   1.965   0.167   4.380 -2.2968  0.0061  2.3554
  122MOL   C23046452   1.936   7.332   4.290  1.2366 -0.3651 -0.1947
  122MOL   C23146453   1.788   7.322   4.328 -0.3138  1.1802  0.0730
  122MOL   C23246454   1.742   7.179   4.300 -0.3008  0.6978 -0.1924
  122MOL   C23346455   1.869   7.101   4.327 -0.3215  0.0653  0.0244
  122MOL   C23446456   1.856   6.960   4.272  0.7171 -0.4294  0.4914
  122MOL   C23546457   1.956   6.851   4.321 -0.3150 -0.1509  0.6319
  122MOL   C23646458   1.984   7.184   4.267 -0.4359  0.2480 -0.5381
  122MOL   H23746459   1.934   7.379   4.191  0.9443 -1.5545 -0.7597
  122MOL   H23846460   1.771   7.340   4.434 -0.6911 -2.5054  0.7338
  122MOL   H23946461   1.733   7.400   4.276 -1.8907 -0.3727 -0.6727
  122MOL   H24046462   1.699   7.169   4.201  0.8336 -2.0467 -0.4434
  122MOL   H24146463   1.661   7.135   4.358 -0.0154  0.5736  0.1168
  122MOL   H24246464   1.889   7.111   4.434  0.1491  0.3623 -0.0938
  122MOL   H24346465   1.870   6.971   4.164  0.7427  0.4110  0.5809
  122MOL   H24446466   1.755   6.923   4.293  0.9615 -1.1919  0.3130
  122MOL   H24546467   2.055   6.875   4.282 -0.8543 -1.2423 -1.4980
  122MOL   H24646468   1.951   6.864   4.429  1.8250  2.8734  0.4162
  122MOL   H24746469   2.006   7.170   4.161 -0.8763  0.4756 -0.6597
  122MOL   H24846470   2.080   7.174   4.317 -0.2694  3.7766 -0.0489
  122MOL   C24946471   1.925   6.705   4.272  0.3643  0.3347 -0.1446
  122MOL   C25046472   2.012   6.599   4.327 -0.5461 -0.4704  0.2994
  122MOL   C25146473   1.948   6.467   4.285 -0.1675 -0.0985 -0.7227
  122MOL   C25246474   1.796   6.496   4.282 -0.2068 -0.2892 -0.9398
  122MOL   C25346475   1.726   6.456   4.158  0.3443 -1.1603 -0.1017
  122MOL   C25446476   1.705   6.306   4.143  0.1435 -0.4212 -0.6825
  122MOL   C25546477   1.786   6.649   4.296  0.3445  0.1269  0.3437
  122MOL   H25646478   1.919   6.714   4.163 -0.9266  1.8013  0.0223
  122MOL   H25746479   2.109   6.607   4.277 -0.5301 -2.1630  0.0114
  122MOL   H25846480   2.026   6.611   4.434 -0.4573 -1.5324  0.4102
  122MOL   H25946481   1.961   6.386   4.356  1.1652  0.7171 -0.0145
  122MOL   H26046482   1.988   6.426   4.192 -1.8767 -3.4581 -0.0541
  122MOL   H26146483   1.754   6.447   4.370  0.7038  0.8734  0.1699
  122MOL   H26246484   1.775   6.502   4.072 -1.4483  1.3435  0.1531
  122MOL   H26346485   1.620   6.483   4.155  0.7114  0.2322 -1.5982
  122MOL   H26446486   1.687   6.273   4.245  1.6389 -0.2203 -0.3489
  122MOL   H26546487   1.798   6.254   4.120  0.3482 -0.7928  0.9432
  122MOL   H26646488   1.759   6.664   4.400  1.2837  0.8177  0.5019
  122MOL   H26746489   1.716   6.707   4.236 -2.3254 -3.6054 -0.3070
  122MOL   C26846490   1.603   6.250   4.039 -0.3510  0.7732 -0.6359
  122MOL   C26946491   1.577   6.095   4.039  0.1243 -0.4333  0.7824
  122MOL   C27046492   1.609   6.045   3.903 -0.0199  0.0090  0.0093
  122MOL   C27146493   1.605   6.162   3.811  0.3823 -0.4642  0.7499
  122MOL   C27246494   1.687   6.145   3.679  0.0653  0.1851  0.4712
  122MOL   C27346495   1.640   6.244   3.570  0.1206  0.1275 -0.0304
  122MOL   C27446496   1.647   6.278   3.893  0.2521 -0.3423 -0.2966
  122MOL   H27546497   1.505   6.298   4.050  0.0182  1.2890  0.4331
  122MOL   H27646498   1.632   6.040   4.115  1.6604 -1.2597 -0.9192
  122MOL   H27746499   1.472   6.074   4.063 -0.9172  0.4625 -2.6918
  122MOL   H27846500   1.709   6.005   3.888  0.0542  0.6895 -1.4425
  122MOL   H27946501   1.540   5.967   3.873 -2.4933  2.2875 -0.4296
  122MOL   H28046502   1.500   6.175   3.785  0.6522  0.7768  0.2452
  122MOL   H28146503   1.666   6.046   3.638 -0.0914  0.5394 -0.3305
  122MOL   H28246504   1.795   6.145   3.693  0.5596  2.9413 -2.6702
  122MOL   H28346505   1.535   6.235   3.542  0.1222 -1.0029  0.3121
  122MOL   H28446506   1.673   6.342   3.606 -1.2865  1.0699 -1.2592
  122MOL   H28546507   1.755   6.284   3.891  0.3071 -0.6653  1.0824
  122MOL   H28646508   1.612   6.376   3.860 -0.2055 -0.3067  0.2796
  122MOL   C28746509   1.722   6.226   3.439 -0.4546  0.8475  0.5917
  122MOL   C28846510   1.679   6.330   3.325 -0.6263 -0.2104  0.1395
  122MOL   C28946511   1.808   6.341   3.243 -0.5539  0.0509 -0.9472
  122MOL   C29046512   1.918   6.252   3.309  0.1653  1.0407  0.9135
  122MOL   C29146513   2.062   6.309   3.285 -0.7313  0.5545  0.0710
  122MOL   C29246514   2.093   6.282   3.137  0.0155  0.1790 -0.2142
  122MOL   C29346515   1.876   6.243   3.455  0.6072 -0.0523 -0.3268
  122MOL   H29446516   1.700   6.128   3.398 -3.1978  1.9549 -0.7180
  122MOL   H29546517   1.591   6.304   3.265 -0.3766  0.0941 -0.3625
  122MOL   H29646518   1.656   6.421   3.379 -2.3179 -1.1843  1.0944
  122MOL   H29746519   1.836   6.446   3.248 -1.4019  0.2274  0.2233
  122MOL   H29846520   1.796   6.322   3.136  0.2823  2.6722 -1.5327
  122MOL   H29946521   1.916   6.151   3.266 -2.8167  1.6295 -0.4594
  122MOL   H30046522   2.130   6.265   3.358 -0.7807 -0.6506 -0.5986
  122MOL   H30146523   2.063   6.416   3.308  0.8592 -0.1496  3.6902
  122MOL   H30246524   2.007   6.303   3.073 -0.3105 -0.1486  0.1102
  122MOL   H30346525   2.102   6.174   3.132  1.6524  0.2230  1.2801
  122MOL   H30446526   1.909   6.330   3.511  1.2892 -0.8203  0.4723
  122MOL   H30546527   1.915   6.157   3.510 -0.2666 -0.7025 -0.7076
  122MOL   C30646528   2.215   6.361   3.090 -0.2171  0.4976 -0.5636
  122MOL   C30746529   2.354   6.318   3.135 -0.0092 -0.0851 -0.4615
  122MOL   C30846530   2.440   6.348   3.010  0.6854  0.5067  0.9267
  122MOL   C30946531   2.355   6.384   2.892 -0.1961 -0.2858  0.2190
  122MOL   C31046532   2.402   6.322   2.759  0.6558 -0.1248  0.1019
  122MOL   C31146533   2.510   6.404   2.686 -0.5930 -0.4645 -0.1109
  122MOL   C31246534   2.221   6.340   2.938  0.3621  0.3809  0.2661
  122MOL   H31346535   2.216   6.467   3.112  1.1660  0.1163  1.3206
  122MOL   H31446536   2.388   6.362   3.229  0.5673 -0.2758 -0.5808
  122MOL   H31546537   2.359   6.210   3.151 -0.0757 -0.2240 -1.3393
  122MOL   H31646538   2.512   6.428   3.026  2.0560 -0.6223  0.4774
  122MOL   H31746539   2.500   6.260   2.990  0.8461  0.8898 -0.3129
  122MOL   H31846540   2.348   6.492   2.880 -2.0345 -0.4417 -0.1927
  122MOL   H31946541   2.414   6.214   2.769  0.7386 -0.2559 -1.3392
  122MOL   H32046542   2.309   6.327   2.701  0.3400 -0.4361  0.5770
  122MOL   H32146543   2.587   6.429   2.759  0.0090 -0.2595 -0.8070
  122MOL   H32246544   2.463   6.495   2.650 -1.6499 -0.6040  0.8891
  122MOL   H32346545   2.215   6.233   2.917 -0.1505  0.4166  0.2329
  122MOL   H32446546   2.135   6.377   2.881  0.7921 -2.5784 -2.4722
  122MOL   C32546547   2.560   6.328   2.559 -0.6479 -0.4659  0.0158
  122MOL   C32646548   2.439   6.294   2.466  0.2871  0.4115  0.0992
  122MOL   C32746549   2.491   6.316   2.324  0.6479  0.1335 -0.2406
  122MOL   C32846550   2.586   6.439   2.348  0.4621  0.4873  0.2293
  122MOL   C32946551   2.683   6.478   2.230 -0.0636 -0.0007  0.7171
  122MOL   C33046552   2.620   6.547   2.115 -0.0028  0.4063  0.8574
  122MOL   C33146553   2.663   6.397   2.468 -0.2266 -0.2014 -0.7581
  122MOL   H33246554   2.612   6.236   2.589  0.3223  0.0610 -0.0093
  122MOL   H33346555   2.358   6.367   2.474 -1.9428 -2.1719  1.9624
  122MOL   H33446556   2.394   6.196   2.476  2.7005 -0.8735 -1.0733
  122MOL   H33546557   2.552   6.236   2.284  0.5247 -0.8045  1.4183
  122MOL   H33646558   2.421   6.340   2.244  0.2836 -2.0666 -0.5932
  122MOL   H33746559   2.532   6.528   2.381  1.0210  0.3774  1.4450
  122MOL   H33846560   2.750   6.550   2.276 -0.0060  1.8581 -2.1382
  122MOL   H33946561   2.748   6.400   2.191 -1.1691 -0.4924 -0.1690
  122MOL   H34046562   2.678   6.529   2.024 -1.2708  0.5397  0.0143
  122MOL   H34146563   2.519   6.511   2.092 -0.1954  0.2824  1.8895
  122MOL   H34246564   2.727   6.469   2.519  1.1685 -3.1806  1.9140
  122MOL   H34346565   2.728   6.312   2.445 -2.1259 -1.5358 -1.3265
  122MOL   C34446566   2.600   6.697   2.136 -0.4236 -0.8007 -0.1593
  122MOL   C34546567   2.532   6.756   2.016  0.9580  0.2181  0.6599
  122MOL   C34646568   2.558   6.908   2.020 -0.1393  0.2449  0.7338
  122MOL   C34746569   2.675   6.930   2.115 -0.1816  0.1518  0.2791
  122MOL   C34846570   2.639   7.018   2.237 -0.4736 -0.2613 -0.4071
  122MOL   C34946571   2.761   7.061   2.318 -0.2510 -0.3902 -0.6912
  122MOL   C35046572   2.724   6.786   2.152 -0.0095 -0.6476  0.4584
  122MOL   H35146573   2.535   6.716   2.221 -0.2762 -2.7117  0.3968
  122MOL   H35246574   2.423   6.743   2.022  0.9199  0.4080  0.3609
  122MOL   H35346575   2.577   6.720   1.924 -3.4400 -1.6345 -0.9394
  122MOL   H35446576   2.568   6.929   1.913  0.4107 -3.4501 -0.0008
  122MOL   H35546577   2.466   6.955   2.053 -0.2684 -0.8465  1.9559
  122MOL   H35646578   2.759   6.981   2.068  1.2386 -1.5642  0.8821
  122MOL   H35746579   2.575   7.094   2.193  0.1540 -0.0963 -1.0390
  122MOL   H35846580   2.570   6.968   2.307 -0.2789  0.3530  0.2280
  122MOL   H35946581   2.847   7.083   2.255 -0.0399  0.6142 -0.0497
  122MOL   H36046582   2.797   6.980   2.380  0.9043  0.7005  0.0759
  122MOL   H36146583   2.811   6.772   2.088 -1.2750  1.0585 -1.7074
  122MOL   H36246584   2.756   6.778   2.256 -0.7606  0.7952  0.8148
  122MOL   C36346585   2.754   7.183   2.409 -0.4371 -0.5549 -0.2720
  122MOL   C36446586   2.859   7.184   2.521  0.1649  0.0895  0.5776
  122MOL   C36546587   2.800   7.249   2.648  0.0701  0.3774  0.0757
  122MOL   C36646588   2.649   7.282   2.613  0.6743  0.1031  0.6409
  122MOL   C36746589   2.560   7.247   2.728 -0.1195  0.0281 -0.3928
  122MOL   C36846590   2.417   7.268   2.697  0.0455  0.6260 -0.4101
  122MOL   C36946591   2.618   7.195   2.488  0.5180 -0.2390 -0.7409
  122MOL   H37046592   2.776   7.273   2.352  0.5314 -0.3668  0.3912
  122MOL   H37146593   2.895   7.084   2.543 -0.2808 -0.1212  0.3616
  122MOL   H37246594   2.945   7.239   2.482  0.1935 -1.3653 -1.4727
  122MOL   H37346595   2.814   7.175   2.726  0.7889  0.8175  0.3718
  122MOL   H37446596   2.852   7.336   2.688 -2.1320  0.9050  1.8672
  122MOL   H37546597   2.644   7.387   2.582 -0.8238 -0.0925  0.1513
  122MOL   H37646598   2.590   7.151   2.770  1.8183  2.1518  3.3339
  122MOL   H37746599   2.593   7.304   2.814  3.6296 -0.5551 -1.3686
  122MOL   H37846600   2.383   7.368   2.669 -0.7425  0.7771  0.9849
  122MOL   H37946601   2.354   7.243   2.783  1.1844  1.0200  0.5570
  122MOL   H38046602   2.597   7.096   2.528  1.6794 -1.1103 -2.2267
  122MOL   H38146603   2.552   7.245   2.418  2.3897 -0.0511 -2.4106
  122MOL   H38246604   2.374   7.192   2.632 -1.3632  0.9476  0.1121
  123MOL     C146605   6.703   7.593   5.192  0.2433 -0.5745  0.3793
  123MOL     C246606   6.660   0.013   5.324 -0.4365 -0.5247 -0.0481
  123MOL     C346607   6.741   0.147   5.324  0.3342  0.6939 -0.3656
  123MOL     C446608   6.714   0.197   5.184 -0.0235 -0.0983  0.5134
  123MOL     C546609   6.832   0.278   5.137  0.2730 -0.5563  0.3330
  123MOL     C646610   6.826   0.332   4.994  0.3271  0.4016  0.3809
  123MOL     C746611   6.700   0.064   5.103 -0.5463  0.4032 -0.0782
  123MOL     H846612   6.805   7.560   5.213  0.0127 -1.7608 -0.3433
  123MOL     H946613   6.682   7.606   5.415  2.9912  2.7148  1.1475
  123MOL    H1046614   6.555   0.042   5.332 -0.4886 -1.2246  1.8360
  123MOL    H1146615   6.699   0.223   5.391  1.9100  2.4499 -1.3116
  123MOL    H1246616   6.847   0.133   5.344  0.5313  1.7938 -0.5882
  123MOL    H1346617   6.624   0.257   5.175 -0.1954  0.1449  3.4499
  123MOL    H1446618   6.848   0.360   5.208  0.5185 -0.2291 -0.0945
  123MOL    H1546619   6.927   0.223   5.135  1.1919  1.0297 -1.9597
  123MOL    H1646620   6.870   0.251   4.935  0.3583  0.1775  0.7082
  123MOL    H1746621   6.725   0.342   4.953 -0.1080  0.1774  1.3794
  123MOL    H1846622   6.600   0.075   5.062  0.4127  0.7755 -2.3744
  123MOL    H1946623   6.772   0.051   5.022 -0.8071  0.4853 -0.3230
  123MOL    H2046624   6.637   7.511   5.164  0.8355 -1.1004  0.5267
  123MOL    C2146625   6.885   0.472   4.972  0.0501  0.4803 -0.6569
  123MOL    C2246626   7.025   0.495   5.018  0.5237 -0.0559  0.3751
  123MOL    C2346627   7.068   0.627   4.947  0.1636 -0.4218  0.0315
  123MOL    C2446628   6.969   0.654   4.838  0.0067  0.1544 -0.6566
  123MOL    C2546629   7.036   0.701   4.709 -0.2891  0.2895 -0.3314
  123MOL    C2646630   7.077   0.852   4.722  0.2031  0.3061  0.3758
  123MOL    C2746631   6.889   0.521   4.829  0.4013  0.4805 -0.4686
  123MOL    H2846632   6.810   0.535   5.020  0.5013 -0.5205  1.3969
  123MOL    H2946633   7.020   0.511   5.126  1.3671 -1.3835  0.6175
  123MOL    H3046634   7.092   0.416   4.984 -1.1677 -0.3458 -2.4333
  123MOL    H3146635   7.059   0.710   5.016  1.4869  0.6149 -1.0229
  123MOL    H3246636   7.173   0.628   4.917  0.1844  0.3537  0.1161
  123MOL    H3346637   6.897   0.731   4.866  0.5451  0.3822  0.0960
  123MOL    H3446638   6.973   0.683   4.622 -0.5282 -2.3250  0.3358
  123MOL    H3546639   7.123   0.640   4.685 -1.5573 -0.8197 -2.2149
  123MOL    H3646640   7.132   0.862   4.816  0.1376  1.0475  0.3337
  123MOL    H3746641   6.984   0.909   4.728 -0.5113 -0.8657  0.6989
  123MOL    H3846642   6.789   0.541   4.791 -0.5623 -0.0861  1.7085
  123MOL    H3946643   6.933   0.450   4.759  0.0347  0.4477 -0.6641
  123MOL    C4046644   7.139   0.910   4.595 -0.1751  0.8903  0.3907
  123MOL    C4146645   7.025   0.923   4.490 -0.2613 -0.3461  0.0919
  123MOL    C4246646   7.093   1.015   4.388 -0.1450  0.1929 -0.1541
  123MOL    C4346647   7.146   1.129   4.479 -0.3229  0.5362 -0.4990
  123MOL    C4446648   7.243   1.229   4.408  0.2342 -1.1000  0.4295
  123MOL    C4546649   7.175   1.309   4.297  0.6352 -0.3548 -0.8624
  123MOL    C4646650   7.201   1.052   4.603  1.0595  0.1699 -0.2117
  123MOL    H4746651   7.215   0.838   4.564 -0.6648  0.2193  0.7343
  123MOL    H4846652   6.933   0.969   4.525 -0.0616  0.1409 -0.0183
  123MOL    H4946653   7.010   0.825   4.446  0.7335 -0.1745 -0.6438
  123MOL    H5046654   7.164   0.960   4.326 -1.7485 -0.9165 -1.0686
  123MOL    H5146655   7.022   1.058   4.317 -0.5166  1.0520  0.7216
  123MOL    H5246656   7.061   1.182   4.521 -2.5961 -2.2864 -1.4093
  123MOL    H5346657   7.273   1.292   4.492 -0.7192 -1.9194  1.4128
  123MOL    H5446658   7.334   1.184   4.370  2.0152  3.0691 -0.4460
  123MOL    H5546659   7.079   1.352   4.325  0.0237 -1.1903 -1.6463
  123MOL    H5646660   7.159   1.240   4.214 -1.0429 -2.7020  1.3303
  123MOL    H5746661   7.308   1.035   4.589  1.1038  0.1874  0.0990
  123MOL    H5846662   7.182   1.104   4.697  0.2626 -0.8954  0.2249
  123MOL    C5946663   7.251   1.436   4.259 -0.3003  0.0841  0.5506
  123MOL    C6046664   7.380   1.402   4.186  0.6445  0.1743  0.4368
  123MOL    C6146665   7.372   1.450   4.043 -0.5510 -0.5826 -0.1806
  123MOL    C6246666   7.225   1.480   4.015 -0.1933  0.4944  0.9600
  123MOL    C6346667   7.215   1.588   3.908  0.4809 -0.1337  0.0055
  123MOL    C6446668   7.072   1.632   3.886 -0.0486 -0.1940 -0.6696
  123MOL    C6546669   7.168   1.520   4.155  0.4160 -0.3259  0.2656
  123MOL    H6646670   7.267   1.488   4.354 -0.7679  0.7581  0.2685
  123MOL    H6746671   7.462   1.444   4.244  0.6526 -1.5184  1.7105
  123MOL    H6846672   7.396   1.294   4.181  1.7755  0.3748 -0.4446
  123MOL    H6946673   7.417   1.548   4.034  1.6702 -1.5729 -0.1985
  123MOL    H7046674   7.415   1.389   3.963  3.3813 -0.6485  1.9046
  123MOL    H7146675   7.175   1.390   3.979  0.0223  1.2301 -1.2108
  123MOL    H7246676   7.249   1.541   3.816  0.4476  0.6472 -0.4057
  123MOL    H7346677   7.286   1.670   3.921 -0.0123  0.7569 -2.5851
  123MOL    H7446678   7.014   1.543   3.867  1.4362 -1.3431  0.0439
  123MOL    H7546679   7.016   1.673   3.969 -2.1441  0.5061 -2.3978
  123MOL    H7646680   7.175   1.628   4.168 -0.5150 -0.1990 -0.2877
  123MOL    H7746681   7.064   1.488   4.163 -0.4629  1.8136 -2.0713
  123MOL    C7846682   7.062   1.746   3.776 -0.0032 -0.0347 -0.3761
  123MOL    C7946683   6.921   1.775   3.719 -0.7304 -0.1704 -0.1261
  123MOL    C8046684   6.902   1.928   3.713  0.3975  0.5386  0.5543
  123MOL    C8146685   6.994   1.986   3.827  0.1795 -0.2966  0.9079
  123MOL    C8246686   6.913   2.001   3.960 -0.2814 -0.7286 -0.4710
  123MOL    C8346687   6.996   2.072   4.070  0.0477 -0.6764 -0.1984
  123MOL    C8446688   7.107   1.882   3.834 -0.0135 -0.0179 -0.1147
  123MOL    H8546689   7.125   1.707   3.696  1.3457  0.3885  0.4459
  123MOL    H8646690   6.908   1.736   3.619 -0.4724 -0.0245 -0.2179
  123MOL    H8746691   6.851   1.730   3.790 -1.1751 -1.1961 -1.2005
  123MOL    H8846692   6.935   1.961   3.614  0.2495 -0.3497  0.2006
  123MOL    H8946693   6.797   1.957   3.719  0.0489 -0.7570  0.8268
  123MOL    H9046694   7.031   2.084   3.797  1.8549 -1.7937 -2.2222
  123MOL    H9146695   6.866   1.908   3.994 -0.9119 -0.3269 -0.2293
  123MOL    H9246696   6.828   2.066   3.939  0.7012  0.0249 -2.2420
  123MOL    H9346697   7.038   2.170   4.046  1.4111 -0.5227  2.6156
  123MOL    H9446698   7.087   2.015   4.090 -0.9890 -2.3555 -0.1770
  123MOL    H9546699   7.153   1.876   3.932 -0.7509  1.3099  0.3159
  123MOL    H9646700   7.179   1.921   3.762  1.0886 -0.2785  0.8423
  123MOL    C9746701   6.922   2.104   4.204  0.1019  0.4961  0.8413
  123MOL    C9846702   6.875   1.974   4.279 -0.0539  0.3380 -0.6174
  123MOL    C9946703   6.725   1.993   4.303 -0.6840  0.6254 -0.1826
  123MOL   C10046704   6.708   2.151   4.308  0.4520 -0.5027  0.8290
  123MOL   C10146705   6.566   2.208   4.300  0.8639  0.3958 -0.4572
  123MOL   C10246706   6.486   2.207   4.439 -0.5419  0.0044 -0.2025
  123MOL   C10346707   6.798   2.198   4.194 -0.3685  0.6946  0.0904
  123MOL   H10446708   6.992   2.152   4.272  0.9946 -1.0921  1.0723
  123MOL   H10546709   6.896   1.880   4.230 -0.3847  0.1780 -0.4490
  123MOL   H10646710   6.916   1.983   4.380 -3.1552 -0.7611  0.7738
  123MOL   H10746711   6.673   1.933   4.228  0.7919 -1.6806  0.5714
  123MOL   H10846712   6.688   1.959   4.400  1.4020  2.8138  1.4494
  123MOL   H10946713   6.757   2.179   4.402  1.0404  1.4406 -0.0277
  123MOL   H11046714   6.572   2.308   4.256  0.0303  0.5664 -0.1893
  123MOL   H11146715   6.512   2.151   4.225 -1.8125  0.1142  1.6396
  123MOL   H11246716   6.470   2.104   4.470 -1.1395 -0.6990 -2.7807
  123MOL   H11346717   6.539   2.265   4.516  1.1905 -1.4532 -0.2728
  123MOL   H11446718   6.745   2.188   4.100  0.7912 -2.8312 -0.2695
  123MOL   H11546719   6.835   2.300   4.201 -1.8122  1.1776  0.9748
  123MOL   C11646720   6.353   2.272   4.433 -0.2261  1.6146  0.5216
  123MOL   C11746721   6.277   2.286   4.569  0.1334  0.3990  0.8171
  123MOL   C11846722   6.217   2.425   4.592 -0.3531  0.1168  0.4726
  123MOL   C11946723   6.237   2.495   4.455 -0.0306  0.3991 -0.0345
  123MOL   C12046724   6.257   2.645   4.460 -0.1093  0.6852 -0.3173
  123MOL   C12146725   6.118   2.712   4.476 -0.6670 -0.4895 -0.3137
  123MOL   C12246726   6.364   2.422   4.405  0.0110 -0.2724 -0.0304
  123MOL   H12346727   6.293   2.235   4.349 -0.0713 -0.1154  1.1407
  123MOL   H12446728   6.347   2.260   4.648 -1.7494 -2.7378  1.5432
  123MOL   H12546729   6.192   2.217   4.574  0.2466  0.2411  0.5908
  123MOL   H12646730   6.270   2.474   4.674  2.0244  1.0642 -1.5745
  123MOL   H12746731   6.110   2.428   4.614 -0.1733  1.4801  1.2335
  123MOL   H12846732   6.162   2.475   4.378 -0.4438  0.6690  0.2948
  123MOL   H12946733   6.295   2.685   4.366 -1.7537  1.4668 -0.6734
  123MOL   H13046734   6.318   2.683   4.541  1.1895 -1.4168 -0.2813
  123MOL   H13146735   6.088   2.686   4.577  0.9120  0.0611  0.3156
  123MOL   H13246736   6.043   2.672   4.407 -1.9374  3.6211 -1.4582
  123MOL   H13346737   6.384   2.444   4.300  0.0500  1.5567  0.3391
  123MOL   H13446738   6.448   2.459   4.463  1.9858 -0.0544 -2.9452
  123MOL   C13546739   6.111   2.873   4.452  0.4162 -0.3237  0.5558
  123MOL   C13646740   6.098   2.920   4.308 -0.1775  0.3766  0.6521
  123MOL   C13746741   6.048   3.071   4.318  0.2589 -0.2515  0.2757
  123MOL   C13846742   5.980   3.083   4.447  0.5011 -0.2847 -0.6815
  123MOL   C13946743   6.025   3.199   4.536 -0.7998  0.4674  0.5761
  123MOL   C14046744   5.939   3.232   4.661  0.0688 -0.2278 -0.3963
  123MOL   C14146745   5.995   2.945   4.518  0.5812  0.0272  0.2099
  123MOL   H14246746   6.205   2.917   4.484  1.3364 -0.4400 -1.9256
  123MOL   H14346747   6.198   2.919   4.265  0.7056  1.1004  2.6369
  123MOL   H14446748   6.028   2.853   4.257  1.0565 -1.3682  1.1938
  123MOL   H14546749   6.138   3.132   4.306  1.3068 -1.9644 -0.6678
  123MOL   H14646750   5.981   3.103   4.237 -0.6824 -1.9546  0.3643
  123MOL   H14746751   5.874   3.094   4.423  0.3624  0.7633  0.3680
  123MOL   H14846752   6.040   3.284   4.468  1.4775 -0.0949  0.3237
  123MOL   H14946753   6.125   3.178   4.573  0.6624 -1.0576 -3.9487
  123MOL   H15046754   5.840   3.262   4.628  0.0091 -0.8341 -0.7676
  123MOL   H15146755   5.926   3.138   4.713  1.9020  0.5833  1.6154
  123MOL   H15246756   5.909   2.878   4.506  0.5991 -0.2671  1.6513
  123MOL   H15346757   6.027   2.959   4.621  3.1233 -1.9128 -0.2582
  123MOL   C15446758   6.007   3.320   4.761 -0.2916 -0.1814 -0.4055
  123MOL   C15546759   5.924   3.350   4.893 -0.8436  0.7403 -0.3587
  123MOL   C15646760   5.918   3.506   4.910 -0.3818 -0.8168  0.2681
  123MOL   C15746761   6.023   3.569   4.818 -0.2417  0.2824  0.1778
  123MOL   C15846762   5.981   3.705   4.765  0.6511  0.3399  1.4118
  123MOL   C15946763   5.955   3.820   4.869  0.4317  0.5842 -0.0615
  123MOL   C16046764   6.036   3.464   4.713  0.5481 -0.7797  0.0365
  123MOL   H16146765   6.106   3.283   4.791 -0.3478  0.3294  0.4275
  123MOL   H16246766   5.816   3.332   4.884 -0.7496  1.4504 -3.1182
  123MOL   H16346767   5.962   3.296   4.980 -0.4062 -1.5740 -1.9665
  123MOL   H16446768   5.821   3.544   4.881  0.6560  2.5472  0.9920
  123MOL   H16546769   5.933   3.523   5.017  0.5767  0.7424 -0.1033
  123MOL   H16646770   6.122   3.579   4.862  0.8032 -0.1660 -1.9878
  123MOL   H16746771   5.888   3.693   4.709 -0.0613  1.3369  2.3830
  123MOL   H16846772   6.062   3.735   4.697 -0.4758 -0.2210 -0.2150
  123MOL   H16946773   5.878   3.773   4.930  2.7487 -1.0932  1.6589
  123MOL   H17046774   6.045   3.833   4.929 -1.4690  2.3163  2.5341
  123MOL   H17146775   6.137   3.456   4.674  1.5291 -1.2450  2.5569
  123MOL   H17246776   5.962   3.482   4.635  2.4270 -1.5691 -1.9827
  123MOL   C17346777   5.925   3.963   4.806 -0.1587 -0.3205  0.6375
  123MOL   C17446778   5.900   4.058   4.926 -0.9749 -0.6228 -0.1976
  123MOL   C17546779   6.033   4.128   4.947 -0.2064 -0.1142 -0.2316
  123MOL   C17646780   6.105   4.131   4.812  0.3391 -0.0942 -0.5275
  123MOL   C17746781   6.257   4.117   4.832  0.2110 -0.3320  0.1912
  123MOL   C17846782   6.343   4.144   4.702 -0.0805 -0.3891  0.2428
  123MOL   C17946783   6.038   4.023   4.724 -0.1323 -0.0579  0.3121
  123MOL   H18046784   5.829   3.966   4.754 -0.3354  0.9782  1.0240
  123MOL   H18146785   5.858   4.006   5.012  0.2561  1.2283  1.5658
  123MOL   H18246786   5.829   4.133   4.891 -1.0841 -0.0887  1.1587
  123MOL   H18346787   6.023   4.226   4.994 -0.0718 -0.1477 -0.1327
  123MOL   H18446788   6.094   4.068   5.015  2.5666  2.0600 -0.7158
  123MOL   H18546789   6.081   4.232   4.777  2.2377  0.3195 -0.6621
  123MOL   H18646790   6.263   4.010   4.854  2.7252  0.1929  2.2868
  123MOL   H18746791   6.293   4.164   4.924  0.2522  0.0904 -0.0419
  123MOL   H18846792   6.339   4.250   4.678  0.4250 -0.9277 -2.3679
  123MOL   H18946793   6.293   4.089   4.623 -2.6268  2.7641 -0.4291
  123MOL   H19046794   6.113   3.953   4.686  2.3178  2.8783 -0.4599
  123MOL   H19146795   5.996   4.070   4.635 -3.1088 -1.6409  0.8091
  123MOL   C19246796   6.491   4.109   4.723  0.0120  0.0957  0.7097
  123MOL   C19346797   6.564   4.197   4.829  0.5446  0.4003 -0.0395
  123MOL   C19446798   6.700   4.229   4.778 -0.1327 -0.0860 -0.2106
  123MOL   C19546799   6.726   4.154   4.653  1.1052 -0.0852  0.4560
  123MOL   C19646800   6.810   4.027   4.670  0.7350 -0.1566  0.0880
  123MOL   C19746801   6.838   3.956   4.542 -0.1655  0.2799 -0.3632
  123MOL   C19846802   6.582   4.132   4.599  0.4959  0.6662  0.4299
  123MOL   H19946803   6.493   4.004   4.753  1.0446 -0.0158  0.2863
  123MOL   H20046804   6.506   4.288   4.843  0.0729 -0.1574  1.6958
  123MOL   H20146805   6.584   4.160   4.930  2.6029 -0.6280 -0.7918
  123MOL   H20246806   6.783   4.220   4.849  1.9279 -2.3976 -2.7813
  123MOL   H20346807   6.700   4.333   4.744 -2.3720  0.6781  1.9777
  123MOL   H20446808   6.775   4.213   4.575  3.1441 -2.4945 -0.1729
  123MOL   H20546809   6.750   3.961   4.733  0.4404 -0.6908 -0.7464
  123MOL   H20646810   6.901   4.041   4.728  0.2639 -1.0951  1.0804
  123MOL   H20746811   6.899   4.018   4.476  0.5047 -0.1356 -0.1473
  123MOL   H20846812   6.747   3.930   4.487 -0.1990  1.2966 -0.7877
  123MOL   H20946813   6.558   4.060   4.520  1.9160  0.9714 -0.2909
  123MOL   H21046814   6.557   4.222   4.542  1.2098  0.3227 -0.4370
  123MOL   C21146815   6.929   3.839   4.559  0.4344  0.1503 -0.0881
  123MOL   C21246816   7.064   3.874   4.620  0.1148 -0.0389 -0.1164
  123MOL   C21346817   7.169   3.815   4.531  0.4435 -0.1817  0.0472
  123MOL   C21446818   7.103   3.703   4.454  0.4249 -0.0267  0.5481
  123MOL   C21546819   7.176   3.666   4.319 -0.3788 -0.5295 -0.5025
  123MOL   C21646820   7.269   3.546   4.329  0.1922 -0.1024  0.0910
  123MOL   C21746821   6.959   3.761   4.432 -0.1592 -0.2095 -1.0410
  123MOL   H21846822   6.893   3.764   4.630 -2.2381 -0.5688 -2.1633
  123MOL   H21946823   7.091   3.980   4.621 -0.3085  0.0849 -1.2416
  123MOL   H22046824   7.075   3.846   4.725  1.4169  0.2528 -0.1590
  123MOL   H22146825   7.210   3.899   4.475 -1.2507  1.4676  1.2090
  123MOL   H22246826   7.242   3.766   4.596  1.1415 -0.4991 -0.9747
  123MOL   H22346827   7.080   3.623   4.525  1.1278 -2.3291 -1.7336
  123MOL   H22446828   7.228   3.754   4.280  2.1293 -2.1172 -0.8886
  123MOL   H22546829   7.103   3.649   4.240  1.8989 -0.9333 -2.5822
  123MOL   H22646830   7.318   3.546   4.427  1.7914 -0.2910 -0.7011
  123MOL   H22746831   7.210   3.454   4.336 -0.2879  0.2809  1.2888
  123MOL   H22846832   6.883   3.683   4.419 -0.1007 -0.2252 -1.2952
  123MOL   H22946833   6.961   3.823   4.342 -0.4898  0.1896 -0.7743
  123MOL   C23046834   7.374   3.519   4.219  0.7852 -0.5651 -0.0591
  123MOL   C23146835   7.318   3.510   4.075  0.7284 -0.4544  0.0068
  123MOL   C23246836   7.434   3.444   3.998  0.1141  0.4390 -0.2079
  123MOL   C23346837   7.494   3.342   4.102 -0.0754 -0.2135  0.0619
  123MOL   C23446838   7.637   3.306   4.068 -0.0529  0.1216 -0.0692
  123MOL   C23546839   0.004   3.249   3.920 -0.3498  0.2962 -0.3443
  123MOL   C23646840   7.464   3.405   4.248  0.7360 -0.2003  0.1575
  123MOL   H23746841   7.442   3.605   4.218  0.4244 -0.2823 -1.9713
  123MOL   H23846842   7.229   3.447   4.076 -0.8519  1.7227  0.8573
  123MOL   H23946843   7.290   3.605   4.031  1.9155 -0.9135 -1.7931
  123MOL   H24046844   7.502   3.527   3.979 -0.3218  1.1285  1.1622
  123MOL   H24146845   7.393   3.396   3.910  0.7731 -2.6966  1.1378
  123MOL   H24246846   7.432   3.252   4.105 -1.4186  0.5862 -1.9760
  123MOL   H24346847   0.020   3.218   4.124 -1.5728  1.1632  2.4624
  123MOL   H24446848   0.055   3.393   4.082 -1.1687  0.4721  3.2178
  123MOL   H24546849   7.590   3.161   3.900  0.1466 -0.6313  2.1305
  123MOL   H24646850   7.626   3.322   3.842 -0.3854  0.9304  0.2572
  123MOL   H24746851   7.559   3.442   4.288  1.3811 -1.4179 -0.2157
  123MOL   H24846852   7.409   3.346   4.321 -1.3916  3.3932  1.6147
  123MOL   C24946853   0.155   3.218   3.891 -0.4717  0.0001 -0.7284
  123MOL   C25046854   0.176   3.117   3.781 -0.3201 -0.0942 -0.4624
  123MOL   C25146855   0.320   3.134   3.744  0.2382 -0.1890 -0.0063
  123MOL   C25246856   0.351   3.282   3.756  0.2212 -0.7968  0.6511
  123MOL   C25346857   0.498   3.314   3.789 -0.2120 -1.0054 -0.5113
  123MOL   C25446858   0.539   3.463   3.764  0.3092  0.0313  0.5344
  123MOL   C25546859   0.238   3.340   3.846  0.8021 -0.4933  0.1855
  123MOL   H25646860   0.190   3.173   3.983 -0.1725 -0.6578 -1.1580
  123MOL   H25746861   0.152   3.019   3.823 -0.2447  0.3164  0.5330
  123MOL   H25846862   0.114   3.149   3.696 -1.7247 -0.0700  0.5525
  123MOL   H25946863   0.354   3.105   3.645  1.9263 -0.8560  0.7570
  123MOL   H26046864   0.386   3.077   3.810  2.5856  0.4308 -1.7364
  123MOL   H26146865   0.333   3.323   3.657  1.6267  2.1270  1.5708
  123MOL   H26246866   0.556   3.247   3.726 -1.5828 -1.3956 -1.3812
  123MOL   H26346867   0.508   3.273   3.889  1.1583 -1.5761 -0.8692
  123MOL   H26446868   0.631   3.486   3.818  0.9040 -1.4501  0.1807
  123MOL   H26546869   0.479   3.544   3.804 -0.0752 -0.6878  1.4520
  123MOL   H26646870   0.171   3.407   3.793  2.4243  2.6267  1.9444
  123MOL   H26746871   0.273   3.393   3.934  0.3655  0.2627 -0.0926
  123MOL   C26846872   0.576   3.491   3.612 -0.7456 -0.7997 -0.0238
  123MOL   C26946873   0.699   3.412   3.562 -0.2286  0.0430  0.0658
  123MOL   C27046874   0.757   3.498   3.450 -0.7616  0.2797 -0.6051
  123MOL   C27146875   0.695   3.635   3.468 -0.3537 -0.1028  0.6382
  123MOL   C27246876   0.809   3.748   3.459 -0.1284 -0.8585  0.4148
  123MOL   C27346877   0.888   3.748   3.329 -0.1048 -0.5837 -0.8063
  123MOL   C27446878   0.624   3.639   3.598 -0.0477 -0.5438  0.0088
  123MOL   H27546879   0.490   3.480   3.546  1.0604  2.3784 -3.0662
  123MOL   H27646880   0.781   3.399   3.632  1.9242 -0.2907 -2.4268
  123MOL   H27746881   0.682   3.309   3.533  0.5497  0.4855 -2.1066
  123MOL   H27846882   0.865   3.493   3.448 -0.7646 -3.4305  2.2595
  123MOL   H27946883   0.720   3.447   3.361 -0.3878 -1.3164  0.1411
  123MOL   H28046884   0.618   3.654   3.394 -0.5756 -1.8224  0.3907
  123MOL   H28146885   0.879   3.741   3.542  1.0142 -1.7533 -0.6114
  123MOL   H28246886   0.768   3.848   3.474  0.3638 -0.2746 -1.8794
  123MOL   H28346887   0.950   3.659   3.320 -0.6170 -0.9990 -0.2773
  123MOL   H28446888   0.817   3.735   3.247 -0.9682  3.0755 -0.7278
  123MOL   H28546889   0.689   3.664   3.681 -0.2864 -0.0375  0.0406
  123MOL   H28646890   0.539   3.706   3.586 -0.0862 -1.0629 -3.0796
  123MOL   C28746891   0.973   3.878   3.304  0.3249 -0.2884  0.7991
  123MOL   C28846892   1.058   3.865   3.177  0.2559  0.2324  1.3570
  123MOL   C28946893   1.076   4.009   3.125  0.1964  0.2723  0.3672
  123MOL   C29046894   0.991   4.101   3.212 -0.0479  0.2080 -0.6238
  123MOL   C29146895   0.922   4.223   3.147 -0.1690 -0.5654 -0.1130
  123MOL   C29246896   0.868   4.319   3.249  0.1815 -0.5947  0.2137
  123MOL   C29346897   0.894   4.008   3.283  0.5073 -0.4679 -0.2743
  123MOL   H29446898   1.040   3.888   3.389  0.3488  1.3352  0.6179
  123MOL   H29546899   1.149   3.809   3.198  0.7002  0.6258  0.4854
  123MOL   H29646900   1.014   3.798   3.103 -0.0799  0.8853  0.9609
  123MOL   H29746901   1.060   4.012   3.018 -0.0270 -0.6725  0.3674
  123MOL   H29846902   1.183   4.031   3.129  0.4335 -0.3660 -1.6855
  123MOL   H29946903   1.060   4.139   3.287 -1.5978 -2.9106  2.5384
  123MOL   H30046904   0.841   4.198   3.078 -0.3784 -0.8968  0.2453
  123MOL   H30146905   0.993   4.277   3.085 -1.3745  0.5628 -0.5377
  123MOL   H30246906   0.961   4.341   3.300  0.6408 -1.2045 -0.3600
  123MOL   H30346907   0.797   4.275   3.319 -0.4510  1.1332  0.6932
  123MOL   H30446908   0.810   3.979   3.220 -0.0815  2.2315 -0.8046
  123MOL   H30546909   0.848   4.053   3.372  3.0374 -0.1354  0.9054
  123MOL   C30646910   0.808   4.444   3.184  0.3988 -0.1483  0.0189
  123MOL   C30746911   0.667   4.427   3.127 -0.2004 -0.2831  0.2592
  123MOL   C30846912   0.602   4.560   3.106 -0.0224 -0.3969 -0.0864
  123MOL   C30946913   0.693   4.657   3.175  0.3446 -0.2543 -0.2723
  123MOL   C31046914   0.617   4.779   3.232  0.1628  0.1421  0.6059
  123MOL   C31146915   0.725   4.885   3.280  0.4082 -0.6911 -0.0044
  123MOL   C31246916   0.778   4.565   3.267  0.2091  0.4809 -0.2149
  123MOL   H31346917   0.886   4.476   3.115 -1.3049  1.4793 -1.2026
  123MOL   H31446918   0.658   4.354   3.046 -1.3064  1.2018 -0.9915
  123MOL   H31546919   0.596   4.397   3.203 -0.5370  2.6103  1.1259
  123MOL   H31646920   0.606   4.585   3.000  0.5079  0.4249  0.1165
  123MOL   H31746921   0.500   4.568   3.142 -0.2597 -1.2479 -0.5765
  123MOL   H31846922   0.759   4.696   3.097  0.3830  1.3910  0.5474
  123MOL   H31946923   0.544   4.821   3.163  1.3933 -0.7353 -1.2764
  123MOL   H32046924   0.557   4.752   3.318 -1.1542  1.1113  0.0153
  123MOL   H32146925   0.801   4.833   3.338 -0.7778 -1.6001  0.7359
  123MOL   H32246926   0.680   4.958   3.347 -2.0222 -1.6562 -0.5610
  123MOL   H32346927   0.715   4.545   3.354  0.7366 -0.1448  0.0256
  123MOL   H32446928   0.873   4.602   3.307  0.1186 -1.1222  1.5330
  123MOL   C32546929   0.800   4.959   3.162  0.6028 -0.1069  0.3831
  123MOL   C32646930   0.713   5.070   3.097  0.6487  0.9441  0.5151
  123MOL   C32746931   0.807   5.194   3.085  0.6824  0.7345  0.3793
  123MOL   C32846932   0.914   5.171   3.199 -0.5597  0.0089  0.0848
  123MOL   C32946933   1.053   5.232   3.163  0.8135 -0.0836  0.2323
  123MOL   C33046934   1.027   5.384   3.157 -0.0800  0.4572 -0.4063
  123MOL   C33146935   0.926   5.024   3.232 -0.4844 -0.2035  0.4412
  123MOL   H33246936   0.844   4.891   3.089  2.0759  0.5474  0.6555
  123MOL   H33346937   0.629   5.102   3.159 -0.4220 -1.1511  0.2024
  123MOL   H33446938   0.667   5.038   3.003 -0.5420  1.9513  0.7451
  123MOL   H33546939   0.854   5.190   2.987  1.3520 -1.3035  0.7520
  123MOL   H33646940   0.758   5.291   3.091 -1.8945 -0.2885 -2.4932
  123MOL   H33746941   0.878   5.217   3.291 -0.3686 -1.8244  1.0914
  123MOL   H33846942   1.127   5.215   3.241  1.9534  1.8675 -0.3879
  123MOL   H33946943   1.090   5.202   3.065 -1.4965 -0.7237 -0.4659
  123MOL   H34046944   0.955   5.406   3.077  2.2669  2.2989 -2.0827
  123MOL   H34146945   0.981   5.411   3.252  0.3286 -1.2982  0.3148
  123MOL   H34246946   0.935   5.014   3.340 -0.3530 -0.2624  0.4246
  123MOL   H34346947   1.015   4.983   3.184 -0.4219  0.4522 -0.0080
  123MOL   C34446948   1.153   5.471   3.137 -0.3114  0.2723  0.1288
  123MOL   C34546949   1.121   5.620   3.141 -0.0282  0.0059 -0.4423
  123MOL   C34646950   1.228   5.682   3.060 -0.3014 -0.5432 -0.1633
  123MOL   C34746951   1.240   5.594   2.941  0.2920 -0.1746 -0.2484
  123MOL   C34846952   1.370   5.615   2.858  0.3015 -0.0333 -0.7200
  123MOL   C34946953   1.378   5.542   2.724  0.0585  0.7178 -1.0684
  123MOL   C35046954   1.221   5.457   3.000  0.1413  0.0419 -0.1591
  123MOL   H35146955   1.223   5.453   3.219  1.3266  1.0999 -1.0744
  123MOL   H35246956   1.118   5.666   3.240  1.1007  1.9363 -1.2804
  123MOL   H35346957   1.025   5.648   3.097 -1.1546  0.0574  1.9989
  123MOL   H35446958   1.191   5.779   3.029 -1.6922 -0.9661  0.1616
  123MOL   H35546959   1.321   5.695   3.115 -1.1123  0.9211  0.8766
  123MOL   H35646960   1.163   5.611   2.866  0.7893  2.6267 -0.1546
  123MOL   H35746961   1.379   5.722   2.839 -1.3075  0.0358 -1.1669
  123MOL   H35846962   1.452   5.592   2.926  0.3038 -2.8810 -1.6248
  123MOL   H35946963   1.315   5.602   2.658  0.1935  0.3523 -1.5301
  123MOL   H36046964   1.350   5.437   2.736  1.7586  0.2595 -1.0120
  123MOL   H36146965   1.164   5.403   2.925  0.7030  0.5280 -0.9469
  123MOL   H36246966   1.308   5.392   3.007  0.1269  0.0161 -0.2165
  123MOL   C36346967   1.524   5.543   2.662 -0.1896 -0.6853  0.3524
  123MOL   C36446968   1.527   5.476   2.530  0.1675 -0.3271  0.2638
  123MOL   C36546969   1.673   5.435   2.515 -0.7482 -0.5693 -0.0322
  123MOL   C36646970   1.732   5.404   2.649 -0.5234 -0.3059  0.5998
  123MOL   C36746971   1.781   5.254   2.675  0.2595 -0.0219 -0.7555
  123MOL   C36846972   1.893   5.188   2.593  0.4152  0.2234  0.3569
  123MOL   C36946973   1.616   5.446   2.742 -0.9431  0.3272 -0.1872
  123MOL   H37046974   1.561   5.645   2.664 -0.7998 -0.3711 -2.2458
  123MOL   H37146975   1.468   5.385   2.524  1.8264 -1.4765  1.1732
  123MOL   H37246976   1.488   5.544   2.454 -2.7600 -0.7618  1.3015
  123MOL   H37346977   1.690   5.363   2.435 -0.7392  1.0416 -1.5216
  123MOL   H37446978   1.726   5.524   2.479  0.6881 -1.5150 -0.2894
  123MOL   H37546979   1.814   5.472   2.674 -0.8106 -0.3971  1.7949
  123MOL   H37646980   1.835   5.257   2.770  1.5231  0.0535 -1.4673
  123MOL   H37746981   1.699   5.183   2.688 -0.2246  0.8030  0.8493
  123MOL   H37846982   1.985   5.246   2.591  0.5045  0.1320  1.4785
  123MOL   H37946983   1.867   5.158   2.491 -0.7926  0.7001  0.5083
  123MOL   H38046984   1.556   5.359   2.768  0.3838 -0.0343  1.8487
  123MOL   H38146985   1.657   5.475   2.839 -1.1935  0.7717 -0.2157
  123MOL   H38246986   1.917   5.093   2.640  0.3703  1.1520  2.3032
  124MOL     C146987   7.517   0.979   2.309  0.0877 -0.2657 -0.4694
  124MOL     C246988   7.529   0.825   2.299  0.8583 -0.0112  0.4185
  124MOL     C346989   7.391   0.776   2.256 -0.5883  0.2884  0.0891
  124MOL     C446990   7.292   0.894   2.248 -0.4166  0.2664 -0.0869
  124MOL     C546991   7.145   0.859   2.295 -0.1125  0.9996 -0.3146
  124MOL     C646992   7.079   0.752   2.213 -0.7305  0.2619  0.3579
  124MOL     C746993   7.366   1.005   2.336 -0.0089  0.0747  0.0848
  124MOL     H846994   7.583   1.017   2.387 -0.9238  1.4299 -0.4033
  124MOL     H946995   7.541   0.785   2.400  0.2779 -2.6965 -0.5322
  124MOL    H1046996   7.619   0.792   2.247 -0.2206 -0.7032 -1.0516
  124MOL    H1146997   7.397   0.719   2.163  1.5497  0.1506  0.2972
  124MOL    H1246998   7.348   0.707   2.329 -0.8460 -2.5222 -2.5998
  124MOL    H1346999   7.280   0.922   2.143 -1.2284  1.0367  0.1999
  124MOL    H1447000   7.153   0.826   2.398 -0.5662 -0.3334 -0.7020
  124MOL    H1547001   7.095   0.956   2.302  0.9999  1.4449  1.8730
  124MOL    H1647002   7.093   0.759   2.106  0.8095 -2.8291  0.3099
  124MOL    H1747003   7.117   0.653   2.238 -1.6802 -0.4133 -0.8415
  124MOL    H1847004   7.328   1.107   2.326  0.7959  0.3839  0.1605
  124MOL    H1947005   7.346   0.985   2.441  1.6225 -0.0248  0.3961
  124MOL    H2047006   7.549   1.029   2.217  2.9734  0.7393  1.0167
  124MOL    C2147007   6.919   0.749   2.229  0.4236  0.4542 -0.7054
  124MOL    C2247008   6.855   0.668   2.120 -0.9585 -0.3055  0.5395
  124MOL    C2347009   6.715   0.648   2.168 -1.2818 -0.8019  0.2684
  124MOL    C2447010   6.715   0.648   2.322  0.6292  0.0365  0.1990
  124MOL    C2547011   6.679   0.519   2.399  0.2414 -0.3688 -0.3977
  124MOL    C2647012   6.543   0.461   2.373  0.2259 -0.9385  0.1735
  124MOL    C2747013   6.869   0.689   2.358 -0.7109  0.2627 -0.3701
  124MOL    H2847014   6.885   0.851   2.215 -0.4151  0.0114 -1.9047
  124MOL    H2947015   6.865   0.718   2.023  0.3126 -0.2363  0.6928
  124MOL    H3047016   6.901   0.570   2.112  3.6543  1.8475 -1.6985
  124MOL    H3147017   6.657   0.734   2.133  0.6026  0.4589  0.1907
  124MOL    H3247018   6.684   0.552   2.126  0.5834 -1.8489  1.2441
  124MOL    H3347019   6.650   0.728   2.356  1.4023 -0.0923  2.0186
  124MOL    H3447020   6.683   0.540   2.506  1.0313  1.2336 -0.7215
  124MOL    H3547021   6.742   0.434   2.376  0.4982  0.1868 -1.8172
  124MOL    H3647022   6.540   0.420   2.272  0.5485 -2.4649  0.7706
  124MOL    H3747023   6.465   0.537   2.369  1.5934  0.4181 -1.2591
  124MOL    H3847024   6.886   0.750   2.447  0.6627 -1.6016  0.6740
  124MOL    H3947025   6.919   0.599   2.395 -0.4818  1.5995  2.7553
  124MOL    C4047026   6.502   0.357   2.481 -0.0950  0.2100  0.4085
  124MOL    C4147027   6.350   0.344   2.466  0.0204 -0.3500  0.6524
  124MOL    C4247028   6.324   0.203   2.517  0.4877  0.0443 -0.2858
  124MOL    C4347029   6.441   0.117   2.479  0.1689 -0.2078  0.2349
  124MOL    C4447030   6.477   0.015   2.594  0.1835  0.4192 -0.1167
  124MOL    C4547031   6.605   7.574   2.574 -0.5136  0.2463  0.0961
  124MOL    C4647032   6.555   0.214   2.459  0.1979  0.6349  0.2333
  124MOL    H4747033   6.524   0.399   2.579 -1.2070  1.4556  0.1357
  124MOL    H4847034   6.314   0.359   2.364  0.1176  0.8889  0.7911
  124MOL    H4947035   6.290   0.412   2.526 -1.3424 -2.6589  1.9783
  124MOL    H5047036   6.318   0.217   2.625 -1.1267  0.2113 -0.3899
  124MOL    H5147037   6.232   0.163   2.476 -1.2214  2.2315  1.2841
  124MOL    H5247038   6.416   0.071   2.383  1.4552  1.6531 -1.0343
  124MOL    H5347039   6.490   0.073   2.685  0.2592  2.4281 -1.3764
  124MOL    H5447040   6.396   7.592   2.613  2.6311 -3.0737 -1.8962
  124MOL    H5547041   6.607   7.511   2.662  1.1427 -1.4933 -1.1640
  124MOL    H5647042   6.693   7.638   2.578 -1.9872  2.2228  3.2125
  124MOL    H5747043   6.644   0.190   2.518  0.7433  1.5399 -0.1981
  124MOL    H5847044   6.585   0.205   2.354  0.3788  0.0508  0.3342
  124MOL    C5947045   6.596   7.477   2.452  0.1598  0.0815  0.1430
  124MOL    C6047046   6.608   7.535   2.308  0.0916 -0.1564  0.4752
  124MOL    C6147047   6.719   7.455   2.242 -0.1285 -0.5744  0.2225
  124MOL    C6247048   6.731   7.328   2.318 -0.2114 -0.4753 -0.2651
  124MOL    C6347049   6.628   7.216   2.273 -0.6242  0.3318 -0.2928
  124MOL    C6447050   6.663   7.086   2.331  0.6055  0.3335  0.0746
  124MOL    C6547051   6.710   7.371   2.466 -0.2286 -0.5991 -0.3958
  124MOL    H6647052   6.500   7.425   2.454  0.5516 -0.6348  3.1742
  124MOL    H6747053   6.515   7.539   2.252  0.0280  0.2780  0.6125
  124MOL    H6847054   6.651   7.633   2.327 -0.2427  0.0059  0.3919
  124MOL    H6947055   6.706   7.431   2.136  0.3916  2.1759 -0.4970
  124MOL    H7047056   6.819   7.496   2.252 -0.8092  1.3363 -0.4927
  124MOL    H7147057   6.829   7.284   2.298  0.5322  0.7895  0.4675
  124MOL    H7247058   6.628   7.195   2.166 -1.1522 -0.8794 -0.0694
  124MOL    H7347059   6.527   7.248   2.295 -0.6328  1.0582 -1.3682
  124MOL    H7447060   6.767   7.053   2.327  0.0472 -1.5928  0.6496
  124MOL    H7547061   6.645   7.105   2.437 -2.8062 -1.4298 -0.0918
  124MOL    H7647062   6.671   7.293   2.531 -1.4502  1.7771  1.8099
  124MOL    H7747063   6.801   7.421   2.500 -0.8313 -1.4437  2.6015
  124MOL    C7847064   6.564   6.962   2.291  0.0282  0.2446  0.2292
  124MOL    C7947065   6.592   6.838   2.363 -0.4426 -1.0749  0.0883
  124MOL    C8047066   6.458   6.786   2.420  0.0435 -0.1639 -0.8794
  124MOL    C8147067   6.361   6.865   2.338  0.4869  0.4634 -0.0198
  124MOL    C8247068   6.223   6.869   2.395  0.0118 -0.2275 -0.3626
  124MOL    C8347069   6.133   6.943   2.291  0.1662 -0.3648  0.3202
  124MOL    C8447070   6.420   7.000   2.309  0.4364 -0.5503  0.3213
  124MOL    H8547071   6.573   6.936   2.185 -0.7621  0.3913  0.1270
  124MOL    H8647072   6.631   6.754   2.305  1.1504 -0.6748  0.5511
  124MOL    H8747073   6.650   6.855   2.454 -1.1630  2.1172 -0.0059
  124MOL    H8847074   6.438   6.680   2.407  0.1740 -0.4414  1.0466
  124MOL    H8947075   6.444   6.815   2.524  0.4325 -1.0208 -0.5803
  124MOL    H9047076   6.364   6.816   2.241  0.0532  2.3002 -0.9737
  124MOL    H9147077   6.207   6.921   2.489 -0.8203 -2.4302  0.7403
  124MOL    H9247078   6.169   6.778   2.422  0.8061 -0.1465  1.4892
  124MOL    H9347079   6.129   6.880   2.203 -1.2425 -0.0240  0.1376
  124MOL    H9447080   6.164   7.047   2.277 -0.0241  0.0998  2.9141
  124MOL    H9547081   6.387   7.059   2.394 -2.9883  1.2030 -2.0895
  124MOL    H9647082   6.376   7.042   2.219  1.3588 -0.1101  0.0633
  124MOL    C9747083   5.982   6.949   2.326  0.4390 -0.5566 -0.0205
  124MOL    C9847084   5.912   6.818   2.340 -0.5063 -0.2971  0.2045
  124MOL    C9947085   5.764   6.857   2.323  0.4191 -0.2016  0.6057
  124MOL   C10047086   5.754   6.990   2.241  0.3156  0.3486 -0.3267
  124MOL   C10147087   5.662   6.986   2.116  0.5655 -0.4191 -0.1760
  124MOL   C10247088   5.691   6.873   2.021 -0.4802 -0.3986 -0.4167
  124MOL   C10347089   5.904   7.024   2.214  0.2007  0.6958  0.1033
  124MOL   H10447090   5.980   7.007   2.419  2.1966 -0.3787 -0.0744
  124MOL   H10547091   5.944   6.749   2.263  1.7106 -0.1171  0.9479
  124MOL   H10647092   5.931   6.772   2.437 -2.6849 -1.7372 -0.0175
  124MOL   H10747093   5.702   6.774   2.289  0.8566 -0.9751  1.6687
  124MOL   H10847094   5.735   6.865   2.428  0.3394 -0.7875  0.6332
  124MOL   H10947095   5.721   7.064   2.313  0.7614 -1.2846  1.5967
  124MOL   H11047096   5.560   6.988   2.154  1.5557  0.6985  2.5652
  124MOL   H11147097   5.660   7.081   2.061 -1.4807 -1.2853 -1.6532
  124MOL   H11247098   5.797   6.869   1.996 -0.4833  3.9438 -1.5037
  124MOL   H11347099   5.687   6.786   2.086  1.2348 -0.0006  0.2434
  124MOL   H11447100   5.923   6.985   2.114 -1.0464 -0.1533  0.1878
  124MOL   H11547101   5.923   7.131   2.213  2.4567  0.3251 -0.6182
  124MOL   C11647102   5.606   6.873   1.895 -0.5584  0.0957  0.4585
  124MOL   C11747103   5.650   6.983   1.804  0.6699  0.0533  0.4158
  124MOL   C11847104   5.672   6.919   1.663 -0.2468 -0.1467  0.2483
  124MOL   C11947105   5.575   6.802   1.670  0.6526 -0.0335  0.0749
  124MOL   C12047106   5.612   6.694   1.570 -1.3445 -0.3837  0.6012
  124MOL   C12147107   5.586   6.720   1.421 -0.2707 -0.5988  0.0008
  124MOL   C12247108   5.592   6.746   1.813  0.1438  0.0860  0.0852
  124MOL   H12347109   5.504   6.903   1.919 -1.3828 -0.5204 -2.1041
  124MOL   H12447110   5.731   7.045   1.844  0.5497  1.3535 -1.2706
  124MOL   H12547111   5.568   7.053   1.786  0.4334 -0.0723  1.0029
  124MOL   H12647112   5.771   6.882   1.638 -0.7270 -0.7493 -0.7698
  124MOL   H12747113   5.645   6.991   1.586  0.8299  1.5412  1.4035
  124MOL   H12847114   5.474   6.837   1.648  0.8755  0.4547 -0.1752
  124MOL   H12947115   5.578   6.594   1.598  0.0785 -2.2430 -3.8400
  124MOL   H13047116   5.719   6.674   1.578 -0.9722  0.8455 -1.1054
  124MOL   H13147117   5.646   6.803   1.384  0.4881 -0.8442  0.6462
  124MOL   H13247118   5.484   6.752   1.401  0.6152  2.2331 -0.2494
  124MOL   H13347119   5.509   6.686   1.851  0.5539 -1.9451 -2.0964
  124MOL   H13447120   5.677   6.679   1.823  1.3481  1.6129  0.2828
  124MOL   C13547121   5.606   6.591   1.347 -0.3265  0.8445 -0.0464
  124MOL   C13647122   5.545   6.597   1.205 -0.0712 -0.1451  0.1227
  124MOL   C13747123   5.618   6.490   1.122  0.1755 -0.1427 -0.1411
  124MOL   C13847124   5.761   6.499   1.172 -0.2175 -0.3175 -0.0337
  124MOL   C13947125   5.855   6.381   1.140  0.1825 -0.1693 -0.3359
  124MOL   C14047126   5.900   6.353   0.998 -0.3171  0.2664 -0.7742
  124MOL   C14147127   5.749   6.527   1.325 -0.1333 -0.0967 -0.0558
  124MOL   H14247128   5.540   6.512   1.384  1.9010 -0.8914  0.3747
  124MOL   H14347129   5.436   6.592   1.196 -0.1965  0.4141  1.2567
  124MOL   H14447130   5.558   6.695   1.160 -1.1885  0.4193  0.9963
  124MOL   H14547131   5.571   6.395   1.149 -0.0164 -0.5361 -1.8052
  124MOL   H14647132   5.606   6.507   1.015  0.8758  2.7351  0.1892
  124MOL   H14747133   5.805   6.588   1.127 -0.6494  1.5356  3.0246
  124MOL   H14847134   5.801   6.293   1.174 -1.2067 -0.6445 -3.5805
  124MOL   H14947135   5.950   6.393   1.193  0.6067 -0.4295 -1.0467
  124MOL   H15047136   5.812   6.356   0.934 -1.3250  0.2786  0.5840
  124MOL   H15147137   5.960   6.443   0.984  1.0437 -0.4865  0.1354
  124MOL   H15247138   5.836   6.585   1.355 -0.2919 -0.3334  0.8635
  124MOL   H15347139   5.765   6.432   1.376  0.0253  0.6656  1.3355
  124MOL   C15447140   5.981   6.224   0.976  0.3066  0.0493  0.5079
  124MOL   C15547141   6.126   6.240   1.020 -0.5815  0.3304 -0.3405
  124MOL   C15647142   6.193   6.124   0.941 -0.9723 -0.0622 -0.1549
  124MOL   C15747143   6.100   6.088   0.823 -0.4110  0.1406 -0.6624
  124MOL   C15847144   6.182   6.090   0.692  0.1125  0.7067  0.3602
  124MOL   C15947145   6.103   6.047   0.569 -0.5134  0.1291 -0.3002
  124MOL   C16047146   5.985   6.188   0.829  0.0150  0.4955 -0.0669
  124MOL   H16147147   5.930   6.142   1.026 -0.4018 -0.1306 -0.4876
  124MOL   H16247148   6.169   6.332   0.979  0.1119 -0.0358 -0.4526
  124MOL   H16347149   6.139   6.241   1.128  0.2457 -0.9462 -0.4063
  124MOL   H16447150   6.294   6.148   0.911 -0.2829  0.4493  2.4801
  124MOL   H16547151   6.204   6.033   1.001  1.3157  0.3737  0.1179
  124MOL   H16647152   6.060   5.990   0.850 -0.2295  0.1145 -0.4878
  124MOL   H16747153   6.277   6.040   0.713  0.5790  2.3970  2.4662
  124MOL   H16847154   6.217   6.193   0.688  0.3741  0.5761 -0.9204
  124MOL   H16947155   6.051   5.952   0.582  1.8150 -0.9504  1.3477
  124MOL   H17047156   6.024   6.122   0.558 -0.3799  0.3864  0.4835
  124MOL   H17147157   5.890   6.146   0.796  1.3923 -2.6060 -0.2496
  124MOL   H17247158   5.997   6.281   0.774 -2.0237  2.6716  2.9898
  124MOL   C17347159   6.201   6.060   0.451 -0.6137  0.4950  0.0460
  124MOL   C17447160   6.328   5.977   0.464 -0.0354  0.4283 -0.1179
  124MOL   C17547161   6.357   5.917   0.332 -0.1156  0.7403 -0.8519
  124MOL   C17647162   6.279   6.003   0.234 -0.7726  0.0308 -0.4568
  124MOL   C17747163   6.258   5.931   0.097 -0.0327  0.0565 -0.2096
  124MOL   C17847164   6.389   5.919   0.011 -0.1841  0.4734  0.3506
  124MOL   C17947165   6.146   6.034   0.312  0.6478  0.0330 -0.6274
  124MOL   H18047166   6.236   6.163   0.454 -0.2938  0.3705  0.5198
  124MOL   H18147167   6.313   5.903   0.543  0.1032 -1.1820 -1.5537
  124MOL   H18247168   6.414   6.037   0.491 -0.6998  1.6917 -0.7736
  124MOL   H18347169   6.464   5.911   0.312 -0.3534 -3.6944 -1.2046
  124MOL   H18447170   6.325   5.813   0.327 -1.3876  1.0821 -0.1262
  124MOL   H18547171   6.329   6.099   0.225 -1.3022  0.3136 -0.3828
  124MOL   H18647172   6.183   5.993   0.047  1.4435  1.7404 -0.3828
  124MOL   H18747173   6.209   5.836   0.116 -1.8030  0.9755 -0.0545
  124MOL   H18847174   6.474   5.928   0.079  1.3246 -0.4902 -1.3847
  124MOL   H18947175   6.403   6.005   7.593  0.1650 -0.8683 -1.3744
  124MOL   H19047176   6.077   5.950   0.315 -1.8250  2.0857  1.0068
  124MOL   H19147177   6.088   6.119   0.277 -0.9603 -1.4453 -1.5891
  124MOL   C19247178   6.414   5.787   7.586  0.3801 -0.1797  0.1382
  124MOL   C19347179   6.407   5.666   0.026  0.0525  0.3491 -0.0628
  124MOL   C19447180   6.556   5.620   0.045  0.5123  0.4870 -0.2899
  124MOL   C19547181   6.647   5.717   7.609 -0.4985  0.6170  0.2214
  124MOL   C19647182   6.779   5.663   7.564  0.2977 -0.2563  0.0630
  124MOL   C19747183   6.874   5.624   0.034 -0.4703  0.4532  0.1521
  124MOL   C19847184   6.556   5.779   7.516 -0.0558 -0.2375 -0.3452
  124MOL   H19947185   6.347   5.780   7.500  0.7048 -1.9205  0.0241
  124MOL   H20047186   6.367   5.679   0.127  0.8933 -1.8857  0.5707
  124MOL   H20147187   6.343   5.598   7.618  1.3661 -3.5226  2.9652
  124MOL   H20247188   6.566   5.519   0.006  2.0463  0.1053  1.0676
  124MOL   H20347189   6.591   5.622   0.148 -0.3375  1.0670 -0.0086
  124MOL   H20447190   6.681   5.798   0.027 -1.7119 -1.1386  3.1139
  124MOL   H20547191   6.830   5.733   7.498 -1.9064  0.1375 -1.2609
  124MOL   H20647192   6.754   5.575   7.504 -0.2840  0.6690 -1.0733
  124MOL   H20747193   6.827   5.547   0.096 -0.7232 -0.2805 -0.9326
  124MOL   H20847194   6.882   5.705   0.106  0.0036  0.9756 -0.4854
  124MOL   H20947195   6.537   5.723   7.425  0.8399 -0.4489 -0.3983
  124MOL   H21047196   6.584   5.881   7.490 -0.1910 -0.0866  0.0811
  124MOL   C21147197   7.012   5.591   7.636  0.0452 -0.0829  0.2002
  124MOL   C21247198   7.096   5.536   0.103 -0.3771  0.3322 -0.3106
  124MOL   C21347199   7.242   5.543   0.049  1.1382 -0.0317  0.2171
  124MOL   C21447200   7.242   5.655   7.588 -0.2663 -0.7789 -0.6971
  124MOL   C21547201   7.327   5.782   7.629  0.2864 -0.0771  0.4298
  124MOL   C21647202   7.373   5.869   7.514  0.7342 -0.5416 -0.1407
  124MOL   C21747203   7.091   5.701   7.572  0.5581  0.5930 -0.2262
  124MOL   H21847204   7.003   5.513   7.560 -0.5175 -1.1192  1.3247
  124MOL   H21947205   7.095   5.605   0.188  0.9333 -1.1379  0.9420
  124MOL   H22047206   7.070   5.436   0.137  0.8578 -0.0287 -0.4025
  124MOL   H22147207   7.313   5.552   0.132  0.8064 -2.2866  0.7964
  124MOL   H22247208   7.261   5.445   0.004  0.2312  0.0777 -0.4031
  124MOL   H22347209   7.283   5.604   7.501  1.6610 -0.9898  0.3000
  124MOL   H22447210   7.417   5.738   0.024  0.9931  2.0652  1.2120
  124MOL   H22547211   7.270   5.848   0.047 -1.7204  1.7610 -3.0177
  124MOL   H22647212   7.398   5.810   7.426  0.9929  0.1791 -0.5533
  124MOL   H22747213   7.278   5.916   7.488  0.8420 -1.1807 -1.7084
  124MOL   H22847214   7.065   5.717   7.467 -1.5063 -0.2407  0.1188
  124MOL   H22947215   7.079   5.797   7.623 -0.1022  1.7625 -2.4596
  124MOL   C23047216   7.486   5.963   7.560  0.4270 -0.7273 -0.0017
  124MOL   C23147217   7.520   6.068   7.454  0.2344  0.4179 -0.5832
  124MOL   C23247218   7.605   6.020   7.342  0.5072  0.3169  0.3102
  124MOL   C23347219   0.052   5.931   7.422  1.2558 -0.4991 -0.0990
  124MOL   C23447220   0.192   5.996   7.433 -0.5430  0.4075 -0.1428
  124MOL   C23547221   0.302   5.903   7.492 -0.7135 -0.0170  0.1238
  124MOL   C23647222   7.629   5.903   7.554 -0.4011  0.0861  0.0484
  124MOL   H23747223   7.455   6.015   0.004 -2.0593 -0.3058 -1.0707
  124MOL   H23847224   7.420   6.102   7.425 -1.1194 -2.1076  0.8994
  124MOL   H23947225   7.559   6.151   7.513 -2.1455  0.8216  0.5172
  124MOL   H24047226   7.645   6.108   7.291  2.1879 -0.3651  0.4266
  124MOL   H24147227   7.549   5.956   7.274 -0.6320  1.0153  0.5759
  124MOL   H24247228   0.074   5.838   7.369 -0.2188 -0.6726 -0.4459
  124MOL   H24347229   0.176   6.089   7.487 -0.6565  0.7430 -0.7509
  124MOL   H24447230   0.229   6.027   7.335 -1.0715 -0.5314 -0.6458
  124MOL   H24547231   0.282   5.904   7.599 -2.5551 -1.0855 -0.1832
  124MOL   H24647232   0.288   5.800   7.458 -0.2409 -0.1404  0.3038
  124MOL   H24747233   0.035   5.949   7.637  2.0599 -2.4857 -0.0309
  124MOL   H24847234   7.635   5.801   7.592  2.1142  0.3691  0.5126
  124MOL   C24947235   0.450   5.943   7.461  0.2905 -0.3099  0.3879
  124MOL   C25047236   0.555   5.848   7.524  0.3421 -0.0226 -0.3298
  124MOL   C25147237   0.677   5.856   7.427  0.2785  0.3364  0.0556
  124MOL   C25247238   0.639   5.938   7.304 -0.4426 -0.1847 -0.1725
  124MOL   C25347239   0.721   6.070   7.292 -0.2989 -0.1614  0.1311
  124MOL   C25447240   0.865   6.044   7.252 -0.2188 -0.2523  0.1895
  124MOL   C25547241   0.488   5.960   7.313  0.3792  0.5212 -0.0209
  124MOL   H25647242   0.460   6.041   7.508 -0.3168 -0.5460  1.0161
  124MOL   H25747243   0.577   5.883   7.625 -0.7954 -1.7995  0.5718
  124MOL   H25847244   0.525   5.743   7.531  1.5639 -0.3262  0.8154
  124MOL   H25947245   0.696   5.751   7.402 -2.5316 -0.6681  1.9467
  124MOL   H26047246   0.769   5.892   7.471  1.3054  0.5982 -2.1978
  124MOL   H26147247   0.660   5.881   7.213  0.3308 -0.3644  0.1149
  124MOL   H26247248   0.710   6.131   7.382  1.4818 -1.9530  1.6037
  124MOL   H26347249   0.687   6.132   7.208  1.3914 -0.0889 -0.5107
  124MOL   H26447250   0.862   5.999   7.153  4.6673  0.8499 -0.6278
  124MOL   H26547251   0.928   5.980   7.315  0.4965  1.4461  1.2596
  124MOL   H26647252   0.435   5.885   7.254 -1.6900  0.9510  1.2597
  124MOL   H26747253   0.461   6.059   7.276 -0.9162  1.3818  3.1456
  124MOL   C26847254   0.941   6.179   7.249 -0.0158  0.4223  0.2522
  124MOL   C26947255   1.088   6.161   7.204  0.5592 -0.3691 -0.2517
  124MOL   C27047256   1.184   6.254   7.293  1.2279 -0.0879 -0.3323
  124MOL   C27147257   1.079   6.334   7.367  0.1108 -0.3589 -0.2628
  124MOL   C27247258   1.136   6.395   7.502 -0.2669 -0.4334 -0.1339
  124MOL   C27347259   1.039   6.490   7.578 -0.2993  0.6055  0.1191
  124MOL   C27447260   0.962   6.245   7.390 -0.3266 -0.1042  0.0339
  124MOL   H27547261   0.897   6.258   7.189  0.7213 -0.6413 -1.7274
  124MOL   H27647262   1.109   6.056   7.222 -0.8644 -0.7092 -0.5360
  124MOL   H27747263   1.092   6.169   7.095 -1.6961  2.0516 -0.1923
  124MOL   H27847264   1.255   6.192   7.346 -0.4148 -0.3365  1.6227
  124MOL   H27947265   1.244   6.315   7.225 -0.3380 -0.3720 -2.0359
  124MOL   H28047266   1.048   6.419   7.306  0.2345 -0.4331 -0.4313
  124MOL   H28147267   1.226   6.449   7.472 -0.1670 -0.2463  0.5061
  124MOL   H28247268   1.168   6.309   7.560 -1.7272 -0.2821  0.9203
  124MOL   H28347269   1.023   6.583   7.525 -0.3963 -0.9412 -2.6404
  124MOL   H28447270   0.938   6.449   7.578 -0.0537 -0.0079 -0.1403
  124MOL   H28547271   0.986   6.178   7.472  0.8452 -0.7788 -0.8496
  124MOL   H28647272   0.876   6.306   7.418  0.1927  0.0764  1.2749
  124MOL   C28747273   1.090   6.518   0.079 -0.3561 -0.0857 -0.5767
  124MOL   C28847274   1.005   6.625   0.159  0.1928  0.0187 -0.8258
  124MOL   C28947275   0.998   6.565   0.300  0.5471 -0.5944  0.2674
  124MOL   C29047276   1.111   6.464   0.309 -0.4271 -0.1634 -0.5092
  124MOL   C29147277   1.074   6.354   0.410 -0.5596 -0.4477 -0.6034
  124MOL   C29247278   1.061   6.400   0.559  0.0934 -0.0217  0.0592
  124MOL   C29347279   1.106   6.403   0.175 -0.2485  0.3981  0.9210
  124MOL   H29447280   1.192   6.556   0.066 -0.3088 -0.2874 -0.7984
  124MOL   H29547281   1.059   6.720   0.161  0.1708  0.0655 -2.1815
  124MOL   H29647282   0.907   6.632   0.113  0.0316  4.1508 -0.0250
  124MOL   H29747283   0.899   6.522   0.313  0.4795 -0.8065 -0.8749
  124MOL   H29847284   1.012   6.636   0.381  0.5197 -1.1987  0.8106
  124MOL   H29947285   1.196   6.529   0.331 -2.0198  3.3257 -4.1533
  124MOL   H30047286   1.141   6.268   0.402 -0.9637 -0.7973 -0.3176
  124MOL   H30147287   0.978   6.309   0.383 -1.9702  1.9577  0.2491
  124MOL   H30247288   1.021   6.317   0.616 -0.9921  1.1041  0.9878
  124MOL   H30347289   0.981   6.473   0.574 -1.0143 -1.0045 -0.9509
  124MOL   H30447290   1.018   6.342   0.158  1.2411 -1.3544 -0.7643
  124MOL   H30547291   1.197   6.348   0.149 -0.8745  0.6394 -1.9192
  124MOL   C30647292   1.186   6.453   0.626  0.1451 -0.2530  0.5134
  124MOL   C30747293   1.169   6.504   0.773 -0.3956 -0.4006  0.4067
  124MOL   C30847294   1.278   6.443   0.856 -0.9544  0.4591 -0.3623
  124MOL   C30947295   1.381   6.385   0.768  0.4853 -0.7116  0.2935
  124MOL   C31047296   1.461   6.265   0.825  0.1266 -0.0214 -0.8082
  124MOL   C31147297   1.536   6.297   0.959  0.1467  0.1601 -0.0377
  124MOL   C31247298   1.299   6.346   0.650 -0.0668  0.0455 -0.6904
  124MOL   H31347299   1.238   6.534   0.575  0.0446 -0.2531  0.4122
  124MOL   H31447300   1.177   6.612   0.780 -1.5053 -0.2785 -0.2075
  124MOL   H31547301   1.073   6.489   0.823 -0.5599  3.1865  1.2728
  124MOL   H31647302   1.321   6.506   0.933 -1.1385  3.0209 -2.3185
  124MOL   H31747303   1.231   6.357   0.905 -1.4403 -0.6228 -2.6615
  124MOL   H31847304   1.457   6.459   0.742 -2.0273  1.3869 -1.4427
  124MOL   H31947305   1.395   6.183   0.855  0.9207 -0.4637 -0.2366
  124MOL   H32047306   1.534   6.244   0.746  0.9483  0.7862 -0.2752
  124MOL   H32147307   1.459   6.328   1.030 -2.3102 -0.2566 -2.4626
  124MOL   H32247308   1.599   6.382   0.936 -0.6443  1.1277  1.2504
  124MOL   H32347309   1.260   6.246   0.668 -0.5438  0.1271 -1.2255
  124MOL   H32447310   1.361   6.335   0.561 -1.2453  1.4733 -1.7130
  124MOL   C32547311   1.609   6.177   1.013 -0.3715  0.8567 -0.3321
  124MOL   C32647312   1.701   6.097   0.921  0.7401  0.0912 -0.1335
  124MOL   C32747313   1.826   6.061   0.987 -0.0902 -0.0357  0.2896
  124MOL   C32847314   1.839   6.175   1.094 -0.2591  0.0377 -0.1672
  124MOL   C32947315   1.925   6.122   1.213 -0.0247  0.1531 -0.5499
  124MOL   C33047316   2.075   6.116   1.180 -0.0097  0.4320 -0.0678
  124MOL   C33147317   1.697   6.224   1.131  0.0558  0.4608 -0.3279
  124MOL   H33247318   1.545   6.100   1.058 -0.1491  2.2496  2.4986
  124MOL   H33347319   1.740   6.169   0.849 -1.0825  1.4644  0.2212
  124MOL   H33447320   1.666   6.004   0.876  0.6353 -0.0547  0.2443
  124MOL   H33547321   1.826   5.961   1.030 -1.1933 -0.3860 -0.5153
  124MOL   H33647322   1.900   6.049   0.908  0.7194  1.0916  0.8527
  124MOL   H33747323   1.886   6.264   1.051 -3.0366  1.4798 -0.3868
  124MOL   H33847324   1.907   6.180   1.304  2.3448 -0.2737  0.2328
  124MOL   H33947325   1.894   6.022   1.242 -2.5013  0.4615 -2.0627
  124MOL   H34047326   2.088   6.036   1.108 -1.7577 -0.6903  0.8366
  124MOL   H34147327   2.100   6.213   1.137  1.4516  0.3040  0.4875
  124MOL   H34247328   1.689   6.331   1.148  0.8172  0.5999 -0.8278
  124MOL   H34347329   1.657   6.160   1.209 -1.0279 -2.2829 -3.0114
  124MOL   C34447330   2.177   6.082   1.298  0.0054  0.6219 -0.2053
  124MOL   C34547331   2.322   6.072   1.265  0.0274 -0.1923  0.2019
  124MOL   C34647332   2.387   5.993   1.377 -0.0210  0.3103 -0.3543
  124MOL   C34747333   2.280   5.887   1.413  0.5837 -0.2496  0.3361
  124MOL   C34847334   2.294   5.828   1.555 -0.2248  0.7925 -0.5089
  124MOL   C34947335   2.405   5.719   1.570  0.8196 -0.5984 -0.3619
  124MOL   C35047336   2.146   5.960   1.383  0.2713 -0.9805 -0.6563
  124MOL   H35147337   2.173   6.168   1.365 -1.8486 -1.0847  1.9435
  124MOL   H35247338   2.376   6.166   1.254  0.8832 -0.8140 -1.1166
  124MOL   H35347339   2.333   6.021   1.169 -4.4476 -1.5090  0.3111
  124MOL   H35447340   2.483   5.955   1.342 -0.0931 -0.8297  0.6606
  124MOL   H35547341   2.402   6.038   1.475  0.5392  0.4852 -0.5193
  124MOL   H35647342   2.296   5.799   1.349  1.9644  0.8099 -0.8085
  124MOL   H35747343   2.321   5.903   1.629  1.6798 -0.7336  0.3902
  124MOL   H35847344   2.204   5.779   1.591  1.0609 -1.0540  0.2517
  124MOL   H35947345   2.497   5.752   1.524 -0.9741  1.4924 -2.5775
  124MOL   H36047346   2.374   5.631   1.513 -1.6711 -0.8300  1.2435
  124MOL   H36147347   2.075   5.901   1.326 -0.7841 -0.4571  0.1126
  124MOL   H36247348   2.089   5.998   1.467 -1.7000 -1.5683 -1.7014
  124MOL   C36347349   2.433   5.678   1.720 -0.5787 -0.1208 -0.6355
  124MOL   C36447350   2.556   5.576   1.743  0.0964 -0.2142 -0.0935
  124MOL   C36547351   2.502   5.450   1.796 -0.3983 -0.1814  0.4013
  124MOL   C36647352   2.376   5.489   1.873  0.2970 -0.2428  0.9188
  124MOL   C36747353   2.273   5.393   1.913  0.0140  0.2580  0.3628
  124MOL   C36847354   2.324   5.264   1.985 -0.2633  0.6002  0.5679
  124MOL   C36947355   2.318   5.604   1.784 -0.5048 -0.3123  0.5109
  124MOL   H37047356   2.460   5.768   1.775  0.0405  1.1563 -2.9565
  124MOL   H37147357   2.613   5.565   1.651  0.8904  1.6053  0.1507
  124MOL   H37247358   2.612   5.624   1.824 -1.4675 -1.0669  1.5286
  124MOL   H37347359   2.485   5.386   1.709  1.1370 -1.0591  0.7292
  124MOL   H37447360   2.575   5.404   1.862  0.0152  0.9881  0.7741
  124MOL   H37547361   2.415   5.527   1.968 -0.7628  1.6580  0.6159
  124MOL   H37647362   2.185   5.437   1.960 -1.5552 -2.7853  0.3752
  124MOL   H37747363   2.231   5.361   1.817 -3.3471  0.3896  1.6996
  124MOL   H37847364   2.414   5.228   1.934 -1.1134  0.8277 -1.1358
  124MOL   H37947365   2.252   5.183   1.993  0.4698 -0.3076 -1.6273
  124MOL   H38047366   2.251   5.560   1.710  0.4831  0.2762 -0.7463
  124MOL   H38147367   2.263   5.681   1.838 -0.1223 -0.0608  0.5382
  124MOL   H38247368   2.354   5.291   2.086  0.1578 -1.2256  0.9467
  125MOL     C147369   6.331   3.951   3.730  0.6308  1.5951  0.4087
  125MOL     C247370   6.336   3.796   3.721 -0.4262  0.2373  0.2425
  125MOL     C347371   6.482   3.774   3.693  0.0797  0.4367  0.6597
  125MOL     C447372   6.555   3.911   3.677 -0.4609  0.4530 -0.0221
  125MOL     C547373   6.670   3.930   3.579  0.9304  0.3690 -0.3090
  125MOL     C647374   6.774   3.828   3.567 -0.6887  0.0683 -0.0688
  125MOL     C747375   6.442   4.012   3.653 -0.3645 -0.3394  0.7550
  125MOL     H847376   6.243   3.990   3.679  0.5166 -1.7648 -2.0912
  125MOL     H947377   6.272   3.765   3.638 -0.4061  0.3116  0.1996
  125MOL    H1047378   6.300   3.741   3.808  0.5877  0.4141  0.7764
  125MOL    H1147379   6.528   3.715   3.772  0.2699  0.2549  0.4137
  125MOL    H1247380   6.492   3.713   3.603  0.4115 -1.2479  1.8063
  125MOL    H1347381   6.591   3.944   3.774  0.5548 -0.9494  0.0947
  125MOL    H1447382   6.634   3.942   3.477  3.0241  0.6960 -1.0362
  125MOL    H1547383   6.717   4.023   3.612  0.9649  1.5277 -3.4237
  125MOL    H1647384   6.819   3.804   3.664  2.0670  0.6647 -1.1462
  125MOL    H1747385   6.722   3.738   3.533 -1.8802 -0.2169  2.3949
  125MOL    H1847386   6.477   4.113   3.677 -0.0687 -0.8910  2.6452
  125MOL    H1947387   6.406   4.014   3.550  0.4647  0.9675  0.4777
  125MOL    H2047388   6.327   3.985   3.834 -0.4794  0.1689  0.8467
  125MOL    C2147389   6.882   3.867   3.460 -0.2575  0.5663 -0.0172
  125MOL    C2247390   6.959   3.998   3.490  0.2061  0.2292  0.3798
  125MOL    C2347391   7.102   3.974   3.436  0.3860  0.1024 -0.1979
  125MOL    C2447392   7.117   3.831   3.389  0.1025 -0.0291 -0.4445
  125MOL    C2547393   7.247   3.761   3.432 -0.6510  0.1864 -0.5237
  125MOL    C2647394   7.267   3.629   3.354 -0.0360  0.3103 -0.1320
  125MOL    C2747395   6.996   3.759   3.444 -0.0826 -0.6336 -0.8107
  125MOL    H2847396   6.830   3.882   3.366 -0.4133 -0.0330 -0.0271
  125MOL    H2947397   6.908   4.082   3.443  0.4632 -0.2394 -0.7711
  125MOL    H3047398   6.956   4.013   3.598  0.0017  1.2523  0.2411
  125MOL    H3147399   7.125   4.054   3.365 -2.0866  2.0275  1.0749
  125MOL    H3247400   7.161   3.990   3.526 -1.9350 -0.5891  1.4861
  125MOL    H3347401   7.113   3.823   3.280 -1.0045 -0.7414 -0.3569
  125MOL    H3447402   7.238   3.736   3.537 -0.2319  2.0616 -0.0411
  125MOL    H3547403   7.333   3.826   3.415 -1.0459  1.4942  2.2731
  125MOL    H3647404   7.259   3.631   3.246 -0.4867 -0.3604 -0.1144
  125MOL    H3747405   7.176   3.571   3.372 -0.5682  0.0430 -3.3572
  125MOL    H3847406   6.966   3.675   3.382  0.0158  0.3060 -2.1541
  125MOL    H3947407   7.019   3.733   3.547 -1.3188  2.9249  0.4372
  125MOL    C4047408   7.404   3.557   3.396  0.1301  0.3112 -0.5112
  125MOL    C4147409   7.399   3.505   3.544  0.0132 -0.8801 -0.4070
  125MOL    C4247410   7.517   3.415   3.543  0.1946 -0.0916  0.1716
  125MOL    C4347411   7.522   3.347   3.410  0.1189  0.0571 -0.0733
  125MOL    C4447412   0.021   3.321   3.369  0.0905 -0.2709 -0.0164
  125MOL    C4547413   0.033   3.215   3.261  0.3833 -0.2396 -0.2253
  125MOL    C4647414   7.449   3.442   3.315  0.2962 -0.1911 -0.4808
  125MOL    H4747415   7.481   3.634   3.394 -0.1524  0.6548  1.2568
  125MOL    H4847416   7.305   3.452   3.559 -0.3628 -0.2547 -0.5773
  125MOL    H4947417   7.403   3.586   3.617  0.9917 -1.0777 -0.2366
  125MOL    H5047418   7.603   3.479   3.562 -0.4497  1.1425 -1.0398
  125MOL    H5147419   7.506   3.342   3.623 -1.9084  1.1716  1.0710
  125MOL    H5247420   7.461   3.257   3.418  1.2510 -0.6074  1.3375
  125MOL    H5347421   0.085   3.408   3.352  2.3081 -2.0098 -0.8692
  125MOL    H5447422   0.067   3.281   3.460  0.3715 -1.4933 -0.6843
  125MOL    H5547423   7.606   3.239   3.184  0.1070 -0.8439 -0.1527
  125MOL    H5647424   7.639   3.118   3.288 -0.1567  0.3286  1.0437
  125MOL    H5747425   7.506   3.481   3.231  0.7234  0.0126 -0.0993
  125MOL    H5847426   7.362   3.392   3.271  0.3525  1.1253 -2.1447
  125MOL    C5947427   0.169   3.211   3.192  0.4154 -0.0357 -0.5064
  125MOL    C6047428   0.284   3.200   3.298 -0.0295  0.4736 -0.1008
  125MOL    C6147429   0.384   3.103   3.244  0.0184  0.7189  0.4689
  125MOL    C6247430   0.308   3.011   3.152 -0.4860 -0.4661  0.1551
  125MOL    C6347431   0.399   2.937   3.050  0.0030 -0.0180 -0.0581
  125MOL    C6447432   0.496   2.835   3.117  0.1329  0.3196  0.6073
  125MOL    C6547433   0.193   3.096   3.093 -0.2899  0.2803 -0.1670
  125MOL    H6647434   0.196   3.305   3.143  1.2463 -1.2291 -2.3849
  125MOL    H6747435   0.330   3.291   3.336  2.3602 -1.2556  1.2699
  125MOL    H6847436   0.246   3.157   3.391 -1.0702 -1.8045 -1.5504
  125MOL    H6947437   0.464   3.152   3.188  1.9539 -1.8229  0.9109
  125MOL    H7047438   0.449   3.052   3.315  0.5855 -1.2490 -1.4088
  125MOL    H7147439   0.262   2.945   3.225  0.2653 -0.4934  0.6067
  125MOL    H7247440   0.462   3.010   2.999  0.1584  0.5096  0.8759
  125MOL    H7347441   0.329   2.889   2.982 -0.4750  1.5343 -0.6979
  125MOL    H7447442   0.583   2.890   3.152  0.9438  0.0542 -0.9340
  125MOL    H7547443   0.444   2.795   3.204  1.2964  1.3475  1.7953
  125MOL    H7647444   0.227   3.130   2.995  1.9035 -0.7841  0.1941
  125MOL    H7747445   0.100   3.043   3.074  0.6040 -1.9139  1.3977
  125MOL    C7847446   0.557   2.715   3.038  0.1261 -0.0261 -0.0357
  125MOL    C7947447   0.627   2.773   2.907  0.5405  0.3209 -0.4776
  125MOL    C8047448   0.753   2.690   2.882  0.4916 -0.9934 -0.7536
  125MOL    C8147449   0.767   2.592   2.992 -0.1269  0.5193  0.6848
  125MOL    C8247450   0.909   2.584   3.037 -0.2411  0.1663 -0.6676
  125MOL    C8347451   0.928   2.456   3.126  0.0168 -0.3238  0.8487
  125MOL    C8447452   0.677   2.655   3.106  0.0834  0.7428  0.0316
  125MOL    H8547453   0.484   2.639   3.010  0.4608 -0.3718  0.0357
  125MOL    H8647454   0.558   2.764   2.823  0.5609  1.7131 -0.6586
  125MOL    H8747455   0.655   2.879   2.907 -1.3276  0.8339 -0.2226
  125MOL    H8847456   0.754   2.642   2.784 -1.9574  0.2644 -1.4532
  125MOL    H8947457   0.831   2.766   2.887 -0.1434 -0.4767  1.8180
  125MOL    H9047458   0.730   2.494   2.961  2.9852 -0.4351 -0.1991
  125MOL    H9147459   0.938   2.678   3.083 -1.7094  1.0307 -1.4594
  125MOL    H9247460   0.973   2.570   2.950  1.3645  0.1751  0.4899
  125MOL    H9347461   0.877   2.368   3.086  0.7877 -1.3353  2.0645
  125MOL    H9447462   0.877   2.477   3.220 -0.5336  2.9128 -0.0990
  125MOL    H9547463   0.734   2.736   3.151  2.0983 -1.3310  1.3312
  125MOL    H9647464   0.643   2.599   3.193 -2.4039  2.0627 -0.0337
  125MOL    C9747465   1.067   2.428   3.159 -0.4958  0.2354  0.5825
  125MOL    C9847466   1.093   2.300   3.246 -0.2226  0.0510 -0.3163
  125MOL    C9947467   1.123   2.353   3.385  0.5192 -0.3170  0.4256
  125MOL   C10047468   1.210   2.475   3.355  0.2358 -0.0184  0.4307
  125MOL   C10147469   1.229   2.571   3.473 -0.0329 -0.2667 -0.5901
  125MOL   C10247470   1.319   2.688   3.430  0.6387 -0.6216 -0.2356
  125MOL   C10347471   1.132   2.539   3.239 -0.0266  0.0003 -0.3194
  125MOL   H10447472   1.130   2.422   3.070  0.8432  2.6071  1.3139
  125MOL   H10547473   1.005   2.236   3.239 -0.0704 -0.0453 -1.4445
  125MOL   H10647474   1.181   2.244   3.215 -0.6398 -1.9009  1.8578
  125MOL   H10747475   1.031   2.374   3.439 -0.6955 -0.6003 -1.5039
  125MOL   H10847476   1.180   2.276   3.438  2.8775 -1.0935 -3.1072
  125MOL   H10947477   1.302   2.433   3.313 -0.3878  0.9651 -2.0202
  125MOL   H11047478   1.132   2.613   3.499 -1.0302 -1.8070 -1.7631
  125MOL   H11147479   1.260   2.520   3.564  1.7755  0.6974 -0.6412
  125MOL   H11247480   1.403   2.641   3.379  1.0442  0.3734 -0.4999
  125MOL   H11347481   1.261   2.754   3.366 -0.8083 -1.0469  0.6094
  125MOL   H11447482   1.056   2.597   3.290 -0.7600 -1.2208 -0.0062
  125MOL   H11547483   1.197   2.599   3.175 -0.7615  0.1169 -0.9527
  125MOL   C11647484   1.365   2.784   3.549 -0.1277  0.1145 -0.0342
  125MOL   C11747485   1.441   2.913   3.514  0.1024 -0.2845 -0.7949
  125MOL   C11847486   1.426   3.000   3.644 -0.1315  0.2595  0.2363
  125MOL   C11947487   1.324   2.931   3.730 -0.2286  0.5050 -0.0557
  125MOL   C12047488   1.230   3.017   3.810 -0.8769  0.5352 -0.4689
  125MOL   C12147489   1.099   2.960   3.863  0.0797 -0.2563 -0.4033
  125MOL   C12247490   1.249   2.826   3.639 -0.1329  0.1800 -0.2864
  125MOL   H12347491   1.418   2.722   3.621  1.5935  1.3483 -0.2198
  125MOL   H12447492   1.401   2.962   3.425 -1.4782 -2.4043 -1.2723
  125MOL   H12547493   1.544   2.888   3.489  0.1038 -0.6918 -0.3944
  125MOL   H12647494   1.393   3.099   3.612  0.3411  0.7447  1.2404
  125MOL   H12747495   1.523   3.002   3.694 -0.4445 -1.0184  0.8999
  125MOL   H12847496   1.385   2.886   3.808 -0.9758  0.0720  0.2751
  125MOL   H12947497   1.206   3.104   3.750 -1.3890  1.4974  1.0950
  125MOL   H13047498   1.282   3.052   3.900 -0.7885 -1.9022  0.4604
  125MOL   H13147499   1.122   2.878   3.931  0.3663  0.5111  0.4432
  125MOL   H13247500   1.044   2.902   3.789 -1.1960  0.8347 -0.3390
  125MOL   H13347501   1.192   2.746   3.687 -1.2540 -0.0896 -2.0131
  125MOL   H13447502   1.177   2.875   3.573 -0.8982  0.2149  0.5685
  125MOL   C13547503   1.018   3.064   3.942 -0.7152  0.0739  0.0996
  125MOL   C13647504   0.950   3.167   3.844  0.1221  0.4123 -0.0355
  125MOL   C13747505   0.796   3.130   3.855  0.5404 -0.0555  0.0387
  125MOL   C13847506   0.792   2.994   3.923  0.1538 -0.4145  0.6710
  125MOL   C13947507   0.655   2.967   3.988  0.2143 -0.0120 -0.2315
  125MOL   C14047508   0.649   2.831   4.063  0.3878  0.2721  0.0995
  125MOL   C14147509   0.912   3.003   4.019  0.5604 -0.2542  0.1075
  125MOL   H14247510   1.082   3.120   4.009 -0.1966 -0.3551 -0.0329
  125MOL   H14347511   0.980   3.269   3.872  0.5804 -0.1149  1.4392
  125MOL   H14447512   0.982   3.164   3.740 -1.0089  0.8764 -0.4054
  125MOL   H14547513   0.738   3.202   3.913 -3.4770  0.2843 -4.1303
  125MOL   H14647514   0.756   3.126   3.754 -0.2369 -0.5140  0.3600
  125MOL   H14747515   0.801   2.928   3.836 -2.8915 -0.1394  0.0939
  125MOL   H14847516   0.574   2.971   3.916 -0.3639 -0.3069  0.3960
  125MOL   H14947517   0.646   3.053   4.055 -2.5087 -1.1628  0.9344
  125MOL   H15047518   0.698   2.745   4.016  2.9619  1.4950  0.4278
  125MOL   H15147519   0.702   2.859   4.154 -1.3307 -1.1850  1.5631
  125MOL   H15247520   0.942   2.901   4.044 -0.3600  0.2442  3.4084
  125MOL   H15347521   0.886   3.060   4.107  0.9378  3.3086 -1.9897
  125MOL   C15447522   0.503   2.805   4.104 -0.1195 -0.3461 -0.5095
  125MOL   C15547523   0.486   2.683   4.194  0.0284  0.4203 -0.3988
  125MOL   C15647524   0.379   2.589   4.135 -0.7492  0.4319 -0.3040
  125MOL   C15747525   0.296   2.685   4.045 -0.3392 -0.2582  0.0399
  125MOL   C15847526   0.224   2.608   3.927  0.0567  0.2428 -0.2215
  125MOL   C15947527   0.113   2.516   3.992  0.1467  0.0782 -0.1590
  125MOL   C16047528   0.402   2.787   3.987 -0.0864 -0.4989 -0.5696
  125MOL   H16147529   0.477   2.893   4.162  2.8432  0.4402 -0.3180
  125MOL   H16247530   0.577   2.631   4.226  0.6474 -0.1400 -2.9304
  125MOL   H16347531   0.440   2.719   4.285  0.5546 -1.5855  0.7091
  125MOL   H16447532   0.431   2.516   4.073  1.0248  0.6859  0.8700
  125MOL   H16547533   0.321   2.547   4.217 -0.5344  1.9575  0.6471
  125MOL   H16647534   0.215   2.735   4.098 -1.3864  1.4758 -3.0048
  125MOL   H16747535   0.296   2.544   3.876  1.9243  1.7103  0.4964
  125MOL   H16847536   0.183   2.675   3.851  2.5605 -0.6153 -2.4163
  125MOL   H16947537   0.162   2.454   4.068 -0.1748  0.4781  0.3805
  125MOL   H17047538   0.059   2.575   4.066 -1.9845 -1.3288 -0.5554
  125MOL   H17147539   0.357   2.881   3.956  1.2902  0.9456  1.6180
  125MOL   H17247540   0.463   2.750   3.905  1.1207  1.4151 -0.5487
  125MOL   C17347541   0.018   2.435   3.894  0.2605  0.1618  0.9127
  125MOL   C17447542   0.079   2.373   3.767  0.3364  0.0829 -0.1477
  125MOL   C17547543   7.639   2.255   3.730  0.6560  0.0244  0.0594
  125MOL   C17647544   7.547   2.228   3.854  0.3024 -0.0115  0.2223
  125MOL   C17747545   7.539   2.084   3.910  0.1982 -0.2759 -0.0042
  125MOL   C17847546   7.442   2.063   4.027 -0.5027 -0.9239 -0.0047
  125MOL   C17947547   7.608   2.312   3.962  0.2311  0.2297  0.0449
  125MOL   H18047548   7.589   2.509   3.867  0.4520 -0.1812 -0.6493
  125MOL   H18147549   0.175   2.328   3.790  0.7909  1.6124  1.0336
  125MOL   H18247550   0.083   2.451   3.691 -2.3921  1.0811  0.6631
  125MOL   H18347551   7.571   2.272   3.646  0.6850 -0.7491 -0.1172
  125MOL   H18447552   0.050   2.166   3.707  1.5977  0.4978  0.6241
  125MOL   H18547553   7.446   2.268   3.848 -0.3191 -1.5528  0.3066
  125MOL   H18647554   7.639   2.055   3.943  1.6588  2.3363 -2.0357
  125MOL   H18747555   7.525   2.013   3.829 -0.3795 -0.0097 -0.1427
  125MOL   H18847556   7.341   2.058   3.986 -0.2290  0.7048 -0.9270
  125MOL   H18947557   7.448   2.144   4.098 -0.6436 -1.7016  0.9054
  125MOL   H19047558   0.037   2.256   4.016  0.0953 -0.9720 -0.9694
  125MOL   H19147559   7.539   2.351   4.036  0.3813  1.0245 -0.2300
  125MOL   C19247560   7.473   1.936   4.115  0.1202 -0.2693  0.1228
  125MOL   C19347561   7.361   1.904   4.209  0.4120  0.2503 -0.6125
  125MOL   C19447562   7.426   1.807   4.305 -0.4899 -0.5003 -0.6488
  125MOL   C19547563   7.579   1.829   4.309  0.5775 -0.1167  0.1039
  125MOL   C19647564   0.005   1.693   4.274  0.7600 -0.5510  0.3680
  125MOL   C19747565   0.156   1.703   4.267 -0.4462  0.5968 -0.6251
  125MOL   C19847566   7.589   1.949   4.216 -0.3261 -0.9013  0.9918
  125MOL   H19947567   7.484   1.848   4.051 -2.0730 -0.2381 -0.3446
  125MOL   H20047568   7.318   1.985   4.267  0.7694 -0.3796  0.5495
  125MOL   H20147569   7.279   1.846   4.167  0.3106 -0.6623  0.8396
  125MOL   H20247570   7.409   1.709   4.260  0.3310 -1.7416  1.6917
  125MOL   H20347571   7.386   1.811   4.406  1.7951  2.4030  0.1944
  125MOL   H20447572   7.606   1.861   4.409 -1.2085  1.4952  0.1110
  125MOL   H20547573   7.626   1.653   4.176  0.2956 -4.5970  2.0463
  125MOL   H20647574   7.619   1.612   4.339 -0.4038  0.9863  1.7188
  125MOL   H20747575   0.173   1.756   4.173  1.7684  2.0163  0.5228
  125MOL   H20847576   0.204   1.605   4.263 -0.8654  0.4090 -1.1290
  125MOL   H20947577   0.030   1.977   4.159 -0.7365  2.1529  1.7861
  125MOL   H21047578   7.564   2.039   4.273 -1.5393 -0.9329  0.5157
  125MOL   C21147579   0.230   1.788   4.372 -0.2998  0.1041 -0.8973
  125MOL   C21247580   0.382   1.802   4.362  0.3388  0.3276  0.9260
  125MOL   C21347581   0.437   1.801   4.498 -0.3170 -0.0637  0.0570
  125MOL   C21447582   0.317   1.811   4.592 -0.1344 -0.0722 -0.0783
  125MOL   C21547583   0.331   1.751   4.732 -0.0260  0.3316  0.4007
  125MOL   C21647584   0.226   1.796   4.836 -0.0366 -0.9285  0.1689
  125MOL   C21747585   0.202   1.747   4.513 -0.1678 -0.1433 -1.1377
  125MOL   H21847586   0.183   1.886   4.357 -2.7799 -0.8650  0.1952
  125MOL   H21947587   0.420   1.731   4.288 -0.3497  0.8260  0.0888
  125MOL   H22047588   0.406   1.899   4.319 -1.1902  0.9866  1.5078
  125MOL   H22147589   0.494   1.710   4.522 -0.7875 -0.5548 -0.6688
  125MOL   H22247590   0.506   1.881   4.522 -0.7082  0.3482 -0.1857
  125MOL   H22347591   0.281   1.913   4.605 -1.0980 -0.4652  0.3604
  125MOL   H22447592   0.432   1.777   4.766 -0.2041  1.4340  0.0754
  125MOL   H22547593   0.322   1.642   4.723 -1.9793  0.5470 -0.3623
  125MOL   H22647594   0.221   1.905   4.835 -1.4588 -0.9902 -0.1281
  125MOL   H22747595   0.128   1.763   4.802 -0.1922 -1.0969  0.7717
  125MOL   H22847596   0.101   1.757   4.553  1.0194 -1.2701  2.2812
  125MOL   H22947597   0.211   1.639   4.502  2.6487 -0.0470 -0.2795
  125MOL   C23047598   0.263   1.754   4.981 -0.8265  0.2190  0.1422
  125MOL   C23147599   0.142   1.749   5.077 -0.0651  0.7974 -0.4521
  125MOL   C23247600   0.141   1.888   5.137  0.4048 -0.7913  0.0303
  125MOL   C23347601   0.277   1.958   5.109 -0.1997 -0.4445 -0.2917
  125MOL   C23447602   0.333   2.030   5.229  0.2022  0.1137 -0.5401
  125MOL   C23547603   0.475   2.090   5.214 -0.2204  0.2283  0.3411
  125MOL   C23647604   0.365   1.844   5.057  0.0366 -0.2374  0.4450
  125MOL   H23747605   0.303   1.653   4.976  0.0091  0.5968 -1.1219
  125MOL   H23847606   0.048   1.725   5.026 -0.9015  1.2803  0.8469
  125MOL   H23947607   0.155   1.672   5.153  0.5980  1.3405 -0.0177
  125MOL   H24047608   0.108   1.890   5.240 -0.9984 -0.6406 -0.4166
  125MOL   H24147609   0.070   1.945   5.077  0.0043  0.6328  1.8294
  125MOL   H24247610   0.265   2.043   5.043  0.5400 -0.0939  0.0191
  125MOL   H24347611   0.336   1.967   5.318  0.9746  2.8860  1.4705
  125MOL   H24447612   0.258   2.106   5.251  2.2435  2.2673 -0.7933
  125MOL   H24547613   0.507   2.116   5.315  2.7535 -0.6826 -0.2998
  125MOL   H24647614   0.553   2.015   5.198 -0.5044 -0.5070  2.2663
  125MOL   H24747615   0.409   1.785   5.136 -1.6784 -0.7134  1.0704
  125MOL   H24847616   0.439   1.886   4.988  0.0845  1.6301  1.6162
  125MOL   C24947617   0.477   2.213   5.122 -0.3647  0.3789 -0.6329
  125MOL   C25047618   0.616   2.288   5.131 -0.0539  0.1396 -0.0436
  125MOL   C25147619   0.633   2.361   4.994  0.2204  0.0570 -0.2128
  125MOL   C25247620   0.585   2.259   4.894 -0.6335 -0.2366 -0.1126
  125MOL   C25347621   0.549   2.322   4.760  0.1617  0.2393 -0.3202
  125MOL   C25447622   0.527   2.218   4.648  0.2463 -0.9454 -0.2989
  125MOL   C25547623   0.468   2.187   4.965  0.3852  0.1374  1.2403
  125MOL   H25647624   0.400   2.287   5.144  1.7926  1.9806  1.8259
  125MOL   H25747625   0.613   2.350   5.220 -0.9534  0.8961 -0.6010
  125MOL   H25847626   0.695   2.212   5.131 -0.6344 -0.4803  0.6280
  125MOL   H25947627   0.735   2.397   4.979  0.2645  1.2698  2.7490
  125MOL   H26047628   0.573   2.450   5.008  0.8281  0.4853 -0.2887
  125MOL   H26147629   0.671   2.193   4.881  1.3775  2.5698 -1.4351
  125MOL   H26247630   0.632   2.388   4.733  0.9705 -0.0328  1.4277
  125MOL   H26347631   0.476   2.401   4.774 -0.2830  0.1810 -2.1535
  125MOL   H26447632   0.467   2.134   4.682 -1.4278 -0.2796 -1.5919
  125MOL   H26547633   0.628   2.176   4.637  0.8599  0.4977 -0.2977
  125MOL   H26647634   0.468   2.082   4.936 -1.7041  1.1510 -2.7104
  125MOL   H26747635   0.372   2.232   4.941  1.1934  1.0821 -0.2842
  125MOL   C26847636   0.477   2.284   4.524 -0.1937  0.2165 -0.3436
  125MOL   C26947637   0.339   2.345   4.553  0.2380 -0.3177  0.3760
  125MOL   C27047638   0.248   2.300   4.437 -0.4288  0.0593 -0.0478
  125MOL   C27147639   0.347   2.259   4.323  0.4462 -0.3558 -0.3224
  125MOL   C27247640   0.278   2.171   4.219 -0.1450 -0.5389  0.3034
  125MOL   C27347641   0.375   2.141   4.094 -0.6153 -0.6860 -0.4524
  125MOL   C27447642   0.455   2.188   4.405 -0.0781  0.6129  0.2745
  125MOL   H27547643   0.539   2.366   4.489  1.4846 -1.3641 -1.0979
  125MOL   H27647644   0.296   2.322   4.651 -1.0829  1.3487  0.2132
  125MOL   H27747645   0.341   2.454   4.554 -1.4011 -0.2854  2.8623
  125MOL   H27847646   0.209   2.201   4.463  1.8500 -1.2443 -1.4092
  125MOL   H27947647   0.166   2.367   4.411  0.0852 -0.1867 -2.4146
  125MOL   H28047648   0.400   2.341   4.273 -1.4860  2.1568  1.5804
  125MOL   H28147649   0.201   2.238   4.179  0.3850 -1.2461 -2.0180
  125MOL   H28247650   0.230   2.084   4.263  1.6240 -0.9699  1.4242
  125MOL   H28347651   0.414   2.238   4.064  2.6529 -1.5144  0.7799
  125MOL   H28447652   0.468   2.090   4.121 -0.8912 -1.0994 -0.2694
  125MOL   H28547653   0.424   2.091   4.442 -1.2306  2.0586  3.2390
  125MOL   H28647654   0.550   2.162   4.358 -0.1693  0.4399  0.1855
  125MOL   C28747655   0.308   2.072   3.976  0.3130  0.2248  0.2607
  125MOL   C28847656   0.391   2.104   3.850  0.1594 -0.4594  0.4623
  125MOL   C28947657   0.355   1.988   3.755  0.6165 -0.7704  0.1920
  125MOL   C29047658   0.333   1.864   3.839  0.0902 -0.2278 -0.4225
  125MOL   C29147659   0.447   1.765   3.833  0.3900  0.8686 -0.2655
  125MOL   C29247660   0.431   1.640   3.915  0.8001 -0.6728 -0.7525
  125MOL   C29347661   0.295   1.918   3.980 -0.1126  1.0386  0.0181
  125MOL   H29447662   0.204   2.102   3.966 -0.0853 -1.2649 -0.2388
  125MOL   H29547663   0.358   2.202   3.817  0.6144 -0.4500  0.0310
  125MOL   H29647664   0.498   2.103   3.872 -0.2703  0.4530  2.7724
  125MOL   H29747665   0.434   1.980   3.681  0.6501 -1.0267  0.2555
  125MOL   H29847666   0.269   2.010   3.693  0.4476 -1.7211  0.0870
  125MOL   H29947667   0.243   1.818   3.798 -0.0721  2.2534 -3.0140
  125MOL   H30047668   0.541   1.813   3.863  0.0583  1.1879  0.2597
  125MOL   H30147669   0.465   1.736   3.729 -0.4113  1.6830 -0.6290
  125MOL   H30247670   0.332   1.599   3.897  0.1821  0.8855 -0.8988
  125MOL   H30347671   0.438   1.659   4.022  0.7887 -0.3598 -0.8089
  125MOL   H30447672   0.367   1.887   4.055 -0.6469  2.3359  1.0924
  125MOL   H30547673   0.194   1.879   3.997  0.7069 -0.8108  0.8166
  125MOL   C30647674   0.531   1.527   3.890  0.0579  0.4571 -0.8924
  125MOL   C30747675   0.503   1.390   3.960  0.1290 -0.0677 -0.2205
  125MOL   C30847676   0.585   1.293   3.887 -0.1326  0.8679 -0.0013
  125MOL   C30947677   0.598   1.345   3.746 -0.2109  0.4415 -0.1398
  125MOL   C31047678   0.536   1.258   3.639 -0.2721 -0.0445 -0.3486
  125MOL   C31147679   0.553   1.320   3.496  0.9381 -0.0929  0.1334
  125MOL   C31247680   0.534   1.480   3.747 -0.5223 -0.1398  0.3988
  125MOL   H31347681   0.631   1.559   3.916  0.3441 -1.0317 -0.1098
  125MOL   H31447682   0.519   1.385   4.068  0.6118 -0.0945 -0.2925
  125MOL   H31547683   0.402   1.353   3.944  0.7900 -1.3394 -1.6834
  125MOL   H31647684   0.680   1.286   3.942  0.8120  1.9726 -1.4649
  125MOL   H31747685   0.541   1.193   3.892  0.1560  0.7167 -0.5064
  125MOL   H31847686   0.704   1.358   3.727 -0.2637  0.9097 -0.1076
  125MOL   H31947687   0.570   1.155   3.628 -0.6741 -0.1527 -0.5958
  125MOL   H32047688   0.430   1.252   3.665 -0.8812 -1.2381 -2.9073
  125MOL   H32147689   0.657   1.346   3.479  0.5297  1.5928  0.1091
  125MOL   H32247690   0.499   1.415   3.491  0.5912 -0.2547  0.7403
  125MOL   H32347691   0.431   1.467   3.714 -0.6995  0.0942  0.8605
  125MOL   H32447692   0.586   1.556   3.689  1.8175 -1.7380  0.3411
  125MOL   C32547693   0.487   1.234   3.383  0.5031 -0.0579 -0.1183
  125MOL   C32647694   0.488   1.300   3.249 -0.3738 -0.7277  0.5417
  125MOL   C32747695   0.475   1.184   3.158  0.0429 -0.3741  0.4073
  125MOL   C32847696   0.565   1.077   3.210 -0.2691 -0.2191 -1.1117
  125MOL   C32947697   0.516   0.945   3.159 -1.0480  0.6933  0.2919
  125MOL   C33047698   0.602   0.827   3.200 -0.6024 -0.3045  1.0857
  125MOL   C33147699   0.564   1.102   3.360 -0.1330 -0.4771  0.5522
  125MOL   H33247700   0.387   1.210   3.418  1.0364  0.0056  1.5288
  125MOL   H33347701   0.589   1.341   3.238 -0.4040 -0.6296  0.6250
  125MOL   H33447702   0.419   1.382   3.229  0.8561  0.0499 -0.6110
  125MOL   H33547703   0.372   1.152   3.143 -0.2007  0.1554  0.9675
  125MOL   H33647704   0.507   1.208   3.057  0.0491 -0.9209  0.2764
  125MOL   H33747705   0.670   1.084   3.182 -0.0591 -0.1631 -0.3152
  125MOL   H33847706   0.416   0.929   3.201 -0.8165 -2.6754 -0.3082
  125MOL   H33947707   0.489   0.945   3.054  1.6623  0.8605 -0.4392
  125MOL   H34047708   0.696   0.835   3.145 -1.2258  2.0674  0.2944
  125MOL   H34147709   0.619   0.835   3.307  0.1980 -0.8605  1.0102
  125MOL   H34247710   0.662   1.102   3.407 -0.8941 -1.4722  2.1720
  125MOL   H34347711   0.520   1.017   3.411 -0.2727 -0.4135  0.5373
  125MOL   C34447712   0.543   0.689   3.189 -0.6038 -0.1642 -0.2200
  125MOL   C34547713   0.450   0.662   3.310 -0.0032  0.4394 -0.0473
  125MOL   C34647714   0.449   0.510   3.332 -0.2926  0.7560  0.1462
  125MOL   C34747715   0.594   0.469   3.300  0.0655  0.2917 -0.8066
  125MOL   C34847716   0.618   0.324   3.246 -0.3105  0.0653 -0.4004
  125MOL   C34947717   0.608   0.211   3.349  0.0945  0.1030 -0.6190
  125MOL   C35047718   0.651   0.579   3.197 -0.2351  0.3826 -0.5104
  125MOL   H35147719   0.495   0.693   3.091  1.0918  0.3760 -1.0512
  125MOL   H35247720   0.351   0.686   3.271 -0.1567 -2.0173 -1.3001
  125MOL   H35347721   0.473   0.720   3.399  0.9289  1.7361 -1.1121
  125MOL   H35447722   0.404   0.486   3.429 -2.5403 -0.4400 -1.1357
  125MOL   H35547723   0.378   0.468   3.261 -0.4796  1.2290  0.0508
  125MOL   H35647724   0.643   0.483   3.396  1.6900  0.0349 -1.5711
  125MOL   H35747725   0.555   0.310   3.158 -0.9697  1.8815 -0.2333
  125MOL   H35847726   0.720   0.316   3.208 -0.0187  0.2345  0.3430
  125MOL   H35947727   0.506   0.206   3.387 -0.4139 -0.4682 -2.0158
  125MOL   H36047728   0.671   0.220   3.437 -0.5938 -0.5440 -0.0556
  125MOL   H36147729   0.744   0.607   3.246 -0.5833 -0.5801  0.7222
  125MOL   H36247730   0.688   0.530   3.107 -0.1489 -0.1986 -0.1656
  125MOL   C36347731   0.639   0.079   3.288  0.8934  0.0712 -0.4284
  125MOL   C36447732   0.555   7.613   3.346 -0.3757 -0.2626 -0.9933
  125MOL   C36547733   0.645   7.492   3.372 -0.1235  0.0305  0.8078
  125MOL   C36647734   0.775   7.522   3.292 -0.5336  0.1715  0.0224
  125MOL   C36747735   0.903   7.458   3.348 -0.4136 -0.4595 -0.1696
  125MOL   C36847736   1.036   7.489   3.261  0.2144 -0.2731 -0.1466
  125MOL   C36947737   0.784   0.028   3.292  0.0811 -0.7005  0.6094
  125MOL   H37047738   0.594   0.086   3.189 -3.2283  1.2864  1.3957
  125MOL   H37147739   0.516   0.006   3.440  2.2616 -1.4036  0.6594
  125MOL   H37247740   0.469   7.586   3.284 -1.1752 -0.8312  0.3273
  125MOL   H37347741   0.680   7.496   3.475  0.0995 -0.5776  0.7587
  125MOL   H37447742   0.603   7.392   3.359  2.2599 -1.0430  0.9707
  125MOL   H37547743   0.762   7.484   3.190  0.2710  2.3477 -0.9363
  125MOL   H37647744   0.913   7.504   3.446  1.5669  0.6440 -0.8603
  125MOL   H37747745   0.900   7.350   3.365 -1.2029 -0.1872  1.5570
  125MOL   H37847746   1.057   7.596   3.269 -2.1468  0.3207 -1.5370
  125MOL   H37947747   1.007   7.464   3.159 -0.2566  0.2655 -0.1467
  125MOL   H38047748   0.837   0.064   3.379  0.5803 -3.6715  1.6097
  125MOL   H38147749   0.841   0.061   3.205 -2.4435 -0.3310 -0.9549
  125MOL   H38247750   1.113   7.416   3.289  0.8690  1.0874  1.7210
  126MOL     C147751   5.078   7.636   7.584  0.1828  0.1753 -0.4577
  126MOL     C247752   5.096   7.495   0.008 -0.0002  0.2329 -0.5749
  126MOL     C347753   5.001   7.488   0.126  0.6401 -0.7274  0.1886
  126MOL     C447754   4.947   7.635   0.128  0.1041 -0.2063 -0.4988
  126MOL     C547755   4.911   0.025   0.274 -0.2960  0.2779 -0.7336
  126MOL     C647756   4.782   7.604   0.319 -0.0582 -0.6437  0.7802
  126MOL     C747757   5.057   0.072   0.062 -0.0636  0.0661  0.3649
  126MOL     H847758   5.166   0.015   7.527 -0.8529  0.1311 -2.1052
  126MOL     H947759   5.196   7.482   0.050 -1.1434 -0.4888  2.0417
  126MOL    H1047760   5.086   7.415   7.581 -1.6247 -1.5112  1.4218
  126MOL    H1147761   4.914   7.426   0.103  0.0503  0.3782 -0.6035
  126MOL    H1247762   5.051   7.459   0.218  1.5103  0.9114  0.2400
  126MOL    H1347763   4.852   7.646   0.075  0.0153  0.7031 -0.1620
  126MOL    H1447764   4.994   0.001   0.341  0.6238  1.4115 -1.4500
  126MOL    H1547765   4.905   0.132   0.291 -2.2956 -0.2580  2.1690
  126MOL    H1647766   4.700   7.620   0.249 -1.2230 -2.0185  1.8022
  126MOL    H1747767   4.800   7.497   0.314 -0.9684 -0.7748  0.2400
  126MOL    H1847768   5.026   0.174   0.038 -1.4616 -0.1701  1.1329
  126MOL    H1947769   5.145   0.075   0.125  0.2420 -1.0787  0.0033
  126MOL    H2047770   4.991   7.642   7.518  0.3025 -1.6071 -0.8156
  126MOL    C2147771   4.738   7.636   0.461 -0.3959  0.0442 -0.7923
  126MOL    C2247772   4.702   0.136   0.483  0.5468 -0.1082 -0.2777
  126MOL    C2347773   4.605   0.148   0.598 -0.9186  0.0293 -0.0543
  126MOL    C2447774   4.565   0.003   0.642  0.2249  0.2567 -0.2377
  126MOL    C2547775   4.419   7.630   0.670 -0.1052  0.1869  0.0639
  126MOL    C2647776   4.358   0.074   0.777 -0.0889 -1.1647 -0.8737
  126MOL    C2747777   4.621   7.563   0.523 -0.0906  0.1116 -0.4412
  126MOL    H2847778   4.820   7.617   0.531 -0.4629  1.9158 -0.1960
  126MOL    H2947779   4.801   0.176   0.505  0.9865 -0.8024 -0.9773
  126MOL    H3047780   4.663   0.179   0.391 -1.0684  0.6004  0.7155
  126MOL    H3147781   4.644   0.200   0.686  0.1887 -1.7285  0.5231
  126MOL    H3247782   4.522   0.211   0.567 -0.7989 -0.7238 -1.9547
  126MOL    H3347783   4.611   7.628   0.739 -0.7199 -3.9449 -0.6245
  126MOL    H3447784   4.407   7.523   0.690  2.2604 -0.5550 -2.2653
  126MOL    H3547785   4.355   0.004   0.584 -0.6060 -0.9403  0.1434
  126MOL    H3647786   4.405   0.170   0.760 -0.0462 -0.8615  0.8637
  126MOL    H3747787   4.395   0.043   0.875 -1.3123  0.5056  0.1460
  126MOL    H3847788   4.641   7.458   0.541  2.0760  0.6370  0.3545
  126MOL    H3947789   4.541   7.557   0.449  0.1896 -1.2187 -0.6387
  126MOL    C4047790   4.201   0.087   0.781  0.2414  0.6838  0.3504
  126MOL    C4147791   4.129   7.590   0.817  0.0416  0.5596 -0.0578
  126MOL    C4247792   3.994   7.632   0.869  0.0559  0.2419  0.2040
  126MOL    C4347793   4.026   0.102   0.960  0.2591 -0.5364  0.1818
  126MOL    C4447794   3.905   0.184   0.997  0.7115  0.8070  0.0391
  126MOL    C4547795   3.834   0.136   1.122 -0.5905 -0.0633  0.0707
  126MOL    C4647796   4.149   0.180   0.895 -0.1644  0.2929 -0.1497
  126MOL    H4747797   4.175   0.129   0.684  4.4757 -0.7892 -1.5892
  126MOL    H4847798   4.186   7.541   0.897  0.0773  0.3125 -0.2319
  126MOL    H4947799   4.125   7.524   0.730  0.3615 -1.2484  1.2586
  126MOL    H5047800   3.935   0.018   0.784  1.6945  1.3311 -0.5547
  126MOL    H5147801   3.941   7.549   0.914  1.2770 -1.4760 -1.4239
  126MOL    H5247802   4.073   0.055   1.047 -0.0970  0.3178  0.8430
  126MOL    H5347803   3.945   0.283   1.021 -2.3601  1.7536  1.4785
  126MOL    H5447804   3.840   0.194   0.911 -1.8171  1.7003  1.9848
  126MOL    H5547805   3.918   0.123   1.190  0.8540 -0.3085 -1.7428
  126MOL    H5647806   3.777   0.044   1.112 -0.3455 -0.3476  1.2110
  126MOL    H5747807   4.116   0.274   0.850  0.6354  0.3055 -0.7149
  126MOL    H5847808   4.209   0.197   0.985 -0.0503  0.4945 -0.2648
  126MOL    C5947809   3.743   0.243   1.190 -0.1765 -0.2830  0.0341
  126MOL    C6047810   3.635   0.297   1.106  0.3002 -0.3224  0.1634
  126MOL    C6147811   3.535   0.367   1.200 -0.5594 -0.6413  0.4223
  126MOL    C6247812   3.553   0.294   1.335  0.0997  0.3199 -0.4790
  126MOL    C6347813   3.562   0.390   1.447 -0.2806  0.2233 -0.3715
  126MOL    C6447814   3.547   0.323   1.582 -0.9080  0.4597 -0.1369
  126MOL    C6547815   3.676   0.198   1.313 -0.3362  0.3342  0.0493
  126MOL    H6647816   3.806   0.326   1.221 -0.5124  0.3500 -0.9575
  126MOL    H6747817   3.670   0.364   1.028  0.4342 -0.5229  0.0532
  126MOL    H6847818   3.591   0.212   1.053 -1.8110  2.5554 -2.9370
  126MOL    H6947819   3.550   0.475   1.207  0.0681 -0.7614  1.0303
  126MOL    H7047820   3.431   0.349   1.171 -0.6001  0.4167 -0.1335
  126MOL    H7147821   3.467   0.232   1.360  0.4361 -0.0760 -0.2794
  126MOL    H7247822   3.477   0.459   1.438 -1.2296 -0.6446  1.5491
  126MOL    H7347823   3.659   0.439   1.443 -0.6776  0.9918 -0.7331
  126MOL    H7447824   3.447   0.279   1.586 -1.1232  0.5968 -2.7959
  126MOL    H7547825   3.616   0.238   1.580 -1.0212  0.3545  0.5268
  126MOL    H7647826   3.748   0.202   1.395  0.3180  2.8136 -0.5994
  126MOL    H7747827   3.639   0.096   1.303  1.7688 -0.3353 -1.4912
  126MOL    C7847828   3.595   0.403   1.697  0.1014 -0.9019  0.3257
  126MOL    C7947829   3.560   0.332   1.836 -1.1970  0.0592 -0.8542
  126MOL    C8047830   3.688   0.366   1.917  0.0317  0.2665 -0.0682
  126MOL    C8147831   3.773   0.470   1.843  0.1697 -0.0199  0.6106
  126MOL    C8247832   3.914   0.471   1.899  1.0172  0.3313  0.4878
  126MOL    C8347833   4.007   0.580   1.838  0.7448 -0.8985 -0.0435
  126MOL    C8447834   3.746   0.443   1.695  0.3747 -0.1615  0.2934
  126MOL    H8547835   3.538   0.495   1.683  0.8231 -0.5693 -0.4509
  126MOL    H8647836   3.457   0.363   1.854 -1.5587 -0.3493 -2.1321
  126MOL    H8747837   3.541   0.226   1.819 -1.8662 -0.0712  0.6442
  126MOL    H8847838   3.645   0.390   2.014  1.9624 -1.7856  1.3261
  126MOL    H8947839   3.755   0.282   1.936 -1.3652 -0.6201  1.0163
  126MOL    H9047840   3.736   0.571   1.857  1.4187  0.9848 -2.8902
  126MOL    H9147841   3.961   0.373   1.894 -2.9179 -1.5503 -1.7925
  126MOL    H9247842   3.921   0.485   2.007 -0.1243 -0.9364  0.7380
  126MOL    H9347843   3.964   0.679   1.852  0.1191 -1.1794  0.0198
  126MOL    H9447844   4.006   0.566   1.729 -0.9061 -2.8868  0.1953
  126MOL    H9547845   3.816   0.367   1.660  0.3779 -0.4350  0.8996
  126MOL    H9647846   3.768   0.522   1.623  2.3380  0.6381  1.7407
  126MOL    C9747847   4.154   0.570   1.882  0.0975 -0.2544 -0.3857
  126MOL    C9847848   4.169   0.606   2.029 -0.1838 -0.9257 -0.3137
  126MOL    C9947849   4.297   0.696   2.041  0.1289  0.2490 -0.5071
  126MOL   C10047850   4.362   0.704   1.900  0.1693 -0.6775  0.3705
  126MOL   C10147851   4.414   0.853   1.877 -0.4417 -0.0358 -0.2031
  126MOL   C10247852   4.483   0.870   1.745  0.7358 -0.1402  0.1444
  126MOL   C10347853   4.247   0.661   1.809  0.9770 -0.3449  0.0758
  126MOL   H10447854   4.190   0.470   1.859 -0.8552 -0.9326  0.9879
  126MOL   H10547855   4.089   0.675   2.056 -2.2450 -2.9055 -1.2382
  126MOL   H10647856   4.160   0.522   2.098 -1.1411  0.0993  0.8381
  126MOL   H10747857   4.273   0.799   2.068  0.1336  0.1562 -0.1474
  126MOL   H10847858   4.368   0.660   2.115 -0.4762 -0.1351 -0.1158
  126MOL   H10947859   4.450   0.639   1.894  1.4692  0.9556  1.3026
  126MOL   H11047860   4.331   0.924   1.876  1.7875  2.6299  0.3611
  126MOL   H11147861   4.482   0.878   1.958  0.6548 -0.3970 -1.0058
  126MOL   H11247862   4.553   0.787   1.732  0.8192 -0.0373 -0.0653
  126MOL   H11347863   4.406   0.876   1.669 -0.2004 -1.8607  0.9455
  126MOL   H11447864   4.186   0.741   1.767  0.5072 -0.6806  0.1086
  126MOL   H11547865   4.272   0.603   1.719 -0.3043 -0.8264  0.0193
  126MOL   C11647866   4.573   0.995   1.737  0.4501  0.2794 -0.1226
  126MOL   C11747867   4.710   0.982   1.811 -0.1019  0.9209  0.3562
  126MOL   C11847868   4.806   1.078   1.732  0.1224 -0.3208 -0.0284
  126MOL   C11947869   4.721   1.140   1.623  0.0440  0.1896  0.8765
  126MOL   C12047870   4.802   1.181   1.491 -0.9541 -0.1975  0.5461
  126MOL   C12147871   4.715   1.264   1.390 -0.6361 -0.2322  0.0749
  126MOL   C12247872   4.612   1.030   1.593 -0.2922 -0.2961 -0.5321
  126MOL   H12347873   4.523   1.073   1.795  0.7655  0.3669  0.0338
  126MOL   H12447874   4.751   0.881   1.817 -1.6869  0.3373  1.6814
  126MOL   H12547875   4.703   1.012   1.916 -0.4627 -0.8593  0.8660
  126MOL   H12647876   4.893   1.022   1.698  0.2370 -0.9777  1.3138
  126MOL   H12747877   4.834   1.158   1.800 -1.5850 -0.7384  1.1958
  126MOL   H12847878   4.672   1.231   1.659 -0.2582 -0.2269  1.5247
  126MOL   H12947879   4.839   1.092   1.441  0.2151  1.5197 -1.7381
  126MOL   H13047880   4.890   1.236   1.524 -0.1911 -1.0687 -0.0192
  126MOL   H13147881   4.710   1.363   1.435  0.9917  0.0460 -0.3300
  126MOL   H13247882   4.622   1.206   1.390  0.4632 -2.0733 -2.0124
  126MOL   H13347883   4.525   1.061   1.536 -0.5151  0.3766  0.1597
  126MOL   H13447884   4.654   0.941   1.547 -2.3775 -1.7106  0.2664
  126MOL   C13547885   4.774   1.284   1.249  0.0095  0.7243  0.3289
  126MOL   C13647886   4.666   1.329   1.151 -0.4802  0.0374  0.4933
  126MOL   C13747887   4.758   1.360   1.030 -0.4336  0.2142 -0.1619
  126MOL   C13847888   4.895   1.411   1.099  0.0483 -0.0929 -0.9631
  126MOL   C13947889   5.021   1.369   1.026 -0.5225 -0.1463 -0.2165
  126MOL   C14047890   5.066   1.442   0.894 -0.1191 -1.1329 -0.2521
  126MOL   C14147891   4.891   1.375   1.243 -0.2124 -0.4548  0.3757
  126MOL   H14247892   4.790   1.183   1.212  0.0637  0.9049 -0.1434
  126MOL   H14347893   4.593   1.250   1.133  1.1577 -1.1704 -1.0556
  126MOL   H14447894   4.617   1.420   1.185  0.3993  1.5171 -2.0565
  126MOL   H14547895   4.770   1.273   0.966 -0.8833  1.5604 -2.1216
  126MOL   H14647896   4.712   1.433   0.963  1.5792  1.7032  0.0096
  126MOL   H14747897   4.903   1.520   1.092  0.5354  0.0687  1.8159
  126MOL   H14847898   5.012   1.265   0.994  1.5248 -0.1240 -0.8997
  126MOL   H14947899   5.109   1.374   1.090 -1.8913 -1.0551  1.8018
  126MOL   H15047900   5.163   1.397   0.871 -0.9298 -1.9180 -2.2496
  126MOL   H15147901   4.994   1.427   0.813  0.7522 -0.2625 -1.2136
  126MOL   H15247902   4.859   1.465   1.297 -0.7438 -0.2089 -0.3425
  126MOL   H15347903   4.985   1.339   1.283 -0.7733  0.7340  2.9375
  126MOL   C15447904   5.093   1.597   0.907  0.1515  0.1140 -0.5532
  126MOL   C15547905   5.121   1.672   0.778 -0.0107  0.4331  0.1144
  126MOL   C15647906   5.233   1.767   0.813 -0.0097 -0.1352 -0.4332
  126MOL   C15747907   5.245   1.771   0.965 -0.7852  0.1071  0.2042
  126MOL   C15847908   5.382   1.812   1.007 -0.4477 -0.1587 -0.5469
  126MOL   C15947909   5.400   1.794   1.164 -0.9637  0.0328 -0.3056
  126MOL   C16047910   5.202   1.626   1.008 -0.2212  0.3690 -0.1265
  126MOL   H16147911   5.001   1.639   0.948  1.1896  0.8342  1.0757
  126MOL   H16247912   5.145   1.607   0.693  0.4225  0.2835  0.3558
  126MOL   H16347913   5.027   1.722   0.752  0.5785  0.5162 -1.9552
  126MOL   H16447914   5.324   1.716   0.783  0.4034  0.5094 -0.2747
  126MOL   H16547915   5.240   1.862   0.760  1.8492  1.2388  2.1904
  126MOL   H16647916   5.169   1.840   1.004 -0.2061  0.7076  0.2694
  126MOL   H16747917   5.392   1.914   0.971 -1.5416  0.3232  0.4811
  126MOL   H16847918   5.459   1.752   0.960 -1.4438 -1.4373 -0.5878
  126MOL   H16947919   5.305   1.812   1.214 -0.8455  2.5195 -0.9251
  126MOL   H17047920   5.434   1.692   1.182  1.6193  0.4880 -2.2032
  126MOL   H17147921   5.161   1.611   1.108  0.8209 -0.4061  0.2021
  126MOL   H17247922   5.285   1.555   0.998  0.7892  1.3954  0.8293
  126MOL   C17347923   5.503   1.884   1.228  0.6830  0.2103  0.0732
  126MOL   C17447924   5.480   2.033   1.215  0.1568 -0.7060  0.7574
  126MOL   C17547925   5.516   2.093   1.350 -0.0916  0.1853 -0.0156
  126MOL   C17647926   5.570   1.980   1.438 -0.6766  0.6328  0.3695
  126MOL   C17747927   5.553   1.995   1.585 -0.1543 -0.3993 -0.3763
  126MOL   C17847928   5.626   1.884   1.669  0.7883 -0.2072 -0.1514
  126MOL   C17947929   5.498   1.857   1.381 -0.1054 -0.4439  0.5476
  126MOL   H18047930   5.603   1.852   1.197  1.5516 -0.4608  3.3530
  126MOL   H18147931   5.373   2.041   1.192  0.3454 -2.1015 -0.7614
  126MOL   H18247932   5.526   2.091   1.135 -0.6207 -0.5718  0.3944
  126MOL   H18347933   5.575   2.181   1.324  0.9696 -1.1288 -2.2071
  126MOL   H18447934   5.432   2.139   1.403  0.7101  0.2484  1.2103
  126MOL   H18547935   5.677   1.967   1.423 -1.0230 -1.2899 -0.6598
  126MOL   H18647936   5.451   2.010   1.620  0.7329  3.7325  0.7246
  126MOL   H18747937   5.600   2.089   1.613 -0.0953 -0.7677  0.7994
  126MOL   H18847938   5.607   1.789   1.618  3.9237 -0.7932 -0.3495
  126MOL   H18947939   5.567   1.858   1.757  0.1480 -0.0019 -0.5166
  126MOL   H19047940   5.399   1.849   1.425 -0.1083 -1.4581  0.3772
  126MOL   H19147941   5.552   1.763   1.391  1.0093  0.1479  0.2887
  126MOL   C19247942   5.774   1.895   1.688  0.3053  0.0905 -0.1573
  126MOL   C19347943   5.834   1.770   1.744 -0.1799  0.1811  0.0269
  126MOL   C19447944   5.940   1.814   1.842  0.0395 -0.8586 -0.1820
  126MOL   C19547945   5.901   1.956   1.889 -0.4425  0.1400 -0.0335
  126MOL   C19647946   6.026   2.033   1.926  0.7015 -0.4474 -0.2815
  126MOL   C19747947   5.981   2.164   1.992  0.4187 -0.2438 -0.6267
  126MOL   C19847948   5.830   2.011   1.768 -0.1865 -0.2694 -0.1467
  126MOL   H19947949   5.819   1.912   1.591  1.4610 -0.3742  0.2884
  126MOL   H20047950   5.762   1.708   1.798 -0.5233  1.2623  0.8360
  126MOL   H20147951   5.880   1.697   1.677  0.5010  2.3654 -1.9441
  126MOL   H20247952   6.030   1.820   1.781  1.5228 -0.1420  2.0152
  126MOL   H20347953   5.954   1.740   1.921 -0.1886  1.1995  1.8522
  126MOL   H20447954   5.825   1.946   1.967  1.3260  0.0477  1.7023
  126MOL   H20547955   6.092   2.034   1.839  0.3504  1.7379 -0.5570
  126MOL   H20647956   6.086   1.980   2.000 -0.9552 -1.4526  0.3632
  126MOL   H20747957   5.905   2.144   2.067 -0.1689 -0.0097 -1.1566
  126MOL   H20847958   5.923   2.230   1.927  0.4974  1.5450  1.0536
  126MOL   H20947959   5.900   2.065   1.706  0.4663 -1.5405 -0.5337
  126MOL   H21047960   5.759   2.093   1.779 -0.7375 -0.5252 -1.7072
  126MOL   C21147961   6.096   2.245   2.055  0.0198 -0.6110 -0.0368
  126MOL   C21247962   6.168   2.165   2.165 -0.0742  0.9149 -0.2730
  126MOL   C21347963   6.236   2.277   2.253  0.2050 -0.6208  0.1926
  126MOL   C21447964   6.178   2.418   2.213  0.0781  0.4084  0.2677
  126MOL   C21547965   6.136   2.499   2.338  0.5627  0.3452  0.0977
  126MOL   C21647966   6.263   2.558   2.402  0.1148 -0.2871 -0.0330
  126MOL   C21747967   6.056   2.380   2.126 -0.2020  0.4512 -0.4844
  126MOL   H21847968   6.157   2.284   1.973  0.0303 -0.1328  0.1976
  126MOL   H21947969   6.091   2.118   2.226  1.9314 -1.2490  0.7090
  126MOL   H22047970   6.238   2.090   2.128 -0.5106  1.9008 -3.2637
  126MOL   H22147971   6.221   2.256   2.359 -0.2596 -0.1157  0.2249
  126MOL   H22247972   6.344   2.263   2.243  0.1946  0.2093 -1.2034
  126MOL   H22347973   6.245   2.482   2.154 -0.4391  0.7401  0.0347
  126MOL   H22447974   6.067   2.446   2.404 -1.3762  3.0039  0.3033
  126MOL   H22547975   6.069   2.581   2.311 -0.6655 -0.9605 -0.8719
  126MOL   H22647976   6.341   2.483   2.391  2.1743  1.4695  1.8524
  126MOL   H22747977   6.299   2.647   2.349  0.2603 -0.3154  0.0161
  126MOL   H22847978   6.037   2.466   2.061 -1.3876 -0.9126 -1.9955
  126MOL   H22947979   5.966   2.378   2.187 -1.1331  1.1252 -1.7984
  126MOL   C23047980   6.238   2.586   2.547  0.2725 -0.1350 -0.3610
  126MOL   C23147981   6.109   2.654   2.583 -0.1258  0.4600  0.4293
  126MOL   C23247982   6.134   2.728   2.718 -0.3560  0.1822  0.2006
  126MOL   C23347983   6.279   2.782   2.694 -0.7886  0.2587 -0.5490
  126MOL   C23447984   6.349   2.808   2.829 -0.1695 -0.1557  0.3995
  126MOL   C23547985   6.290   2.909   2.921  0.4254  0.0658  0.0896
  126MOL   C23647986   6.352   2.679   2.605  0.3603 -0.4734  0.3825
  126MOL   H23747987   6.231   2.490   2.598  0.7665  0.4325  0.7841
  126MOL   H23847988   6.076   2.721   2.503 -0.1496 -0.5996 -0.4554
  126MOL   H23947989   6.028   2.582   2.585  0.6346 -0.4406 -0.4942
  126MOL   H24047990   6.149   2.657   2.799  1.8169  0.6324  0.2200
  126MOL   H24147991   6.061   2.804   2.748  1.6176  1.0967  2.8842
  126MOL   H24247992   6.284   2.876   2.638  1.6700  0.5854  0.1485
  126MOL   H24347993   6.448   2.846   2.806 -0.7952  2.1895  1.3951
  126MOL   H24447994   6.360   2.710   2.876 -0.9468 -1.2948 -1.6821
  126MOL   H24547995   6.287   3.009   2.877 -0.6237 -0.4222 -0.9768
  126MOL   H24647996   6.188   2.876   2.941  0.7166 -0.6541  0.4019
  126MOL   H24747997   6.412   2.620   2.675  1.3600  0.7266  0.5490
  126MOL   H24847998   6.423   2.708   2.527 -1.1395 -1.3247 -1.3254
  126MOL   C24947999   6.366   2.921   3.055  0.1750  0.1884 -0.4493
  126MOL   C25048000   6.319   3.036   3.144 -0.1560 -0.4311 -0.0016
  126MOL   C25148001   6.378   3.013   3.283  0.0478 -0.3533 -0.1961
  126MOL   C25248002   6.379   2.855   3.295 -0.2723 -0.4106 -0.5759
  126MOL   C25348003   6.498   2.790   3.370 -1.0124 -0.2726  0.0956
  126MOL   C25448004   6.502   2.834   3.521  0.6415  0.4805  0.0113
  126MOL   C25548005   6.355   2.797   3.153 -0.7686 -0.4616 -0.0620
  126MOL   H25648006   6.469   2.938   3.026 -0.0940  0.0016 -1.5483
  126MOL   H25748007   6.333   3.137   3.106  1.5009 -0.8879 -0.6434
  126MOL   H25848008   6.211   3.019   3.154 -0.5142  1.3619 -0.7303
  126MOL   H25948009   6.315   3.054   3.362  0.4381  0.0842 -0.1148
  126MOL   H26048010   6.478   3.055   3.295 -0.1544 -0.3605  1.7144
  126MOL   H26148011   6.291   2.829   3.354 -0.0284  1.3673  0.6117
  126MOL   H26248012   6.590   2.811   3.316 -0.0465 -2.9672  0.6171
  126MOL   H26348013   6.488   2.681   3.372 -0.5555 -0.3669 -1.9028
  126MOL   H26448014   6.403   2.818   3.566 -0.1715  0.5362 -1.7273
  126MOL   H26548015   6.518   2.941   3.533 -2.9691  1.1746 -0.8178
  126MOL   H26648016   6.249   2.775   3.142 -0.6000 -1.0779 -0.4588
  126MOL   H26748017   6.411   2.711   3.117 -0.8469 -0.3390 -0.4821
  126MOL   C26848018   6.610   2.758   3.598 -0.3456 -0.1831 -0.0376
  126MOL   C26948019   6.581   2.613   3.647  0.2169 -0.4773 -0.0538
  126MOL   C27048020   6.660   2.593   3.771 -0.3433  0.3193  0.0028
  126MOL   C27148021   6.716   2.732   3.811  0.0548  0.2650 -0.0190
  126MOL   C27248022   6.701   2.753   3.965  0.2920 -0.0050  0.1046
  126MOL   C27348023   6.802   2.670   4.049  0.2601 -0.2009  0.8378
  126MOL   C27448024   6.634   2.828   3.728  0.0633  0.7468  0.4702
  126MOL   H27548025   6.702   2.766   3.540 -0.9387  3.1537 -0.6400
  126MOL   H27648026   6.476   2.596   3.666  0.3815  0.2536  1.6109
  126MOL   H27748027   6.603   2.543   3.566  0.9898  2.0300 -2.0803
  126MOL   H27848028   6.598   2.545   3.847 -2.8946  1.0842 -1.5376
  126MOL   H27948029   6.736   2.517   3.751  0.8320  1.6209 -0.5422
  126MOL   H28048030   6.818   2.750   3.777 -0.1043 -0.1944 -0.7647
  126MOL   H28148031   6.599   2.739   3.999 -0.9677  1.8976 -2.7493
  126MOL   H28248032   6.733   2.852   3.997  0.0663  0.0906  0.0281
  126MOL   H28348033   6.794   2.564   4.025  2.0237  0.1167 -1.2565
  126MOL   H28448034   6.902   2.679   4.008 -0.5778  2.6995 -0.6661
  126MOL   H28548035   6.543   2.846   3.785  0.0238 -0.7888  0.8958
  126MOL   H28648036   6.674   2.928   3.714  0.8161  0.6866  2.1814
  126MOL   C28748037   6.772   2.670   4.200 -0.2317  0.1599  0.1052
  126MOL   C28848038   6.643   2.605   4.243 -0.0522  0.6119 -0.1184
  126MOL   C28948039   6.669   2.561   4.380 -0.3730  0.0465 -0.2089
  126MOL   C29048040   6.819   2.579   4.410 -0.3694 -0.3448  1.0896
  126MOL   C29148041   6.876   2.464   4.501  0.4874  0.2433 -0.2092
  126MOL   C29248042   6.831   2.484   4.654  0.8163  0.2047 -0.0890
  126MOL   C29348043   6.884   2.591   4.271 -0.5396 -0.3438 -0.4583
  126MOL   H29448044   6.789   2.769   4.242 -1.5464  1.1935 -1.6959
  126MOL   H29548045   6.556   2.669   4.229 -0.0912  0.4693 -0.5413
  126MOL   H29648046   6.623   2.515   4.185  0.5633  0.8759 -0.7605
  126MOL   H29748047   6.642   2.456   4.393 -1.2295  0.1137 -1.3871
  126MOL   H29848048   6.616   2.611   4.462 -1.5512 -0.6219 -0.5497
  126MOL   H29948049   6.843   2.666   4.470  3.5110 -0.9636  0.5927
  126MOL   H30048050   6.985   2.466   4.500  0.5548 -0.8554  1.8000
  126MOL   H30148051   6.843   2.366   4.465 -3.5297  1.4849 -0.1459
  126MOL   H30248052   6.723   2.502   4.659  1.2808  2.8652  0.9469
  126MOL   H30348053   6.878   2.578   4.682  1.1344  0.0806 -0.2008
  126MOL   H30448054   6.891   2.495   4.220 -0.1010 -0.0597 -0.9311
  126MOL   H30548055   6.979   2.643   4.269 -0.8761  0.3584  1.0677
  126MOL   C30648056   6.883   2.372   4.741  0.6226 -0.1932  0.4270
  126MOL   C30748057   6.853   2.405   4.890  0.6463 -0.6961  0.7281
  126MOL   C30848058   6.712   2.341   4.909 -0.3220 -0.1852  0.0174
  126MOL   C30948059   6.727   2.210   4.840 -0.9657 -0.1548  0.4489
  126MOL   C31048060   6.595   2.137   4.825  0.3986 -0.1036 -1.3091
  126MOL   C31148061   6.608   2.009   4.746  0.8097 -0.5801  0.9001
  126MOL   C31248062   6.804   2.245   4.711  0.9278 -0.2013  0.1807
  126MOL   H31348063   6.988   2.379   4.713  0.1664 -0.0548 -1.2768
  126MOL   H31448064   6.921   2.355   4.960  2.8584 -0.5840 -1.2524
  126MOL   H31548065   6.849   2.512   4.912 -1.7820 -0.5378 -0.3560
  126MOL   H31648066   6.684   2.332   5.014 -0.9710  0.3214 -0.1069
  126MOL   H31748067   6.635   2.401   4.862  2.7707  3.2680 -0.9356
  126MOL   H31848068   6.782   2.145   4.909 -0.3841  0.7395  0.8330
  126MOL   H31948069   6.554   2.114   4.923  0.7564  0.2535 -1.0717
  126MOL   H32048070   6.522   2.198   4.771  0.8431 -0.5390 -2.4125
  126MOL   H32148071   6.684   1.946   4.791 -0.7272 -1.6132  2.1196
  126MOL   H32248072   6.654   2.030   4.649  1.1551 -0.6902  1.0385
  126MOL   H32348073   6.740   2.248   4.622  2.5011 -1.2597 -1.0116
  126MOL   H32448074   6.879   2.168   4.694 -0.1815 -1.2280 -0.0861
  126MOL   C32548075   6.477   1.930   4.729 -0.4504  0.0459  0.3851
  126MOL   C32648076   6.484   1.828   4.611  0.0864  0.4872 -0.5329
  126MOL   C32748077   6.423   1.698   4.660  0.2257 -0.0531  0.2731
  126MOL   C32848078   6.436   1.700   4.813  0.1924  0.9374  1.0549
  126MOL   C32948079   6.324   1.611   4.873 -0.4129  0.2742  0.1569
  126MOL   C33048080   6.338   1.570   5.023  0.2840  0.1107 -0.1835
  126MOL   C33148081   6.438   1.849   4.849  0.5876  0.7068 -0.4298
  126MOL   H33248082   6.400   2.002   4.699  0.0188  0.0755 -0.7847
  126MOL   H33348083   6.582   1.808   4.567  1.6313  3.2781  1.4913
  126MOL   H33448084   6.422   1.850   4.524  0.2218 -1.6202 -1.1845
  126MOL   H33548085   6.316   1.691   4.636  0.2432  0.5803  0.0042
  126MOL   H33648086   6.473   1.612   4.614  0.5023  0.1388  0.2149
  126MOL   H33748087   6.533   1.656   4.831  0.2923  0.9438  0.5567
  126MOL   H33848088   6.223   1.649   4.855 -1.3714 -1.7629  1.0420
  126MOL   H33948089   6.328   1.515   4.821  2.2490  0.2612  0.3255
  126MOL   H34048090   6.297   1.472   5.047  0.0308  0.0047 -1.0249
  126MOL   H34148091   6.441   1.585   5.056  0.4734 -0.3060 -0.5846
  126MOL   H34248092   6.508   1.857   4.932  0.8287 -0.5081 -0.5116
  126MOL   H34348093   6.337   1.882   4.873  0.2229 -0.3488 -0.4569
  126MOL   C34448094   6.257   1.670   5.115 -0.3981 -0.3782  0.0979
  126MOL   C34548095   6.290   1.673   5.263 -0.3603  0.2403  0.0082
  126MOL   C34648096   6.172   1.746   5.326  0.0536  0.2072 -0.3993
  126MOL   C34748097   6.052   1.692   5.250 -0.6444  0.1580  0.1144
  126MOL   C34848098   5.939   1.803   5.252  0.2201  0.0474  0.1937
  126MOL   C34948099   5.802   1.754   5.194  0.0553  0.8051 -0.1112
  126MOL   C35048100   6.105   1.657   5.111  0.3935  0.3777  0.2107
  126MOL   H35148101   6.286   1.772   5.089 -1.9018  0.3190  1.0437
  126MOL   H35248102   6.380   1.731   5.280  0.3602 -0.3927 -1.5867
  126MOL   H35348103   6.292   1.571   5.301  0.5015  0.5005  0.6743
  126MOL   H35448104   6.158   1.735   5.434 -0.8128  1.3343 -0.3836
  126MOL   H35548105   6.180   1.854   5.309 -2.9589  0.3754 -0.9868
  126MOL   H35648106   6.025   1.595   5.291 -0.0356 -0.0931 -0.0622
  126MOL   H35748107   5.922   1.849   5.350 -0.5586  0.3348 -0.0711
  126MOL   H35848108   5.983   1.882   5.190  0.0118 -0.8799 -1.1511
  126MOL   H35948109   5.778   1.663   5.249  0.0786  0.0867 -1.2608
  126MOL   H36048110   5.823   1.720   5.092  0.9584  0.4749  0.1860
  126MOL   H36148111   6.082   1.556   5.077  1.0486  0.2071  0.2648
  126MOL   H36248112   6.060   1.731   5.045  1.4254  1.1371  0.3444
  126MOL   C36348113   5.698   1.865   5.192 -0.1667 -0.2827  0.2501
  126MOL   C36448114   5.566   1.815   5.147  0.4075 -0.4765 -0.1558
  126MOL   C36548115   5.480   1.934   5.105 -0.2146  0.3947  0.6428
  126MOL   C36648116   5.579   2.044   5.075 -0.4594  0.3343 -0.0184
  126MOL   C36748117   5.557   2.122   4.940 -0.2534  0.2103 -0.8037
  126MOL   C36848118   5.667   2.223   4.905 -0.8038 -0.4074 -0.5452
  126MOL   C36948119   5.715   1.975   5.086  0.1886 -0.4106  0.4546
  126MOL   H37048120   5.684   1.917   5.286 -0.5490  0.8660 -0.4324
  126MOL   H37148121   5.576   1.751   5.059 -2.0761 -1.6731  0.3932
  126MOL   H37248122   5.513   1.754   5.220  0.4621  0.8162  0.9892
  126MOL   H37348123   5.439   1.908   5.007 -0.9109 -1.0941  1.3196
  126MOL   H37448124   5.405   1.960   5.179  0.3659 -1.1277  1.7866
  126MOL   H37548125   5.577   2.115   5.158  0.3735  1.1027 -0.6523
  126MOL   H37648126   5.549   2.051   4.858  1.7353 -0.6742 -0.2729
  126MOL   H37748127   5.463   2.177   4.940  0.2540  1.1331  1.8373
  126MOL   H37848128   5.653   2.256   4.802 -0.8055 -2.4073 -1.2095
  126MOL   H37948129   5.763   2.175   4.922 -0.9593  0.1038  1.9721
  126MOL   H38048130   5.740   1.920   4.995  1.6431 -0.5274  0.9147
  126MOL   H38148131   5.793   2.045   5.116  0.8413 -1.5676  1.4866
  126MOL   H38248132   5.668   2.315   4.964 -0.3346 -0.5408 -0.3452
  127MOL     C148133   5.682   6.581   5.210  0.0224  0.0618 -0.6518
  127MOL     C248134   5.783   6.619   5.101  0.4847 -0.4259 -0.2470
  127MOL     C348135   5.684   6.640   4.984 -0.7137 -0.0945  0.5518
  127MOL     C448136   5.552   6.690   5.045 -0.2282  0.4251  0.3006
  127MOL     C548137   5.421   6.658   4.963 -0.1871 -0.3831  0.0699
  127MOL     C648138   5.390   6.755   4.845 -0.5835  0.2164  0.4530
  127MOL     C748139   5.556   6.655   5.191  0.5306 -0.0595 -0.8675
  127MOL     H848140   5.660   6.474   5.211  0.8756 -0.1134  1.7202
  127MOL     H948141   5.848   6.538   5.068  1.0753 -0.1977  0.3273
  127MOL    H1048142   5.841   6.708   5.127 -1.0837  0.5522 -0.0733
  127MOL    H1148143   5.714   6.714   4.910 -0.1369 -0.2809  0.6004
  127MOL    H1248144   5.678   6.556   4.916  1.0186  0.6993 -0.6015
  127MOL    H1348145   5.579   6.796   5.041 -1.5700  0.8037  0.8476
  127MOL    H1448146   5.416   6.556   4.924 -0.1749  0.2379 -1.5679
  127MOL    H1548147   5.332   6.657   5.026 -1.1611 -0.0170 -1.2965
  127MOL    H1648148   5.466   6.746   4.768 -0.8466  0.6674  0.1384
  127MOL    H1748149   5.303   6.707   4.801  0.1312 -2.1407  1.4925
  127MOL    H1848150   5.544   6.738   5.261 -0.0386 -0.1841 -0.8125
  127MOL    H1948151   5.462   6.599   5.198 -0.6442  1.9144 -0.5236
  127MOL    H2048152   5.740   6.591   5.302  0.4070  0.2693 -0.9198
  127MOL    C2148153   5.365   6.900   4.882  0.0692  0.3030  0.3922
  127MOL    C2248154   5.313   6.997   4.780  0.9048  0.3466  0.1139
  127MOL    C2348155   5.227   7.100   4.857 -0.0706 -0.4650 -0.5332
  127MOL    C2448156   5.235   7.069   5.003 -0.3900 -0.2508  0.0898
  127MOL    C2548157   5.100   7.078   5.085 -0.0318 -0.0816 -0.6947
  127MOL    C2648158   5.055   7.222   5.133  0.3861 -0.2165 -0.0787
  127MOL    C2748159   5.285   6.930   5.012 -0.4203  0.3463 -0.3903
  127MOL    H2848160   5.461   6.946   4.909 -0.5672  0.5330  2.3246
  127MOL    H2948161   5.398   7.040   4.728 -1.5774  1.0287 -3.5576
  127MOL    H3048162   5.248   6.953   4.704  1.3795 -3.7616  1.9290
  127MOL    H3148163   5.259   7.203   4.844 -0.3705 -0.5180 -1.7384
  127MOL    H3248164   5.122   7.108   4.828  0.0966  0.1443 -0.9805
  127MOL    H3348165   5.321   7.118   5.050 -0.6161 -0.5505  0.8293
  127MOL    H3448166   5.123   7.029   5.180 -1.4893 -0.2343 -0.3932
  127MOL    H3548167   5.021   7.009   5.054 -0.4585  0.3744 -0.6431
  127MOL    H3648168   5.009   7.278   5.052  1.0976  0.7644  0.1914
  127MOL    H3748169   5.137   7.281   5.173 -0.6517 -0.0774  1.9094
  127MOL    H3848170   5.330   6.899   5.106 -1.4804  1.4097  0.4776
  127MOL    H3948171   5.193   6.871   5.015 -2.8426  4.0640  2.4638
  127MOL    C4048172   4.953   7.214   5.249 -0.0082 -0.3280 -0.2275
  127MOL    C4148173   4.932   7.341   5.324 -0.3508 -0.4167  0.4619
  127MOL    C4248174   4.791   7.340   5.368 -0.8315  0.4820  0.5713
  127MOL    C4348175   4.712   7.259   5.256 -0.0886  0.2032  0.3459
  127MOL    C4448176   4.585   7.182   5.300 -0.5855  0.1513  0.5312
  127MOL    C4548177   4.477   7.268   5.349  0.5351 -0.4094  0.3741
  127MOL    C4648178   4.809   7.160   5.201  0.1101 -0.0914 -1.1583
  127MOL    H4748179   4.987   7.131   5.310  1.3874  1.0969  0.9702
  127MOL    H4848180   4.943   7.430   5.261  1.3740 -0.3083  0.8836
  127MOL    H4948181   5.003   7.360   5.406 -0.1566  2.2524 -0.2512
  127MOL    H5048182   4.789   7.284   5.461 -0.0798  0.9441  0.8677
  127MOL    H5148183   4.743   7.434   5.397  3.0111  1.5491  3.9437
  127MOL    H5248184   4.679   7.321   5.172  0.5676 -0.1473 -0.1826
  127MOL    H5348185   4.542   7.131   5.214 -1.0979  0.4171  0.6331
  127MOL    H5448186   4.610   7.112   5.380  1.3072 -0.4224 -0.5164
  127MOL    H5548187   4.450   7.329   5.263 -0.8660 -2.1983 -0.5014
  127MOL    H5648188   4.510   7.335   5.428 -3.7961  2.4092 -0.0298
  127MOL    H5748189   4.796   7.057   5.233  0.3005  0.5773  1.1722
  127MOL    H5848190   4.802   7.165   5.092  1.9605 -0.4266 -1.3186
  127MOL    C5948191   4.348   7.200   5.392 -0.8344 -0.4621  0.1359
  127MOL    C6048192   4.254   7.285   5.468  0.0550 -0.0579 -0.5785
  127MOL    C6148193   4.113   7.236   5.434  0.1651 -0.8034 -0.2347
  127MOL    C6248194   4.117   7.190   5.287 -0.4128 -0.1939 -0.3354
  127MOL    C6348195   4.013   7.081   5.259  0.0519 -0.4928 -0.1478
  127MOL    C6448196   3.996   7.032   5.116  0.2357 -0.1332  0.3672
  127MOL    C6548197   4.263   7.140   5.270 -0.1469 -0.1353  0.0037
  127MOL    H6648198   4.377   7.120   5.459  0.1097  0.4898  0.8794
  127MOL    H6748199   4.270   7.271   5.575 -0.0115  1.3104 -0.3828
  127MOL    H6848200   4.265   7.389   5.436 -0.1389 -0.6561 -2.6709
  127MOL    H6948201   4.080   7.158   5.503 -0.1073 -2.2588 -1.9714
  127MOL    H7048202   4.042   7.318   5.443  1.9354  0.7663 -0.3963
  127MOL    H7148203   4.093   7.279   5.229 -0.5916  0.0412  0.0971
  127MOL    H7248204   3.916   7.105   5.301  1.0562 -0.5294  2.2730
  127MOL    H7348205   4.046   6.997   5.320 -0.5396 -0.6861 -0.0912
  127MOL    H7448206   3.972   7.112   5.046 -2.8500 -0.2894  1.1806
  127MOL    H7548207   4.094   6.995   5.086  1.0407  1.1035  1.4491
  127MOL    H7648208   4.256   7.033   5.288  3.4758 -0.1251  1.8687
  127MOL    H7748209   4.301   7.165   5.171  1.1974 -0.7606  0.3494
  127MOL    C7848210   3.889   6.922   5.101 -0.1624 -0.4505 -0.1449
  127MOL    C7948211   3.734   6.968   5.098 -0.5185 -0.2474 -0.7776
  127MOL    C8048212   3.661   6.846   5.054 -0.1697 -0.2233 -0.5907
  127MOL    C8148213   3.761   6.764   4.961 -0.2724 -0.6741  0.1394
  127MOL    C8248214   3.716   6.765   4.820  0.0731  0.3473 -0.2634
  127MOL    C8348215   3.596   6.669   4.784 -0.5068 -1.5515 -0.4982
  127MOL    C8448216   3.896   6.832   4.976 -0.2272 -0.5095  0.9432
  127MOL    H8548217   3.900   6.854   5.186 -0.5607  0.9582  1.0404
  127MOL    H8648218   3.707   7.007   5.196 -5.8801 -1.8213 -1.4782
  127MOL    H8748219   3.728   7.055   5.032  2.4066 -0.3649 -1.2559
  127MOL    H8848220   3.635   6.787   5.143  3.3050 -1.4678 -0.3157
  127MOL    H8948221   3.570   6.873   5.001  0.2704 -0.7751 -1.6353
  127MOL    H9048222   3.766   6.658   4.983  0.4038 -1.6870 -4.4795
  127MOL    H9148223   3.801   6.737   4.757  0.0576 -0.4390  0.0706
  127MOL    H9248224   3.693   6.869   4.793 -2.4653 -0.6593 -2.1843
  127MOL    H9348225   3.526   6.653   4.866 -1.8154 -1.3888 -1.5607
  127MOL    H9448226   3.623   6.565   4.764 -0.3398 -1.7289  0.6071
  127MOL    H9548227   3.902   6.908   4.898 -0.9442 -0.6826  0.7188
  127MOL    H9648228   3.984   6.770   4.959 -0.2692 -0.0589 -1.0648
  127MOL    C9748229   3.516   6.736   4.670  0.0366  0.8545 -0.6832
  127MOL    C9848230   3.383   6.672   4.636  0.8923 -0.0123  0.2036
  127MOL    C9948231   3.351   6.720   4.496  0.0472  0.4930  0.0119
  127MOL   C10048232   3.477   6.776   4.435 -0.5761 -0.0048  0.8621
  127MOL   C10148233   3.518   6.699   4.308 -0.2298 -0.1695  1.0382
  127MOL   C10248234   3.645   6.742   4.236  0.1929  0.1513  0.0488
  127MOL   C10348235   3.588   6.744   4.540 -0.2192 -0.4148  0.4550
  127MOL   H10448236   3.481   6.835   4.700  1.4465  0.6736  1.6422
  127MOL   H10548237   3.379   6.563   4.643  0.4795  0.0763  1.5520
  127MOL   H10648238   3.306   6.712   4.702  1.2504 -0.7810  1.0944
  127MOL   H10748239   3.295   6.648   4.437 -1.2475  0.0682  1.7410
  127MOL   H10848240   3.273   6.796   4.496 -0.7731 -0.3438  0.2203
  127MOL   H10948241   3.483   6.883   4.415  0.2458 -0.1250  0.4420
  127MOL   H11048242   3.532   6.594   4.332  2.5114  0.0085  0.4625
  127MOL   H11148243   3.429   6.728   4.252  1.5007  0.1553 -1.6572
  127MOL   H11248244   3.645   6.850   4.222  0.9044  0.2739  0.9935
  127MOL   H11348245   3.739   6.726   4.289  0.8227  2.3502 -0.3424
  127MOL   H11448246   3.641   6.651   4.515  1.0595  0.3823  0.1607
  127MOL   H11548247   3.656   6.828   4.544 -0.1617 -0.4892  0.9778
  127MOL   C11648248   3.664   6.666   4.109  0.2462 -0.2183 -0.5027
  127MOL   C11748249   3.573   6.710   3.997 -0.2000  0.0821 -0.3889
  127MOL   C11848250   3.644   6.708   3.863 -0.3921 -0.1663 -1.3905
  127MOL   C11948251   3.789   6.663   3.891  0.3814  0.0332  0.6601
  127MOL   C12048252   3.890   6.740   3.805  0.4434 -0.0481  0.4299
  127MOL   C12148253   3.902   6.692   3.660 -0.4935  0.8924  0.0558
  127MOL   C12248254   3.801   6.692   4.040  0.3371  0.2621 -0.2718
  127MOL   H12348255   3.652   6.559   4.125 -0.7489 -0.5060 -2.9007
  127MOL   H12448256   3.561   6.818   4.007 -0.3369 -0.0641  1.0746
  127MOL   H12548257   3.477   6.660   3.989 -0.3072  0.2199  0.0015
  127MOL   H12648258   3.641   6.804   3.812  0.4720 -0.0077 -1.1437
  127MOL   H12748259   3.594   6.639   3.795  0.0459 -0.8726 -1.0004
  127MOL   H12848260   3.790   6.556   3.873  2.0819  0.1356  0.0591
  127MOL   H12948261   3.989   6.720   3.847  0.5935  0.0506  0.1229
  127MOL   H13048262   3.871   6.847   3.816  2.9196  0.7583 -2.4403
  127MOL   H13148263   3.911   6.586   3.682 -2.4806  0.7618  0.3267
  127MOL   H13248264   3.990   6.734   3.611  0.2928  0.0872  0.7620
  127MOL   H13348265   3.884   6.636   4.082 -0.6642  1.2197  3.1120
  127MOL   H13448266   3.823   6.798   4.050  2.3793 -0.0731 -1.0208
  127MOL   C13548267   3.785   6.702   3.558  0.2675  1.2431  0.0182
  127MOL   C13648268   3.789   6.841   3.485 -0.0741  0.4877 -0.6182
  127MOL   C13748269   3.731   6.812   3.349  0.6569 -0.1149 -0.0019
  127MOL   C13848270   3.694   6.664   3.348 -0.7533 -0.1480  0.0128
  127MOL   C13948271   3.544   6.642   3.361 -0.2665  0.5630  0.3283
  127MOL   C14048272   3.493   6.498   3.351 -0.1870 -0.1338 -0.2461
  127MOL   C14148273   3.787   6.600   3.447  0.8576 -0.0634  0.4301
  127MOL   H14248274   3.688   6.692   3.607 -0.3589 -1.6978 -1.6824
  127MOL   H14348275   3.742   6.919   3.544  0.0363 -0.2123  0.4050
  127MOL   H14448276   3.893   6.866   3.464  0.4445 -0.6270  0.5416
  127MOL   H14548277   3.654   6.888   3.339  0.5958 -0.4907 -2.7871
  127MOL   H14648278   3.811   6.835   3.278  0.3254  2.6986  0.4839
  127MOL   H14748279   3.724   6.627   3.250  0.4077  1.3259 -0.2005
  127MOL   H14848280   3.484   6.695   3.287  0.2216 -0.2258 -0.6512
  127MOL   H14948281   3.517   6.687   3.456 -1.2718 -0.0454  0.3443
  127MOL   H15048282   3.561   6.451   3.422  0.5102 -1.7266 -1.9267
  127MOL   H15148283   3.393   6.488   3.392 -0.0604  1.2480  0.4023
  127MOL   H15248284   3.892   6.587   3.420  0.8481 -0.8201  0.7338
  127MOL   H15348285   3.751   6.498   3.463 -0.3361  0.5089  1.4561
  127MOL   C15448286   3.495   6.431   3.213  0.9661 -0.2477  0.5133
  127MOL   C15548287   3.419   6.512   3.105 -0.2908  0.3203  0.4817
  127MOL   C15648288   3.360   6.406   3.007 -0.1511  0.0742 -0.6521
  127MOL   C15748289   3.370   6.276   3.083 -0.7285 -0.1887  0.0960
  127MOL   C15848290   3.241   6.194   3.080  0.3645  0.1964  0.5235
  127MOL   C15948291   3.207   6.125   2.939  0.6638 -0.1413 -0.2983
  127MOL   C16048292   3.420   6.300   3.221 -0.2809  0.7914  0.2475
  127MOL   H16148293   3.593   6.398   3.178  2.1171  0.0958  3.2208
  127MOL   H16248294   3.339   6.559   3.161  0.9365  0.6832  1.9479
  127MOL   H16348295   3.483   6.588   3.061  0.2677  1.4451  3.1957
  127MOL   H16448296   3.259   6.441   2.986 -0.3546  1.7429  2.7116
  127MOL   H16548297   3.426   6.387   2.922 -0.6966 -2.0904 -0.6181
  127MOL   H16648298   3.453   6.220   3.040 -0.0713 -0.3639  1.5741
  127MOL   H16748299   3.160   6.259   3.113 -0.2916 -0.8324  0.9668
  127MOL   H16848300   3.249   6.119   3.159  1.4767 -2.3350 -1.9205
  127MOL   H16948301   3.305   6.100   2.897  0.1351 -1.6919 -0.6636
  127MOL   H17048302   3.143   6.037   2.953  0.6451 -0.1766 -0.6027
  127MOL   H17148303   3.492   6.223   3.247 -1.0463 -0.3264 -0.8509
  127MOL   H17248304   3.345   6.302   3.300  0.5905  0.9935  1.0808
  127MOL   C17348305   3.123   6.207   2.842 -0.2004 -1.1437  0.4217
  127MOL   C17448306   3.128   6.156   2.696 -0.5850  0.6697  0.1741
  127MOL   C17548307   3.001   6.206   2.636  0.4910 -0.1513 -0.6145
  127MOL   C17648308   2.904   6.196   2.747  0.4783  0.4109 -0.2115
  127MOL   C17748309   2.837   6.056   2.740 -0.2830 -0.2894 -0.4933
  127MOL   C17848310   2.719   6.051   2.837  0.0253 -0.6232  0.4250
  127MOL   C17948311   2.979   6.229   2.879 -0.5346 -0.0908  0.0852
  127MOL   H18048312   3.169   6.306   2.843 -0.2058 -1.1297 -0.3376
  127MOL   H18148313   3.131   6.048   2.700 -0.6972  0.5986 -1.4731
  127MOL   H18248314   3.208   6.180   2.626  0.5178 -0.1374  1.1417
  127MOL   H18348315   3.008   6.309   2.601 -1.5054  0.0306 -0.5146
  127MOL   H18448316   2.975   6.143   2.551 -1.1186  0.8534 -0.8842
  127MOL   H18548317   2.829   6.274   2.731 -0.9065 -0.5808  1.3732
  127MOL   H18648318   2.902   5.972   2.763  2.1337  1.0182 -2.3786
  127MOL   H18748319   2.804   6.040   2.638  0.9474  2.3317 -1.3631
  127MOL   H18848320   2.650   6.132   2.813 -0.1331 -1.1123 -0.7862
  127MOL   H18948321   2.743   6.064   2.943  1.1870 -0.8710  0.2012
  127MOL   H19048322   2.935   6.179   2.965  2.0205 -0.4411  1.2322
  127MOL   H19148323   2.964   6.335   2.902  2.6355 -0.1652  2.9118
  127MOL   C19248324   2.627   5.922   2.822  0.2247 -0.4208  0.5399
  127MOL   C19348325   2.540   5.923   2.697  0.8937  0.1704 -0.6912
  127MOL   C19448326   2.441   5.814   2.731  0.7148  0.0048 -0.2317
  127MOL   C19548327   2.404   5.837   2.874 -0.2369 -0.6799 -0.8161
  127MOL   C19648328   2.364   5.707   2.952 -0.4219  0.2669  0.5082
  127MOL   C19748329   2.234   5.639   2.898  0.1636  0.1582 -0.5748
  127MOL   C19848330   2.527   5.908   2.939  0.1455  0.1812  0.3854
  127MOL   H19948331   2.684   5.828   2.822  0.7024 -0.1308  0.4910
  127MOL   H20048332   2.490   6.020   2.688  1.0478  0.6167  2.7709
  127MOL   H20148333   2.607   5.902   2.614  1.0808 -1.8655 -0.0513
  127MOL   H20248334   2.490   5.716   2.736 -0.5624 -0.6580 -0.4800
  127MOL   H20348335   2.359   5.810   2.660  0.9580  0.7467 -0.5540
  127MOL   H20448336   2.316   5.901   2.886  0.7049  0.9465 -2.3258
  127MOL   H20548337   2.349   5.739   3.055 -0.3932 -0.0131  0.5994
  127MOL   H20648338   2.445   5.635   2.954 -1.7437 -1.2546  0.1178
  127MOL   H20748339   2.230   5.642   2.790 -2.2008  0.9245 -0.4904
  127MOL   H20848340   2.140   5.689   2.923 -0.6135 -1.8375  0.5862
  127MOL   H20948341   2.587   5.857   3.015  1.8651 -0.7044 -1.5402
  127MOL   H21048342   2.506   6.008   2.977  2.1909 -0.1572  2.5630
  127MOL   C21148343   2.217   5.497   2.965 -0.2745 -0.0582 -0.4570
  127MOL   C21248344   2.118   5.408   2.885  0.0840 -0.6562 -0.1898
  127MOL   C21348345   2.037   5.348   3.002  0.4713 -0.6625  0.1057
  127MOL   C21448346   2.117   5.368   3.135  0.0954  0.0450 -0.1866
  127MOL   C21548347   2.027   5.373   3.254 -0.1746 -0.1357 -0.2825
  127MOL   C21648348   2.114   5.368   3.384 -0.3024 -0.0012 -0.0917
  127MOL   C21748349   2.177   5.504   3.109  0.1679 -0.3849  0.2300
  127MOL   H21848350   2.314   5.447   2.960 -0.1283 -0.0573  1.9151
  127MOL   H21948351   2.054   5.464   2.817  0.0248  0.0623  0.4530
  127MOL   H22048352   2.179   5.330   2.837  0.6552 -0.2235 -0.1776
  127MOL   H22148353   1.946   5.407   2.990  1.2684  0.5528 -0.0252
  127MOL   H22248354   2.015   5.242   2.990 -0.8690 -0.3010 -0.7144
  127MOL   H22348355   2.196   5.294   3.144  0.8334  0.9826  1.1217
  127MOL   H22448356   1.965   5.284   3.254 -1.5940  0.8435  0.2351
  127MOL   H22548357   1.970   5.466   3.250  0.9054  0.5726  0.1970
  127MOL   H22648358   2.140   5.263   3.402  1.1065  0.1634 -1.1271
  127MOL   H22748359   2.211   5.415   3.369 -0.7608  0.7882 -0.5941
  127MOL   H22848360   2.268   5.524   3.166 -0.4261  0.0228  1.0677
  127MOL   H22948361   2.112   5.587   3.139 -0.7536 -0.0379 -2.5556
  127MOL   C23048362   2.059   5.433   3.512  0.4131 -0.0212 -0.3640
  127MOL   C23148363   2.132   5.404   3.641  0.4375 -0.5293  0.5344
  127MOL   C23248364   2.036   5.437   3.758  0.2811  0.7876 -0.6777
  127MOL   C23348365   1.888   5.430   3.692 -0.8718  0.6708  0.2505
  127MOL   C23448366   1.822   5.570   3.689  0.0838 -0.4435  0.1090
  127MOL   C23548367   1.677   5.578   3.641 -0.1743  0.1776 -0.3600
  127MOL   C23648368   1.917   5.382   3.546 -0.1656 -0.2479  0.0508
  127MOL   H23748369   2.055   5.541   3.499  0.0131  0.3337  2.4696
  127MOL   H23848370   2.157   5.298   3.636  2.0784 -0.0901 -1.0845
  127MOL   H23948371   2.226   5.460   3.638 -0.5452  1.0890 -0.3997
  127MOL   H24048372   2.053   5.537   3.798  1.4521  0.1662  0.4064
  127MOL   H24148373   2.054   5.365   3.839 -0.6168 -0.0337 -1.1914
  127MOL   H24248374   1.823   5.356   3.740  1.1369  0.3658  2.5758
  127MOL   H24348375   1.880   5.640   3.628 -1.2349 -0.0394 -0.7158
  127MOL   H24448376   1.828   5.612   3.789 -1.7071 -0.5309  0.2733
  127MOL   H24548377   1.671   5.534   3.542 -0.1825  0.0530 -0.3033
  127MOL   H24648378   1.616   5.520   3.710 -2.2022  0.7061 -1.6617
  127MOL   H24748379   1.842   5.423   3.478  0.2200  1.2005  0.4814
  127MOL   H24848380   1.915   5.273   3.542  1.8299 -0.2439 -1.9579
  127MOL   C24948381   1.621   5.727   3.635 -0.2295 -0.2807  0.2316
  127MOL   C25048382   1.683   5.790   3.508 -0.1571 -0.0224  0.1775
  127MOL   C25148383   1.562   5.845   3.426 -0.5056 -0.4709 -0.1954
  127MOL   C25248384   1.439   5.761   3.473  0.1706 -0.3336 -0.3174
  127MOL   C25348385   1.311   5.843   3.456  0.3140  0.0571  0.2116
  127MOL   C25448386   1.191   5.771   3.520  0.5055 -0.4704  0.4361
  127MOL   C25548387   1.470   5.732   3.620 -0.2006  0.1972  0.6539
  127MOL   H25648388   1.649   5.769   3.731 -2.3858 -0.4984  0.9976
  127MOL   H25748389   1.743   5.869   3.555 -2.2000  0.7120  1.6150
  127MOL   H25848390   1.757   5.735   3.450 -0.1453  0.4992 -0.2951
  127MOL   H25948391   1.573   5.827   3.319  1.0025  0.5969 -0.2278
  127MOL   H26048392   1.541   5.951   3.443 -2.2271 -0.7243 -0.6001
  127MOL   H26148393   1.433   5.671   3.412  0.8919 -2.2983  2.4085
  127MOL   H26248394   1.296   5.862   3.350  1.4198  1.3184  0.2772
  127MOL   H26348395   1.321   5.942   3.500 -0.5866 -0.3090  1.2629
  127MOL   H26448396   1.197   5.746   3.626  1.5633  1.1050  0.7773
  127MOL   H26548397   1.172   5.680   3.463  1.3651  0.0805 -0.7563
  127MOL   H26648398   1.419   5.644   3.659 -1.2058  1.3045  1.8863
  127MOL   H26748399   1.438   5.815   3.682 -0.0452  2.3294 -2.0638
  127MOL   C26848400   1.064   5.855   3.496 -0.1182  0.2951  0.6747
  127MOL   C26948401   1.048   5.963   3.599 -0.0929 -0.2539  0.2343
  127MOL   C27048402   0.897   5.987   3.599  0.3609  0.1597 -0.1815
  127MOL   C27148403   0.832   5.892   3.501 -0.3346 -0.0763 -0.0395
  127MOL   C27248404   0.696   5.837   3.553  0.3054 -0.1248  0.0881
  127MOL   C27348405   0.596   5.953   3.548  0.0406 -0.0064  0.0660
  127MOL   C27448406   0.933   5.779   3.486  0.7471  0.3556 -0.3789
  127MOL   H27548407   1.085   5.906   3.402  2.6698 -0.6338  0.7597
  127MOL   H27648408   1.080   5.926   3.696  1.3824  1.0517  0.2730
  127MOL   H27748409   1.110   6.050   3.576  2.1577 -2.1208 -1.0396
  127MOL   H27848410   0.861   5.983   3.702 -0.0111 -1.3313 -0.3537
  127MOL   H27948411   0.884   6.087   3.556 -0.5454  0.1484  0.0614
  127MOL   H28048412   0.828   5.947   3.407 -0.1503 -0.7277 -0.4332
  127MOL   H28148413   0.699   5.787   3.650  0.7609  0.1532  0.2165
  127MOL   H28248414   0.682   5.754   3.484 -0.9746  0.0280  0.1521
  127MOL   H28348415   0.641   6.048   3.577  0.5142  0.0532 -0.8340
  127MOL   H28448416   0.563   5.959   3.444 -1.1277 -1.4662  0.3373
  127MOL   H28548417   0.927   5.716   3.575  0.8386  1.0252  0.1115
  127MOL   H28648418   0.920   5.739   3.386  0.3865  1.3914 -0.7548
  127MOL   C28748419   0.469   5.936   3.627 -0.1655 -0.5396 -0.7965
  127MOL   C28848420   0.479   5.948   3.781  0.1278 -0.4078 -0.3049
  127MOL   C28948421   0.350   6.007   3.832  0.9379 -0.1112 -0.1547
  127MOL   C29048422   0.269   6.041   3.707  0.4607 -0.3567 -0.1468
  127MOL   C29148423   0.180   6.162   3.715 -0.0434  0.1153  0.4661
  127MOL   C29248424   0.070   6.147   3.814 -0.4344  0.3856 -0.3645
  127MOL   C29348425   0.372   6.046   3.596  0.5616 -0.0406 -0.8943
  127MOL   H29448426   0.415   5.842   3.611 -4.6335  1.4220  2.0010
  127MOL   H29548427   0.492   5.849   3.825 -0.2861  0.9316  2.9976
  127MOL   H29648428   0.555   6.020   3.810  1.7935 -2.4334  0.4851
  127MOL   H29748429   0.374   6.098   3.887  2.7848 -0.2562 -0.6718
  127MOL   H29848430   0.298   5.931   3.890 -0.2427  0.1818 -0.8289
  127MOL   H29948431   0.198   5.961   3.685 -0.0806 -0.1982  1.0155
  127MOL   H30048432   0.124   6.185   3.624  0.2844 -2.1112 -0.3282
  127MOL   H30148433   0.244   6.250   3.717  0.5155 -0.3130  1.5615
  127MOL   H30248434   0.119   6.146   3.912  1.1736  1.0747 -1.1508
  127MOL   H30348435   0.010   6.056   3.800 -1.4516  0.7582  1.4075
  127MOL   H30448436   0.437   6.132   3.581  0.8862  0.1900  1.5755
  127MOL   H30548437   0.332   6.041   3.495 -0.7104 -0.6811 -0.3692
  127MOL   C30648438   7.612   6.258   3.803  0.3347  0.3719 -0.4274
  127MOL   C30748439   7.460   6.226   3.837 -0.0621  0.6105  0.7020
  127MOL   C30848440   7.403   6.345   3.908  0.3778 -0.2362  0.1799
  127MOL   C30948441   7.517   6.448   3.911  0.3328 -0.5688 -0.6552
  127MOL   C31048442   7.514   6.521   4.044  0.3483 -0.3394 -0.2739
  127MOL   C31148443   7.588   6.659   4.051  0.6977  0.2705 -0.0977
  127MOL   C31248444   0.003   6.371   3.901 -0.2285 -0.7621  0.0358
  127MOL   H31348445   7.608   6.300   3.702 -1.5471  2.6395  0.5287
  127MOL   H31448446   7.394   6.183   3.763 -0.0809  1.8520 -0.0158
  127MOL   H31548447   7.465   6.145   3.910  1.3950 -0.3944 -0.4668
  127MOL   H31648448   7.318   6.370   3.844  0.9147 -0.5272 -0.6628
  127MOL   H31748449   7.366   6.325   4.008  0.3312  0.0937  0.2301
  127MOL   H31848450   7.507   6.519   3.830  1.3448 -1.3017 -1.4386
  127MOL   H31948451   7.411   6.537   4.076 -0.3008 -0.5460 -2.2056
  127MOL   H32048452   7.552   6.451   4.118  0.0586 -0.2741 -0.0625
  127MOL   H32148453   7.530   6.737   4.001 -0.5493 -0.0413  0.8426
  127MOL   H32248454   0.036   6.658   3.999  1.2295  2.2995  0.8137
  127MOL   H32348455   0.030   6.328   3.998 -1.9697 -1.2559  0.3090
  127MOL   H32448456   0.083   6.434   3.862 -1.7376  1.6768  0.7179
  127MOL   C32548457   7.627   6.702   4.198  0.3987  0.4386  0.6074
  127MOL   C32648458   0.107   6.625   4.247  0.9306  0.0806  0.5211
  127MOL   C32748459   0.141   6.706   4.376  0.0366 -0.1373 -0.4434
  127MOL   C32848460   0.119   6.859   4.344  0.4459  0.4755  0.6277
  127MOL   C32948461   0.054   6.926   4.463  0.0454  0.2644  0.9634
  127MOL   C33048462   0.042   7.079   4.454 -0.3549 -0.1837 -1.0358
  127MOL   C33148463   0.023   6.844   4.220  0.2222 -0.8226  0.8199
  127MOL   H33248464   7.540   6.688   4.263  0.0868 -0.9610 -0.1008
  127MOL   H33348465   0.184   6.635   4.171 -0.4529  1.4648 -0.7226
  127MOL   H33448466   0.083   6.519   4.252  2.3390 -0.4419 -2.7656
  127MOL   H33548467   0.068   6.675   4.451 -0.7331 -0.3890 -1.2814
  127MOL   H33648468   0.236   6.686   4.425  0.1317  1.2582 -0.0328
  127MOL   H33748469   0.211   6.905   4.309  0.6674  0.2835  0.9496
  127MOL   H33848470   7.601   6.883   4.478  0.7691 -1.7256  0.3019
  127MOL   H33948471   0.112   6.904   4.553  2.0008 -1.0337 -0.5854
  127MOL   H34048472   0.141   7.124   4.447 -1.5183  2.4421 -1.1412
  127MOL   H34148473   7.645   7.110   4.359 -1.9825  2.1791  0.4457
  127MOL   H34248474   0.074   6.870   4.127 -1.4627 -2.5702 -0.6442
  127MOL   H34348475   7.585   6.912   4.228  0.5607 -0.1834 -0.7934
  127MOL   C34448476   7.594   7.133   4.567  0.2699 -0.2611  0.1161
  127MOL   C34548477   7.612   7.287   4.579  0.2905  0.3285 -0.0542
  127MOL   C34648478   7.539   7.327   4.706 -0.2621  1.5913  0.1676
  127MOL   C34748479   7.572   7.202   4.804 -0.7609  0.7682  0.9464
  127MOL   C34848480   7.459   7.168   4.903 -0.4924 -0.8932  0.3439
  127MOL   C34948481   7.415   7.287   4.990  0.3390 -0.1585  0.1787
  127MOL   C35048482   7.625   7.085   4.715  0.3842 -0.1729 -0.0241
  127MOL   H35148483   7.487   7.121   4.547  0.3208 -0.8454  0.1917
  127MOL   H35248484   7.564   7.338   4.496 -1.1611 -0.2181  0.4259
  127MOL   H35348485   0.067   7.323   4.589 -0.0242  0.6768  2.0927
  127MOL   H35448486   7.568   7.430   4.725 -1.8726  2.0962 -0.0217
  127MOL   H35548487   7.431   7.335   4.690 -0.1312  0.5181 -1.3911
  127MOL   H35648488   0.014   7.230   4.860 -0.5664 -0.4921  1.2843
  127MOL   H35748489   7.375   7.115   4.859 -2.4560  0.8011  1.9217
  127MOL   H35848490   7.497   7.095   4.975  2.9716  1.2155  0.7853
  127MOL   H35948491   7.395   7.369   4.921  0.5603  0.7151  1.1524
  127MOL   H36048492   7.507   7.304   5.046 -0.2704 -1.1864  1.5281
  127MOL   H36148493   0.084   7.072   4.735  0.6524  1.6982 -0.0688
  127MOL   H36248494   7.579   6.997   4.758  0.0351  0.4979  0.9914
  127MOL   C36348495   7.298   7.261   5.084 -0.3482  0.4313 -0.4176
  127MOL   C36448496   7.155   7.261   5.026  0.3783  0.0858 -0.6066
  127MOL   C36548497   7.060   7.309   5.147 -0.5315  0.6784  0.3346
  127MOL   C36648498   7.150   7.351   5.261 -0.2078 -0.1368  0.3548
  127MOL   C36748499   7.096   7.475   5.331  0.4273 -0.0471 -0.8732
  127MOL   C36848500   7.180   7.531   5.445 -0.1967 -0.0305 -0.3696
  127MOL   C36948501   7.290   7.369   5.189  0.1538  0.6811 -0.1068
  127MOL   H37048502   7.312   7.167   5.138  1.3616  1.4023  0.8937
  127MOL   H37148503   7.160   7.334   4.946 -4.3371  0.5656 -0.5946
  127MOL   H37248504   7.121   7.162   4.994 -0.3809  0.2093 -0.2092
  127MOL   H37348505   6.995   7.390   5.114 -0.1592  0.2131 -1.5796
  127MOL   H37448506   7.010   7.224   5.194  0.5245  0.4886  1.1267
  127MOL   H37548507   7.168   7.273   5.335  1.7270 -0.0724 -0.0063
  127MOL   H37648508   7.063   7.553   5.262 -2.2069  0.3452  0.7440
  127MOL   H37748509   7.000   7.459   5.381  1.1427 -1.0464  0.2141
  127MOL   H37848510   7.267   7.576   5.398  1.0305 -1.5390  0.3900
  127MOL   H37948511   7.235   7.475   5.521 -0.1738  1.3596  0.6714
  127MOL   H38048512   7.288   7.463   5.132  1.0156  0.2417 -0.8763
  127MOL   H38148513   7.382   7.372   5.247 -0.0995 -1.3752  0.4180
  127MOL   H38248514   7.135   7.616   5.496 -0.1641 -1.5663  2.3251
  128MOL     C148515   2.142   6.300   3.727 -0.4624 -0.5622  0.0220
  128MOL     C248516   2.043   6.368   3.819 -0.3588 -0.0185  0.3167
  128MOL     C348517   2.130   6.459   3.910 -0.4540  0.3798  0.3095
  128MOL     C448518   2.255   6.489   3.817 -0.4211  1.0579  0.6049
  128MOL     C548519   2.399   6.476   3.887  0.0933  0.3034  0.4023
  128MOL     C648520   2.527   6.516   3.806 -0.4122  0.2191 -0.2786
  128MOL     C748521   2.242   6.405   3.691 -0.0895  0.3131 -0.4888
  128MOL     H848522   2.200   6.230   3.786 -0.7820 -3.1837 -2.6666
  128MOL     H948523   1.992   6.292   3.879  0.0193 -1.0127 -0.5957
  128MOL    H1048524   1.969   6.421   3.760 -0.1099  1.0847  0.9973
  128MOL    H1148525   2.084   6.554   3.938  0.8001  1.0497  0.1307
  128MOL    H1248526   2.149   6.397   3.997 -1.9135  2.6464  2.2787
  128MOL    H1348527   2.247   6.591   3.780 -0.3968  0.5168 -0.9502
  128MOL    H1448528   2.396   6.547   3.970 -1.0803  0.2274  0.4322
  128MOL    H1548529   2.413   6.373   3.921 -2.5142  0.0129  0.6860
  128MOL    H1648530   2.525   6.444   3.725 -2.7757  1.5496 -1.4390
  128MOL    H1748531   2.514   6.612   3.756 -0.8502  0.3052 -0.0012
  128MOL    H1848532   2.212   6.461   3.602 -0.8713  0.9464  0.1619
  128MOL    H1948533   2.335   6.359   3.656  0.3009  0.5982  0.1813
  128MOL    H2048534   2.091   6.249   3.645 -0.8444 -1.5328  0.8602
  128MOL    C2148535   2.665   6.510   3.881 -0.4477 -0.0917  0.6634
  128MOL    C2248536   2.782   6.538   3.787  0.4732  0.3464 -0.6809
  128MOL    C2348537   2.894   6.593   3.878  0.2576 -0.4389 -0.3549
  128MOL    C2448538   2.830   6.628   4.005  0.0885  0.5227  0.3475
  128MOL    C2548539   2.878   6.759   4.075  0.2526  0.0316  0.0273
  128MOL    C2648540   2.832   6.785   4.217  0.8496 -0.3371  0.0338
  128MOL    C2748541   2.681   6.610   3.992  0.0153  0.5330 -0.0408
  128MOL    H2848542   2.677   6.419   3.941  0.7664  0.8496  1.8993
  128MOL    H2948543   2.816   6.459   3.719 -2.3493  0.6662 -2.5352
  128MOL    H3048544   2.755   6.623   3.725  0.9905  0.5638 -0.6114
  128MOL    H3148545   2.969   6.515   3.897  2.9934  2.0980 -0.3370
  128MOL    H3248546   2.938   6.677   3.824  1.1686  0.5811  1.9286
  128MOL    H3348547   2.867   6.545   4.064  0.7889  0.0475 -0.7405
  128MOL    H3448548   2.859   6.841   4.006 -3.2645 -0.7471 -0.0349
  128MOL    H3548549   2.986   6.743   4.076 -0.0023 -1.9913 -2.2597
  128MOL    H3648550   2.834   6.691   4.272 -2.0864 -1.0334 -0.9441
  128MOL    H3748551   2.725   6.804   4.210  1.1622  1.9821  1.0509
  128MOL    H3848552   2.635   6.574   4.083 -2.9488 -0.5887 -1.9148
  128MOL    H3948553   2.654   6.711   3.959  0.8844  1.2877  1.5005
  128MOL    C4048554   2.917   6.903   4.273  0.0026  0.4815 -0.5442
  128MOL    C4148555   2.894   7.034   4.198  0.0222 -0.3143  0.6330
  128MOL    C4248556   2.890   7.151   4.302  0.1346  0.3462  0.7468
  128MOL    C4348557   2.922   7.098   4.438 -0.4771 -0.6302  0.3409
  128MOL    C4448558   3.067   7.117   4.487 -0.0524 -0.2573 -0.3322
  128MOL    C4548559   3.092   7.067   4.629 -0.0550 -0.5441  0.1277
  128MOL    C4648560   2.892   6.944   4.424 -0.4228 -0.0898  0.6740
  128MOL    H4748561   3.023   6.885   4.255 -0.3143 -1.8841 -0.0919
  128MOL    H4848562   2.801   7.038   4.140  0.3713 -1.8594 -0.0789
  128MOL    H4948563   2.970   7.045   4.120 -0.9694 -0.2513 -0.3347
  128MOL    H5048564   2.960   7.227   4.268  0.8640 -0.7459 -0.2699
  128MOL    H5148565   2.794   7.201   4.299  0.6014  1.2331 -3.3924
  128MOL    H5248566   2.846   7.133   4.508  0.2580  0.3990  0.6437
  128MOL    H5348567   3.149   7.087   4.421  0.5607  0.6022  0.0326
  128MOL    H5448568   3.083   7.224   4.493  0.1591 -0.3291  0.5857
  128MOL    H5548569   3.104   6.959   4.640  0.6691 -0.3083  1.8674
  128MOL    H5648570   3.003   7.090   4.687 -1.1262 -0.6450 -1.4316
  128MOL    H5748571   2.938   6.880   4.500  3.5061  1.9809  0.2174
  128MOL    H5848572   2.786   6.929   4.442 -0.9352  2.5165 -0.0134
  128MOL    C5948573   3.205   7.151   4.703  0.4930 -0.6508  0.3234
  128MOL    C6048574   3.221   7.121   4.848 -0.4971  0.4649 -0.3876
  128MOL    C6148575   3.359   7.174   4.884 -0.4923  0.0874  0.1696
  128MOL    C6248576   3.443   7.149   4.760 -0.1205 -0.3654 -0.1861
  128MOL    C6348577   3.547   7.259   4.732 -0.0932 -0.1428  0.3243
  128MOL    C6448578   3.637   7.246   4.613 -0.2139 -0.3543  0.4841
  128MOL    C6548579   3.347   7.141   4.641  0.2251 -0.2845  0.3783
  128MOL    H6648580   3.181   7.257   4.688  1.5347 -0.2552  1.3905
  128MOL    H6748581   3.142   7.154   4.914 -1.8262  0.8608 -2.1494
  128MOL    H6848582   3.219   7.013   4.865 -0.5229  0.5996  0.4691
  128MOL    H6948583   3.347   7.280   4.905 -1.1726  0.0588 -0.0533
  128MOL    H7048584   3.405   7.128   4.972  0.2349 -0.2901 -0.4010
  128MOL    H7148585   3.484   7.048   4.767 -1.6099 -0.9715  0.0970
  128MOL    H7248586   3.595   7.261   4.830 -1.0953 -0.3296  0.8333
  128MOL    H7348587   3.498   7.356   4.727  0.0600  0.0389  1.9077
  128MOL    H7448588   3.582   7.270   4.522  0.5140  0.9969  0.3926
  128MOL    H7548589   3.708   7.329   4.606  0.5262 -0.8670  1.7413
  128MOL    H7648590   3.359   7.209   4.557  0.5696 -0.0170  0.6450
  128MOL    H7748591   3.360   7.035   4.619  2.2779 -0.2462  1.2094
  128MOL    C7848592   3.704   7.109   4.586  0.4517 -0.2354 -0.8575
  128MOL    C7948593   3.754   7.102   4.436  0.6135  0.7378 -0.0233
  128MOL    C8048594   3.872   7.000   4.434  0.3590  0.1296  0.2001
  128MOL    C8148595   3.930   6.986   4.574 -0.5599 -0.0003  1.0159
  128MOL    C8248596   4.087   6.993   4.582  0.5459 -0.2422  0.3321
  128MOL    C8348597   4.143   6.958   4.718 -0.7829 -0.3146  0.3550
  128MOL    C8448598   3.843   7.092   4.649  0.1133 -0.3416 -0.4370
  128MOL    H8548599   3.641   7.024   4.612  0.4131  0.2435  0.6868
  128MOL    H8648600   3.678   7.073   4.364  0.4122 -1.0745  0.8870
  128MOL    H8748601   3.794   7.195   4.396  2.0481  0.7096  1.3084
  128MOL    H8848602   3.818   6.909   4.407 -0.0639 -0.8457  3.9685
  128MOL    H8948603   3.950   7.031   4.364  0.9340  0.2267  0.8781
  128MOL    H9048604   3.905   6.889   4.618  1.7984 -0.9728  0.3178
  128MOL    H9148605   4.128   7.086   4.545 -1.2205  1.1877  1.8927
  128MOL    H9248606   4.124   6.927   4.503  2.3437  1.0966  0.0302
  128MOL    H9348607   4.103   6.859   4.739 -1.2675 -0.5764 -1.7087
  128MOL    H9448608   4.100   7.031   4.786 -3.1354 -3.5304  2.4467
  128MOL    H9548609   3.899   7.186   4.643 -0.9409  0.3861  0.8417
  128MOL    H9648610   3.837   7.077   4.756  0.9864  0.0927 -0.3229
  128MOL    C9748611   4.295   6.942   4.738  0.4428  0.2312  0.0349
  128MOL    C9848612   4.354   6.828   4.665  0.1908 -0.2816  0.0488
  128MOL    C9948613   4.480   6.790   4.750  0.8994  0.0316  0.3227
  128MOL   C10048614   4.482   6.874   4.878  0.6785  0.6093  0.7400
  128MOL   C10148615   4.538   6.817   5.008  0.3112  0.0236  0.1645
  128MOL   C10248616   4.687   6.834   5.030 -0.1684 -0.2986  0.1211
  128MOL   C10348617   4.335   6.911   4.883 -0.0301 -0.1419  0.9872
  128MOL   H10448618   4.348   7.036   4.719 -2.3428  1.7810 -0.2771
  128MOL   H10548619   4.284   6.744   4.677  1.3338 -1.1982  0.4217
  128MOL   H10648620   4.367   6.847   4.559 -2.0976 -0.1396 -0.2315
  128MOL   H10748621   4.475   6.687   4.784 -0.8729 -0.5622 -1.6374
  128MOL   H10848622   4.568   6.785   4.686  0.1885  0.3308 -0.6889
  128MOL   H10948623   4.528   6.970   4.851 -0.7475  1.1745  0.2369
  128MOL   H11048624   4.498   6.863   5.098 -0.2795  2.1935 -1.1785
  128MOL   H11148625   4.509   6.715   5.035 -1.2280  0.4232  0.0442
  128MOL   H11248626   4.698   6.942   5.027 -1.1195 -0.0714  3.4055
  128MOL   H11348627   4.717   6.785   5.123 -1.5153 -1.4444 -0.0312
  128MOL   H11448628   4.266   6.837   4.923 -0.9292 -0.1331 -0.5070
  128MOL   H11548629   4.329   6.999   4.947  0.0867 -0.0288  0.8432
  128MOL   C11648630   4.774   6.764   4.920  0.8310  0.4963 -0.1511
  128MOL   C11748631   4.919   6.802   4.942 -0.0336 -0.3753 -0.3183
  128MOL   C11848632   4.990   6.698   4.854 -1.0219  0.0127  0.3157
  128MOL   C11948633   4.890   6.586   4.827 -0.6068 -0.1300 -0.7084
  128MOL   C12048634   4.951   6.446   4.849 -0.2104 -0.6133  0.1446
  128MOL   C12148635   4.857   6.347   4.789  0.1573 -0.0849 -0.7703
  128MOL   C12248636   4.768   6.612   4.912  0.8072 -0.1491 -0.1638
  128MOL   H12348637   4.746   6.802   4.822  2.2269 -1.2545 -1.2673
  128MOL   H12448638   4.931   6.789   5.050 -1.2174 -0.3964 -0.1813
  128MOL   H12548639   4.938   6.905   4.912  0.6688 -0.2290  0.6071
  128MOL   H12648640   5.091   6.675   4.889  0.0935  2.5873 -1.0452
  128MOL   H12748641   5.011   6.744   4.757 -0.8908 -1.5172 -0.4010
  128MOL   H12848642   4.865   6.591   4.720 -1.2330 -2.2913 -0.6947
  128MOL   H12948643   4.965   6.425   4.956  1.2917 -3.0162 -0.4843
  128MOL   H13048644   5.048   6.440   4.799  0.1610 -0.2001  0.7997
  128MOL   H13148645   4.825   6.375   4.689 -3.8377  2.7671  1.1502
  128MOL   H13248646   4.757   6.352   4.832  0.5388 -1.3077  0.2747
  128MOL   H13348647   4.680   6.580   4.856 -0.9327  1.5653  1.5108
  128MOL   H13448648   4.783   6.564   5.009  0.8522  1.4714  0.6480
  128MOL   C13548649   4.909   6.203   4.793  0.1572  0.0702  0.5178
  128MOL   C13648650   4.813   6.102   4.724 -0.0408  0.1254 -0.2858
  128MOL   C13748651   4.895   5.983   4.700  0.5802 -0.2747  0.0545
  128MOL   C13848652   5.041   6.032   4.669 -0.5079  0.2137  0.5305
  128MOL   C13948653   5.154   5.941   4.723 -0.1137 -0.0460 -0.5599
  128MOL   C14048654   5.194   5.835   4.620 -0.0044 -0.5933 -0.2285
  128MOL   C14148655   5.049   6.172   4.730  0.7891  0.0478  0.4502
  128MOL   H14248656   4.914   6.166   4.896  0.1072 -1.9151 -0.1772
  128MOL   H14348657   4.725   6.078   4.783  0.9962 -1.2766  0.7378
  128MOL   H14448658   4.775   6.149   4.633  3.1961 -0.1073 -1.8549
  128MOL   H14548659   4.892   5.916   4.786 -1.2968  0.2076  0.3734
  128MOL   H14648660   4.862   5.920   4.618 -0.8938  0.5461  0.0059
  128MOL   H14748661   5.051   6.051   4.562 -0.5074  1.9824  0.8345
  128MOL   H14848662   5.124   5.889   4.814 -0.5347  0.3013 -0.4988
  128MOL   H14948663   5.231   6.012   4.754 -1.2624  0.7751  0.4454
  128MOL   H15048664   5.115   5.771   4.579 -1.0524 -0.8008  2.0419
  128MOL   H15148665   5.223   5.884   4.527 -1.7667  0.8711 -0.0310
  128MOL   H15248666   5.062   6.238   4.645 -1.6233 -0.1957 -0.1380
  128MOL   H15348667   5.124   6.178   4.809  1.0176  1.9941  0.1113
  128MOL   C15448668   5.306   5.740   4.672 -0.3357 -0.8257 -0.0550
  128MOL   C15548669   5.437   5.802   4.712  0.1141  0.6107 -0.3066
  128MOL   C15648670   5.540   5.694   4.703  0.6623 -0.5806 -0.5408
  128MOL   C15748671   5.484   5.587   4.609  0.1468  0.2335  0.2016
  128MOL   C15848672   5.582   5.555   4.493 -0.4958 -0.8778 -0.1447
  128MOL   C15948673   5.714   5.506   4.528 -0.7327  0.9018  0.1400
  128MOL   C16048674   5.352   5.639   4.563  0.5347  0.0281  0.3757
  128MOL   H16148675   5.259   5.687   4.755  1.1307  1.3098  2.2075
  128MOL   H16248676   5.467   5.883   4.645 -0.5147 -0.1227 -1.4929
  128MOL   H16348677   5.428   5.839   4.814  1.1247 -1.5096  0.5726
  128MOL   H16448678   5.640   5.733   4.681  0.0848  1.3769  0.2085
  128MOL   H16548679   5.544   5.640   4.797  1.1022  2.8275  1.4708
  128MOL   H16648680   5.459   5.493   4.658 -1.2164  0.2655 -0.4010
  128MOL   H16748681   5.605   5.634   4.421  0.4786 -1.3081 -0.3130
  128MOL   H16848682   5.534   5.478   4.433  0.2371 -3.9607  3.0534
  128MOL   H16948683   5.782   5.589   4.545  1.9836 -1.1623 -0.2544
  128MOL   H17048684   5.716   5.439   4.615 -2.8659  0.6922  0.0731
  128MOL   H17148685   5.281   5.557   4.561 -0.7793  1.1764 -1.0971
  128MOL   H17248686   5.358   5.702   4.475 -1.7061  0.5085  0.5398
  128MOL   C17348687   5.776   5.408   4.425  0.5203 -0.7156  0.1555
  128MOL   C17448688   5.929   5.379   4.447  0.0385  0.1413 -0.6814
  128MOL   C17548689   5.955   5.268   4.351 -0.6104  0.4565  0.2565
  128MOL   C17648690   5.820   5.199   4.326  0.0869  0.4852  0.0905
  128MOL   C17748691   5.828   5.041   4.341 -0.0450  0.2251  0.1130
  128MOL   C17848692   5.896   4.972   4.222  0.3046 -0.1169 -0.0966
  128MOL   C17948693   5.713   5.271   4.416 -0.1145 -0.0383 -0.3890
  128MOL   H18048694   5.759   5.447   4.324 -4.3428 -0.5008  0.9330
  128MOL   H18148695   5.960   5.357   4.549 -1.4998  3.0746  0.4686
  128MOL   H18248696   5.992   5.465   4.427 -0.1365 -0.2284 -2.9418
  128MOL   H18348697   6.005   5.299   4.259  2.1315  0.9990  1.8755
  128MOL   H18448698   6.025   5.195   4.393 -1.1305  0.1043  0.5054
  128MOL   H18548699   5.807   5.215   4.219 -1.2992  1.3631  0.3773
  128MOL   H18648700   5.723   5.012   4.336  0.2131 -0.5267 -1.2938
  128MOL   H18748701   5.873   4.992   4.428 -2.1099  1.2536  1.8091
  128MOL   H18848702   5.984   5.028   4.191  0.4848 -1.0942 -1.3633
  128MOL   H18948703   5.826   4.982   4.139  1.9640 -1.2503 -1.6600
  128MOL   H19048704   5.709   5.235   4.519 -2.3122 -1.5517 -0.9620
  128MOL   H19148705   5.612   5.289   4.378  0.1761  0.6151 -0.8456
  128MOL   C19248706   5.927   4.817   4.246 -0.7846 -0.8455  0.0452
  128MOL   C19348707   6.075   4.798   4.289  0.6087 -0.8465 -0.2726
  128MOL   C19448708   6.139   4.699   4.191  0.5860  0.8935  0.2622
  128MOL   C19548709   6.073   4.721   4.060 -0.1684  0.6233  0.3649
  128MOL   C19648710   6.082   4.614   3.945 -0.0203 -0.2533  0.2661
  128MOL   C19748711   6.218   4.624   3.869  0.6770  0.4907 -0.9737
  128MOL   C19848712   5.932   4.744   4.111 -0.1088 -0.4562  0.6881
  128MOL   H19948713   5.854   4.781   4.319 -1.1934  1.8038  1.0148
  128MOL   H20048714   6.129   4.893   4.291 -1.6145  0.4519  1.7866
  128MOL   H20148715   6.079   4.761   4.392 -0.3231  1.7368  0.7251
  128MOL   H20248716   6.110   4.596   4.209  0.1552  1.4495  2.9521
  128MOL   H20348717   6.248   4.699   4.186  0.5993 -0.6041  0.3013
  128MOL   H20448718   6.108   4.816   4.020 -0.6698  0.5728 -0.2132
  128MOL   H20548719   6.011   4.655   3.872  0.7224 -0.8732 -0.8236
  128MOL   H20648720   6.040   4.520   3.979 -0.0014 -0.8434 -1.3044
  128MOL   H20748721   6.303   4.587   3.926  0.0657 -0.0396 -0.3980
  128MOL   H20848722   6.244   4.730   3.865  0.3584  0.6096 -0.1476
  128MOL   H20948723   5.879   4.649   4.126  0.6744 -0.8648  0.8653
  128MOL   H21048724   5.876   4.788   4.028 -0.1423 -0.3296  0.7794
  128MOL   C21148725   6.214   4.550   3.736 -0.2118  0.2535 -0.3451
  128MOL   C21248726   6.180   4.399   3.732 -0.1396  0.2327  0.3915
  128MOL   C21348727   6.269   4.342   3.618  0.0485  0.4462 -0.1776
  128MOL   C21448728   6.324   4.458   3.534  0.3550 -0.3882 -0.0839
  128MOL   C21548729   6.459   4.440   3.464 -0.7679 -0.5161 -0.1545
  128MOL   C21648730   6.441   4.380   3.332  0.3655  0.5522  0.3913
  128MOL   C21748731   6.335   4.568   3.644 -0.1170 -0.2832 -0.1294
  128MOL   H21848732   6.140   4.603   3.675 -2.9071 -3.1068 -0.1514
  128MOL   H21948733   6.173   4.347   3.828  0.6585 -0.5598  0.0188
  128MOL   H22048734   6.078   4.397   3.693  0.2420 -0.9117 -0.5678
  128MOL   H22148735   6.351   4.297   3.675 -0.1152 -0.2771 -0.5146
  128MOL   H22248736   6.227   4.253   3.571  0.0505  0.1959  0.2873
  128MOL   H22348737   6.246   4.494   3.466 -2.0272 -0.3417  2.5927
  128MOL   H22448738   6.527   4.386   3.530  0.9212  0.6695 -0.8924
  128MOL   H22548739   6.501   4.538   3.440  0.2717 -1.0788 -0.6417
  128MOL   H22648740   6.394   4.282   3.336  0.5553  0.3055 -2.2106
  128MOL   H22748741   6.382   4.441   3.263 -1.4467 -0.8118  0.7111
  128MOL   H22848742   6.337   4.669   3.604 -2.5467 -0.4623 -0.7936
  128MOL   H22948743   6.423   4.549   3.706 -0.2343  0.1682  0.1753
  128MOL   C23048744   6.574   4.336   3.266 -0.4553  0.3273  0.4237
  128MOL   C23148745   6.651   4.444   3.186 -0.4459 -0.7771  0.5275
  128MOL   C23248746   6.738   4.379   3.082 -0.2751  0.0127 -0.4059
  128MOL   C23348747   6.686   4.237   3.070  0.6844 -0.4337 -0.0883
  128MOL   C23448748   6.795   4.132   3.101 -0.9482 -0.0694 -0.4550
  128MOL   C23548749   6.753   3.994   3.048 -0.5618  0.9710  0.4015
  128MOL   C23648750   6.551   4.236   3.154 -0.0429  0.1164 -0.1562
  128MOL   H23748751   6.637   4.284   3.338 -1.7801 -1.0196  0.6312
  128MOL   H23848752   6.596   4.525   3.139  2.5278  1.5745  1.0015
  128MOL   H23948753   6.715   4.487   3.263 -0.8261 -0.1221  0.4765
  128MOL   H24048754   6.845   4.393   3.097 -0.4301 -0.8153  1.5992
  128MOL   H24148755   6.718   4.434   2.990  2.0651 -0.0715 -0.9739
  128MOL   H24248756   6.665   4.233   2.963 -0.5187 -2.3904  0.1918
  128MOL   H24348757   6.823   4.145   3.205  0.0520 -0.3406 -0.6907
  128MOL   H24448758   6.886   4.155   3.045  1.1701 -0.0619  2.8801
  128MOL   H24548759   6.663   3.971   3.105 -0.1966 -4.1731 -0.9092
  128MOL   H24648760   6.728   3.995   2.942  0.1581 -1.2874  0.1878
  128MOL   H24748761   6.519   4.138   3.189  0.1093  0.7878  1.9053
  128MOL   H24848762   6.476   4.259   3.078 -0.6689 -0.0211  0.4187
  128MOL   C24948763   6.846   3.871   3.073  0.0118 -0.0435  0.3491
  128MOL   C25048764   6.775   3.741   3.050 -0.7889 -0.6085 -1.1585
  128MOL   C25148765   6.888   3.644   3.017  0.3958 -0.5736 -0.3861
  128MOL   C25248766   6.989   3.720   2.940 -0.3478  0.5234 -0.0354
  128MOL   C25348767   7.136   3.661   2.948 -0.2499 -0.1096 -0.0584
  128MOL   C25448768   7.230   3.700   2.838  0.0213  0.1074 -0.0826
  128MOL   C25548769   6.971   3.868   2.983 -0.0807  0.4797  0.4260
  128MOL   H25648770   6.900   3.864   3.168  0.8554  3.0856  0.1494
  128MOL   H25748771   6.722   3.715   3.141 -0.0962  1.4709 -0.1309
  128MOL   H25848772   6.695   3.744   2.975  0.1253  1.4507 -2.0772
  128MOL   H25948773   6.857   3.554   2.964 -2.3723  0.1276 -0.0176
  128MOL   H26048774   6.934   3.613   3.111  1.6659 -1.4643 -1.2773
  128MOL   H26148775   6.954   3.708   2.838  1.6234 -1.5633 -0.5204
  128MOL   H26248776   7.139   3.554   2.970  2.4405 -0.1480 -0.4060
  128MOL   H26348777   7.181   3.707   3.036 -0.7870 -0.1129  0.2242
  128MOL   H26448778   7.238   3.809   2.840  3.1674 -0.0663 -1.1038
  128MOL   H26548779   7.179   3.678   2.745 -0.7504  0.3668  0.2685
  128MOL   H26648780   6.967   3.931   2.894  1.5465 -1.9038 -1.4139
  128MOL   H26748781   7.060   3.910   3.030  0.2444  0.0241  0.2296
  128MOL   C26848782   7.377   3.635   2.848  0.4675  0.2405 -0.0402
  128MOL   C26948783   7.453   3.671   2.721 -0.1503 -0.3607  0.6965
  128MOL   C27048784   7.540   3.539   2.682 -0.1815  0.3804  0.7798
  128MOL   C27148785   7.526   3.443   2.807  0.1754  0.0915 -0.9041
  128MOL   C27248786   7.537   3.293   2.789 -0.1620  0.0185 -0.2287
  128MOL   C27348787   0.037   3.247   2.774  0.3612  0.3425 -0.2678
  128MOL   C27448788   7.382   3.482   2.853 -0.1295  0.1924 -0.2662
  128MOL   H27548789   7.436   3.673   2.932  0.2488  2.5082 -0.8769
  128MOL   H27648790   7.389   3.700   2.638  0.0976 -0.2567  0.5385
  128MOL   H27748791   7.533   3.743   2.740 -0.3497 -0.1755  0.8240
  128MOL   H27848792   7.504   3.503   2.585  0.8596  1.2753  0.0469
  128MOL   H27948793   0.001   3.553   2.676 -0.1400  1.6801  3.7771
  128MOL   H28048794   7.596   3.476   2.884  0.4473 -0.6692 -0.8170
  128MOL   H28148795   7.479   3.275   2.699 -1.1871 -0.3314  0.4978
  128MOL   H28248796   7.479   3.242   2.866 -2.1485 -0.3252 -1.9227
  128MOL   H28348797   0.086   3.315   2.705  0.2652 -0.9845 -1.6778
  128MOL   H28448798   0.095   3.266   2.864 -0.6850  2.0835  0.0559
  128MOL   H28548799   7.307   3.441   2.785  0.6421  1.0147 -1.6259
  128MOL   H28648800   7.362   3.459   2.958 -0.3589  0.8989 -0.1482
  128MOL   C28748801   0.066   3.104   2.723  0.0301  0.6299 -0.6173
  128MOL   C28848802   7.642   3.059   2.600 -0.0813  0.3659 -0.4695
  128MOL   C28948803   0.109   3.039   2.499  0.2161 -0.6336 -0.0449
  128MOL   C29048804   0.230   2.995   2.564  0.5065  0.0151 -0.5635
  128MOL   C29148805   0.360   3.031   2.495  0.0259 -0.4075  0.1881
  128MOL   C29248806   0.384   2.973   2.353  0.1664 -0.0030  0.9617
  128MOL   C29348807   0.217   3.062   2.703 -0.3603 -0.3304 -0.6439
  128MOL   H29448808   0.030   3.044   2.807  0.0064  1.7825  0.2109
  128MOL   H29548809   7.590   2.966   2.622  2.7406 -0.6100  2.4851
  128MOL   H29648810   7.569   3.126   2.554 -1.6319 -0.7361  0.3332
  128MOL   H29748811   0.118   3.138   2.452 -0.0767  1.2305  3.6265
  128MOL   H29848812   0.069   2.971   2.424 -1.7153  2.4191 -1.9391
  128MOL   H29948813   0.215   2.889   2.585  1.3979 -0.0467 -0.2220
  128MOL   H30048814   0.443   2.993   2.554  1.8928 -1.6010 -3.0689
  128MOL   H30148815   0.375   3.139   2.502 -1.4121 -0.2019  0.1616
  128MOL   H30248816   0.307   3.019   2.290  1.2680 -1.2313 -1.3275
  128MOL   H30348817   0.356   2.867   2.357 -2.9681  0.7647  0.7920
  128MOL   H30448818   0.286   3.145   2.720 -1.3956  0.2040  1.1553
  128MOL   H30548819   0.242   2.990   2.780 -1.3130  0.1165  0.1008
  128MOL   C30648820   0.524   2.996   2.303 -0.3465  0.0628  0.1430
  128MOL   C30748821   0.554   2.932   2.173 -0.5145 -0.0512 -0.4860
  128MOL   C30848822   0.690   3.005   2.131 -0.3153  0.1077  0.3373
  128MOL   C30948823   0.659   3.147   2.160  0.7888  0.0200  1.1341
  128MOL   C31048824   0.587   3.220   2.034  0.8144  0.0578 -0.8468
  128MOL   C31148825   0.597   3.370   2.046  0.0871 -0.2029 -0.2233
  128MOL   C31248826   0.572   3.142   2.288 -0.0825 -0.1613 -0.3213
  128MOL   H31348827   0.591   2.961   2.382  1.2620  0.2575 -1.1232
  128MOL   H31448828   0.578   2.826   2.182  0.6071  0.3573  1.5169
  128MOL   H31548829   0.473   2.945   2.101 -3.1067 -0.0111  2.3791
  128MOL   H31648830   0.775   2.971   2.191  1.7488  1.1039 -1.9265
  128MOL   H31748831   0.713   2.991   2.025  0.1034  0.1604  0.4191
  128MOL   H31848832   0.748   3.206   2.182  0.3265  1.3288 -0.4316
  128MOL   H31948833   0.620   3.173   1.941 -0.2997 -1.4345 -0.5100
  128MOL   H32048834   0.482   3.192   2.030  0.5564  1.1090 -1.5537
  128MOL   H32148835   0.703   3.394   2.040 -0.5944  2.3820 -2.8968
  128MOL   H32248836   0.561   3.408   2.141  2.3860 -0.0144  0.6096
  128MOL   H32348837   0.487   3.209   2.292 -1.3397 -1.7786  0.5690
  128MOL   H32448838   0.632   3.174   2.373  0.7127 -0.8798 -0.6030
  128MOL   C32548839   0.528   3.446   1.930  0.3722  0.8625 -0.4816
  128MOL   C32648840   0.375   3.427   1.931  0.3566  0.2422 -0.2990
  128MOL   C32748841   0.316   3.564   1.901  0.1309  0.7062 -0.5330
  128MOL   C32848842   0.404   3.667   1.972 -0.2187 -0.0064 -0.4597
  128MOL   C32948843   0.385   3.812   1.913  0.5732  0.0649 -0.7045
  128MOL   C33048844   0.248   3.885   1.935  0.7316  0.6534  0.1656
  128MOL   C33148845   0.538   3.600   1.944 -0.0368 -0.1161 -0.2131
  128MOL   H33248846   0.570   3.406   1.839  1.1700 -1.0387  0.6992
  128MOL   H33348847   0.347   3.387   2.029 -1.1225  0.9971 -0.3952
  128MOL   H33448848   0.331   3.355   1.863 -1.4994 -1.2562  2.3678
  128MOL   H33548849   0.299   3.587   1.796 -0.9779 -1.6323 -0.8919
  128MOL   H33648850   0.219   3.577   1.951  1.2609 -0.5051  2.0765
  128MOL   H33748851   0.375   3.669   2.078 -0.9940  1.0647 -0.6780
  128MOL   H33848852   0.456   3.876   1.965  0.6753 -0.0720 -0.6742
  128MOL   H33948853   0.411   3.834   1.810  0.4909 -1.0392 -0.9645
  128MOL   H34048854   0.173   3.829   1.880 -1.7956  1.3593  2.7508
  128MOL   H34148855   0.214   3.881   2.039 -1.0903  0.7194 -0.4104
  128MOL   H34248856   0.607   3.630   2.023 -0.1827  0.7207 -0.3940
  128MOL   H34348857   0.578   3.641   1.851 -0.8199 -2.9675 -1.8358
  128MOL   C34448858   0.237   4.029   1.884  0.0934 -0.2978 -0.0954
  128MOL   C34548859   0.325   4.128   1.962  0.2840  0.6358  0.7177
  128MOL   C34648860   0.239   4.253   1.955  0.7199  0.1348 -0.1466
  128MOL   C34748861   0.091   4.216   1.956 -0.7186  0.4991 -0.1433
  128MOL   C34848862   0.001   4.314   1.882  0.6758  0.0597 -0.0839
  128MOL   C34948863   7.614   4.438   1.955  0.1441 -0.2788  0.4364
  128MOL   C35048864   0.092   4.079   1.892  0.3393 -0.0841  0.1645
  128MOL   H35148865   0.269   4.037   1.780 -0.9522  1.6460 -0.2917
  128MOL   H35248866   0.417   4.144   1.905  0.7609 -2.0807  0.6919
  128MOL   H35348867   0.345   4.097   2.064 -0.6920  0.3361  0.8207
  128MOL   H35448868   0.265   4.333   2.024  1.6468 -0.9555  0.7766
  128MOL   H35548869   0.271   4.303   1.863  1.9708  0.6292  0.5446
  128MOL   H35648870   0.054   4.214   2.059  0.8350 -2.5152  0.4283
  128MOL   H35748871   0.040   4.340   1.784 -1.2391  1.3290 -0.5188
  128MOL   H35848872   7.558   4.261   1.851  0.1527  1.1848 -0.4779
  128MOL   H35948873   0.050   4.502   1.983  1.2828 -0.7518 -1.7489
  128MOL   H36048874   7.564   4.419   2.050  2.8603  2.0552  2.4329
  128MOL   H36148875   0.012   4.024   1.943  0.8194 -0.0120  1.0075
  128MOL   H36248876   0.051   4.098   1.794 -0.2671 -1.8517  0.0451
  128MOL   C36348877   7.519   4.533   1.878  0.3050  0.1654 -0.0858
  128MOL   C36448878   7.564   4.577   1.734  0.1947 -0.2747 -0.1611
  128MOL   C36548879   7.525   4.729   1.721  0.0673  0.1788  0.2780
  128MOL   C36648880   7.465   4.776   1.846  0.3454 -0.6800  0.3090
  128MOL   C36748881   7.510   4.917   1.887 -0.2660  0.2807 -0.2173
  128MOL   C36848882   7.458   4.974   2.022  0.3303 -0.2552  0.2073
  128MOL   C36948883   7.506   4.671   1.952  0.1658  0.2535  0.5075
  128MOL   H37048884   7.423   4.484   1.860  0.2396 -0.5774  2.0876
  128MOL   H37148885   0.023   4.564   1.712 -0.1863 -0.1494 -2.1508
  128MOL   H37248886   7.515   4.512   1.662 -1.8978  0.8053  0.2370
  128MOL   H37348887   7.623   4.775   1.709 -0.6080  2.9573  4.6143
  128MOL   H37448888   7.467   4.760   1.634 -2.3485 -1.9011  1.0968
  128MOL   H37548889   7.356   4.775   1.838  0.4537 -1.6219 -1.2579
  128MOL   H37648890   7.618   4.913   1.897  0.0213 -0.5563 -3.0822
  128MOL   H37748891   7.480   4.977   1.801 -1.8174  1.4166  1.0673
  128MOL   H37848892   7.521   4.950   2.108  2.1207  0.4146 -0.8793
  128MOL   H37948893   7.357   4.942   2.044  0.6076  0.2504  2.2894
  128MOL   H38048894   7.601   4.698   1.998  1.6246 -0.2597 -2.1219
  128MOL   H38148895   7.427   4.668   2.028 -0.7033  1.7842 -0.3258
  128MOL   H38248896   7.448   5.082   2.013 -1.9598 -0.5807 -1.6241
  129MOL     C148897   1.254   4.632   2.380 -0.5697  0.3327  0.3265
  129MOL     C248898   1.394   4.581   2.430  0.3002  0.1169  0.9565
  129MOL     C348899   1.403   4.433   2.376 -0.6413 -0.5345 -0.1791
  129MOL     C448900   1.267   4.394   2.323 -0.8260  0.1819  0.2045
  129MOL     C548901   1.212   4.251   2.347  0.1984 -0.0646 -0.2161
  129MOL     C648902   1.082   4.220   2.269 -0.1700  1.0017  0.2788
  129MOL     C748903   1.163   4.506   2.362 -0.7369 -0.1164  0.4305
  129MOL     H848904   1.220   4.713   2.445 -1.5813  0.4090 -0.2787
  129MOL     H948905   1.393   4.596   2.538 -3.2263  2.1367  0.7294
  129MOL    H1048906   1.471   4.642   2.382 -0.3592  1.1641  1.2168
  129MOL    H1148907   1.478   4.411   2.300 -0.1782  1.6118 -0.3715
  129MOL    H1248908   1.419   4.378   2.469 -0.3698 -0.4186 -0.1562
  129MOL    H1348909   1.265   4.410   2.215  0.8358  1.5236  0.3567
  129MOL    H1448910   1.297   4.189   2.318 -1.0223 -0.5016 -3.0662
  129MOL    H1548911   1.209   4.232   2.454 -0.6346 -2.5137 -0.6357
  129MOL    H1648912   1.037   4.135   2.320 -2.7508  1.7056 -0.7755
  129MOL    H1748913   1.009   4.298   2.291 -0.1530  1.5175 -1.3852
  129MOL    H1848914   1.095   4.524   2.280 -2.5868  4.2116  2.7198
  129MOL    H1948915   1.106   4.485   2.453 -2.4133 -2.1756 -1.0575
  129MOL    H2048916   1.263   4.679   2.282 -1.8898 -3.1469 -1.5762
  129MOL    C2148917   1.095   4.182   2.119  0.0617 -0.0725 -0.5160
  129MOL    C2248918   1.195   4.066   2.087 -0.1929 -0.2761 -0.4906
  129MOL    C2348919   1.145   3.982   1.964 -0.2670 -0.0796 -0.5635
  129MOL    C2448920   1.007   4.045   1.933  0.3440 -0.7004  0.6685
  129MOL    C2548921   0.895   3.952   1.884  0.7334 -0.5972  0.6815
  129MOL    C2648922   0.791   4.026   1.799 -1.1550 -0.1862 -0.4207
  129MOL    C2748923   0.965   4.119   2.066  0.8637  0.4002 -0.4026
  129MOL    H2848924   1.112   4.272   2.060 -3.7331  0.5658 -0.7991
  129MOL    H2948925   1.295   4.104   2.065 -0.2422 -0.3711 -0.8937
  129MOL    H3048926   1.209   3.995   2.169  0.8743 -1.0547 -1.3251
  129MOL    H3148927   1.206   3.996   1.875  0.4373  0.5434  0.0029
  129MOL    H3248928   1.124   3.876   1.981 -1.7585  0.0069 -1.8167
  129MOL    H3348929   1.025   4.115   1.851  1.0841 -1.8794 -0.1883
  129MOL    H3448930   0.843   3.898   1.964  0.8533  0.8763  1.7772
  129MOL    H3548931   0.944   3.875   1.824 -1.3036 -2.3980  1.2497
  129MOL    H3648932   0.841   4.088   1.724 -1.0835  1.2273  0.7684
  129MOL    H3748933   0.748   4.104   1.862  0.2784  0.7378 -0.5612
  129MOL    H3848934   0.889   4.195   2.047  3.2633  3.8757  3.1304
  129MOL    H3948935   0.925   4.052   2.143  0.2277  0.5488 -0.5993
  129MOL    C4048936   0.691   3.942   1.727  1.0783 -0.1188  0.5620
  129MOL    C4148937   0.612   4.028   1.622  0.3884 -0.8668 -0.3581
  129MOL    C4248938   0.557   3.911   1.532  0.7309 -0.6083  0.5413
  129MOL    C4348939   0.672   3.813   1.512 -0.7466  0.1050 -0.4987
  129MOL    C4448940   0.630   3.667   1.496  0.1111  0.5100  0.1685
  129MOL    C4548941   0.520   3.647   1.383 -0.4277  0.8281 -0.3141
  129MOL    C4648942   0.759   3.832   1.644  0.2819  0.2057  0.0695
  129MOL    H4748943   0.621   3.893   1.794 -0.5486  1.5105  0.1057
  129MOL    H4848944   0.673   4.090   1.557 -0.8842  0.5580 -0.2263
  129MOL    H4948945   0.531   4.089   1.663 -1.6768 -3.1135 -0.9794
  129MOL    H5048946   0.482   3.864   1.595 -0.0511  1.4709  1.1987
  129MOL    H5148947   0.504   3.943   1.443 -0.4115  2.0293  2.1094
  129MOL    H5248948   0.742   3.842   1.434  0.3999  1.0382  0.8574
  129MOL    H5348949   0.718   3.608   1.469 -0.6678 -0.9917  0.8426
  129MOL    H5448950   0.591   3.631   1.591  0.1894 -0.4103 -0.1403
  129MOL    H5548951   0.550   3.694   1.289 -0.8901 -0.9942 -1.3865
  129MOL    H5648952   0.440   3.716   1.409  0.5192  1.7666  0.1775
  129MOL    H5748953   0.779   3.742   1.702  0.2094  0.7964  1.0220
  129MOL    H5848954   0.856   3.868   1.611 -0.4744  0.9771 -1.3601
  129MOL    C5948955   0.461   3.509   1.372 -0.6879  0.3067  0.2340
  129MOL    C6048956   0.397   3.439   1.495 -0.1205 -0.0197 -0.0537
  129MOL    C6148957   0.304   3.332   1.451  0.2477  0.0072 -0.1513
  129MOL    C6248958   0.242   3.399   1.325 -0.4150 -0.2112 -0.1648
  129MOL    C6348959   0.179   3.299   1.228 -0.1719 -0.0269  0.7153
  129MOL    C6448960   0.122   3.167   1.280 -0.2772  0.1429  0.3686
  129MOL    C6548961   0.352   3.494   1.264  0.1507 -0.2380 -0.3085
  129MOL    H6648962   0.548   3.451   1.338 -0.8821  0.0065  0.2485
  129MOL    H6748963   0.454   3.409   1.583 -0.6627 -0.2680  0.2194
  129MOL    H6848964   0.330   3.511   1.542  0.1893  0.3700 -0.2104
  129MOL    H6948965   0.356   3.243   1.414 -0.4768  0.0055 -1.1969
  129MOL    H7048966   0.226   3.308   1.523 -0.7261  0.8174 -0.9211
  129MOL    H7148967   0.162   3.460   1.368  0.0712 -0.8308  1.6438
  129MOL    H7248968   0.257   3.269   1.159 -0.9037  2.0955 -1.0959
  129MOL    H7348969   0.100   3.345   1.169  0.4101 -0.6353 -0.5639
  129MOL    H7448970   0.191   3.126   1.353 -0.4032  1.2104  1.0981
  129MOL    H7548971   0.033   3.192   1.337 -0.9480 -1.8766  0.2348
  129MOL    H7648972   0.389   3.463   1.166  1.9325 -0.2194  0.3229
  129MOL    H7748973   0.308   3.592   1.245  0.1267 -0.1264  0.3137
  129MOL    C7848974   0.081   3.064   1.177 -0.6873  0.5475  0.0551
  129MOL    C7948975   0.002   2.959   1.239 -0.5816 -0.4345  0.2785
  129MOL    C8048976   7.542   2.922   1.133 -0.6126  0.1828  0.4044
  129MOL    C8148977   7.583   2.983   1.003  0.3330  0.1296 -0.0896
  129MOL    C8248978   7.467   3.003   0.903 -0.2016 -0.1421 -0.4351
  129MOL    C8348979   7.412   2.864   0.856 -0.6795  0.3629  0.1232
  129MOL    C8448980   0.007   3.114   1.050 -0.0105 -0.1761 -0.3242
  129MOL    H8548981   0.174   3.025   1.136 -0.5503 -0.5532  1.3697
  129MOL    H8648982   0.074   2.877   1.238 -0.7713 -0.6040  0.2897
  129MOL    H8748983   7.610   2.977   1.339 -1.3376 -1.2547  0.1452
  129MOL    H8848984   7.526   2.815   1.142  3.6439 -0.7124 -1.6795
  129MOL    H8948985   7.445   2.963   1.164 -0.4427  0.2959  0.7804
  129MOL    H9048986   0.010   2.916   0.960  0.9717  0.9343 -0.2669
  129MOL    H9148987   7.519   3.041   0.815 -0.5970  1.6680  0.0928
  129MOL    H9248988   7.386   3.066   0.939 -1.9825 -1.1030 -2.6842
  129MOL    H9348989   7.366   2.815   0.942  0.2968  0.7255  0.8675
  129MOL    H9448990   7.490   2.795   0.822 -2.2825 -1.3582 -0.1119
  129MOL    H9548991   7.577   3.179   1.091  0.4448 -0.8988  1.7614
  129MOL    H9648992   0.075   3.158   0.978  0.5516  0.1004  0.3626
  129MOL    C9748993   7.320   2.891   0.735 -0.2276 -0.1208 -0.1721
  129MOL    C9848994   7.211   2.994   0.756 -0.2489  0.2752 -0.2150
  129MOL    C9948995   7.107   2.971   0.652 -1.0273  0.9300 -0.5537
  129MOL   C10048996   7.131   2.824   0.614 -0.5462  0.1371 -0.3249
  129MOL   C10148997   7.012   2.731   0.621 -0.0437  0.0962  0.6636
  129MOL   C10248998   6.882   2.774   0.550  0.6530 -0.3500 -0.7029
  129MOL   C10348999   7.246   2.771   0.693 -0.1501  0.0401  0.4028
  129MOL   H10449000   7.398   2.916   0.663 -0.2857 -1.0137 -0.5568
  129MOL   H10549001   7.155   2.968   0.847  0.4498 -0.0940  0.1107
  129MOL   H10649002   7.239   3.099   0.758  3.3381 -0.6468  1.1590
  129MOL   H10749003   7.009   3.000   0.690 -2.0434 -1.6561 -1.1261
  129MOL   H10849004   7.137   3.032   0.566  0.2504  1.4876  0.2780
  129MOL   H10949005   7.158   2.808   0.510 -0.2860 -0.5239 -0.1645
  129MOL   H11049006   7.030   2.632   0.580  2.9025  0.6541  0.4969
  129MOL   H11149007   6.988   2.725   0.727 -1.4363 -2.4316  0.2346
  129MOL   H11249008   6.860   2.869   0.599  0.9428 -0.9644  0.6567
  129MOL   H11349009   6.897   2.795   0.444 -0.2057 -2.5424 -1.2941
  129MOL   H11449010   7.214   2.712   0.779 -0.8893 -0.2570 -0.0679
  129MOL   H11549011   7.312   2.697   0.647 -0.1443 -1.3225  2.5376
  129MOL   C11649012   6.759   2.684   0.569 -0.0206 -0.1332  0.5853
  129MOL   C11749013   6.698   2.688   0.708 -0.2766 -0.4103 -0.3642
  129MOL   C11849014   6.552   2.637   0.692  0.1038  0.3882 -0.0868
  129MOL   C11949015   6.518   2.659   0.541  0.7998  0.2475  0.6211
  129MOL   C12049016   6.401   2.758   0.523 -0.2385 -0.3149 -0.2302
  129MOL   C12149017   6.347   2.789   0.374 -0.0219  0.7836  0.1372
  129MOL   C12249018   6.642   2.729   0.478  0.3641  0.0880  0.1901
  129MOL   H12349019   6.786   2.579   0.556 -0.4333 -0.4112  1.9276
  129MOL   H12449020   6.689   2.794   0.735 -1.6994 -0.5876 -0.1111
  129MOL   H12549021   6.757   2.637   0.784 -0.2421 -1.4824 -1.1104
  129MOL   H12649022   6.481   2.687   0.758  0.0386  1.0887 -0.6848
  129MOL   H12749023   6.547   2.532   0.719 -0.4351  0.2442 -0.7368
  129MOL   H12849024   6.490   2.566   0.493  1.9344  1.1702 -1.8916
  129MOL   H12949025   6.419   2.849   0.580 -0.9879 -0.0338 -0.4306
  129MOL   H13049026   6.317   2.729   0.586 -0.3209  0.6624  0.1085
  129MOL   H13149027   6.341   2.694   0.322  0.2030  0.5117  0.6088
  129MOL   H13249028   6.417   2.844   0.311  2.3353 -2.3982 -0.1462
  129MOL   H13349029   6.654   2.691   0.377 -1.6377  2.2039 -0.8897
  129MOL   H13449030   6.641   2.838   0.473  0.7390  0.0955  0.2586
  129MOL   C13549031   6.212   2.854   0.372  0.5071  0.0198  0.0535
  129MOL   C13649032   6.152   2.878   0.233 -0.6888 -0.7351  0.9436
  129MOL   C13749033   6.007   2.898   0.251  0.1316  0.6160  0.0504
  129MOL   C13849034   5.969   2.802   0.367  0.1961 -0.0791 -0.2908
  129MOL   C13949035   5.835   2.840   0.433 -0.6461  0.3286 -0.9246
  129MOL   C14049036   5.791   2.752   0.553  0.2199 -0.0316  0.1465
  129MOL   C14149037   6.100   2.787   0.451  0.3859  0.2753 -0.0204
  129MOL   H14249038   6.222   2.956   0.410 -1.3542  0.6024 -0.9534
  129MOL   H14349039   6.194   2.968   0.189  1.0775 -1.1660  1.6884
  129MOL   H14449040   6.176   2.790   0.174 -0.3838 -0.3686  0.5156
  129MOL   H14549041   5.990   3.003   0.276 -2.8971 -0.1205  1.3181
  129MOL   H14649042   5.952   2.870   0.162  0.5440 -0.2160  0.0556
  129MOL   H14749043   5.942   2.711   0.313 -1.7251 -1.0705  2.2577
  129MOL   H14849044   5.750   2.859   0.367 -1.5491  0.4504  0.2359
  129MOL   H14949045   5.851   2.946   0.455 -0.2782  0.2485 -0.8063
  129MOL   H15049046   5.770   2.651   0.518 -1.5621 -0.0753  1.2805
  129MOL   H15149047   5.872   2.739   0.625 -0.5571 -2.2646  0.6445
  129MOL   H15249048   6.127   2.684   0.476 -2.8874 -0.7298 -0.4601
  129MOL   H15349049   6.086   2.837   0.547 -1.4294  0.0217 -0.1461
  129MOL   C15449050   5.674   2.808   0.638  0.1903  0.5859 -0.5408
  129MOL   C15549051   5.717   2.921   0.729  0.2282 -0.2965  0.0893
  129MOL   C15649052   5.671   2.876   0.869 -0.4925  0.2030 -0.1703
  129MOL   C15749053   5.557   2.777   0.852  0.3426 -0.3835  0.3699
  129MOL   C15849054   5.544   2.691   0.981  0.0282 -0.0510  0.0237
  129MOL   C15949055   5.509   2.771   1.107 -0.3862  0.0923  0.2047
  129MOL   C16049056   5.616   2.703   0.735 -0.4891  0.2346  0.2136
  129MOL   H16149057   5.595   2.844   0.572 -0.1339  0.8374 -0.0192
  129MOL   H16249058   5.824   2.942   0.733  0.1537  0.0604  0.1454
  129MOL   H16349059   5.649   3.004   0.710 -0.2826 -0.1825  2.2713
  129MOL   H16449060   5.763   2.835   0.911 -0.8592 -0.8024 -0.3414
  129MOL   H16549061   5.650   2.967   0.926 -1.2146  0.0312 -0.1608
  129MOL   H16649062   5.467   2.828   0.817  1.0722  0.2865 -0.5449
  129MOL   H16749063   5.643   2.657   1.013  0.1010 -1.2767 -1.4560
  129MOL   H16849064   5.481   2.603   0.968  0.2951 -0.3893  0.9384
  129MOL   H16949065   5.571   2.861   1.113  0.6110 -0.7112  2.3984
  129MOL   H17049066   5.414   2.823   1.102  0.4117  1.4480 -1.1678
  129MOL   H17149067   5.537   2.640   0.693 -0.2380 -0.0158  0.1206
  129MOL   H17249068   5.692   2.635   0.772 -1.6980 -0.6321  1.1310
  129MOL   C17349069   5.532   2.687   1.241  0.5027  0.1879  0.1246
  129MOL   C17449070   5.517   2.768   1.362 -0.5976 -0.4500  0.7673
  129MOL   C17549071   5.472   2.673   1.476 -0.1538  0.0256  0.5937
  129MOL   C17649072   5.448   2.537   1.398  0.5226  0.2811  0.0060
  129MOL   C17749073   5.335   2.442   1.445  0.2369  0.2324 -0.1311
  129MOL   C17849074   5.350   2.391   1.588  0.3653 -0.1446 -0.4451
  129MOL   C17949075   5.422   2.584   1.254  0.3430  0.5695  0.1446
  129MOL   H18049076   5.626   2.632   1.233 -0.0499 -0.7806  0.1919
  129MOL   H18149077   5.439   2.843   1.345 -1.5503 -1.5826  0.1089
  129MOL   H18249078   5.609   2.818   1.394 -0.5154 -0.4161  0.4853
  129MOL   H18349079   5.537   2.653   1.561  0.4225 -0.0187  0.1446
  129MOL   H18449080   5.382   2.720   1.518  0.7917  3.1507 -0.7399
  129MOL   H18549081   5.544   2.487   1.393  0.5937  0.4411 -0.2760
  129MOL   H18649082   5.321   2.357   1.379 -1.2418  0.6610 -0.3963
  129MOL   H18749083   5.243   2.501   1.455  0.4371  0.6504 -0.7213
  129MOL   H18849084   5.359   2.475   1.657  0.0564 -0.1529 -0.3924
  129MOL   H18949085   5.452   2.353   1.590  0.8784  1.2831  1.2762
  129MOL   H19049086   5.319   2.618   1.244  0.3012  0.2502 -0.5312
  129MOL   H19149087   5.437   2.501   1.184 -2.5582 -0.1045  0.2387
  129MOL   C19249088   5.234   2.292   1.626  0.3370  0.7151 -0.5633
  129MOL   C19349089   5.106   2.365   1.655 -0.3675  0.0658  0.2088
  129MOL   C19449090   5.048   2.300   1.781 -0.4849  0.8480 -0.0544
  129MOL   C19549091   5.165   2.264   1.871  0.3558  0.4707  0.1411
  129MOL   C19649092   5.154   2.158   1.979  0.0169  0.6842 -0.3105
  129MOL   C19749093   5.109   2.214   2.115 -0.7249 -0.1097  0.0911
  129MOL   C19849094   5.269   2.230   1.762 -0.9260 -0.4297 -0.4036
  129MOL   H19949095   5.218   2.211   1.555 -1.4132  1.1724 -0.7127
  129MOL   H20049096   5.132   2.468   1.683 -0.9672  0.6420 -1.2970
  129MOL   H20149097   5.039   2.375   1.570 -0.4971  0.9282  0.4060
  129MOL   H20249098   4.992   2.214   1.743  0.6823 -0.4738  1.1715
  129MOL   H20349099   4.971   2.362   1.826 -0.4405 -0.1918  1.4836
  129MOL   H20449100   5.207   2.355   1.913 -0.9691  1.3001 -0.3274
  129MOL   H20549101   5.255   2.117   1.978  0.2309  1.1723 -2.9348
  129MOL   H20649102   5.085   2.081   1.945 -1.8395  2.3564 -0.4027
  129MOL   H20749103   5.174   2.295   2.148  0.2640 -0.3418 -1.2404
  129MOL   H20849104   5.129   2.142   2.194 -1.5746  1.5014  1.7939
  129MOL   H20949105   5.268   2.122   1.751 -0.4014 -0.5741  0.8281
  129MOL   H21049106   5.371   2.250   1.795 -0.5322 -2.7079 -0.1962
  129MOL   C21149107   4.951   2.257   2.119 -0.1768  0.8622 -0.1833
  129MOL   C21249108   4.918   2.324   2.260 -0.1217  0.9093 -0.0279
  129MOL   C21349109   4.808   2.251   2.323  0.1196 -0.0431 -0.5740
  129MOL   C21449110   4.734   2.176   2.211 -0.4736 -0.0610  0.0493
  129MOL   C21549111   4.642   2.053   2.256  0.2207  0.0125  0.0502
  129MOL   C21649112   4.544   2.003   2.148 -0.7333 -0.4637  0.1787
  129MOL   C21749113   4.849   2.142   2.114 -0.2037 -1.0164  0.0687
  129MOL   H21849114   4.936   2.325   2.036  1.2977 -0.6464 -1.7175
  129MOL   H21949115   4.995   2.340   2.336  2.1072 -1.4429 -1.7224
  129MOL   H22049116   4.888   2.426   2.238 -0.6344  0.7619 -0.0417
  129MOL   H22149117   4.859   2.176   2.384 -1.5461  1.0505  2.2402
  129MOL   H22249118   4.745   2.310   2.389  0.7252 -2.7562  2.5203
  129MOL   H22349119   4.669   2.253   2.170  0.0892  1.9639  2.7849
  129MOL   H22449120   4.582   2.093   2.338 -0.4491  0.0775 -0.4606
  129MOL   H22549121   4.694   1.971   2.305 -0.1088 -0.0637  0.2729
  129MOL   H22649122   4.601   1.996   2.055 -0.5719 -2.2223  0.4020
  129MOL   H22749123   4.517   1.900   2.169  1.3759 -1.4984 -1.9106
  129MOL   H22849124   4.804   2.118   2.017  0.6568 -2.0934 -0.0711
  129MOL   H22949125   4.897   2.049   2.143 -0.0938 -0.7560  0.7093
  129MOL   C23049126   4.403   2.075   2.131  0.2354 -1.0680  0.9537
  129MOL   C23149127   4.313   2.060   2.250 -0.7449  0.2028  0.1422
  129MOL   C23249128   4.191   1.986   2.210 -0.1496 -0.8109  0.3932
  129MOL   C23349129   4.228   1.915   2.073 -0.9465  0.2805 -0.2001
  129MOL   C23449130   4.106   1.875   1.998  0.0600 -0.2650 -0.1618
  129MOL   C23549131   4.126   1.796   1.868  0.0674  0.6293  0.6566
  129MOL   C23649132   4.318   2.022   2.011 -0.0743  0.1362 -1.3475
  129MOL   H23749133   4.421   2.181   2.110  0.1338 -0.9640  1.3891
  129MOL   H23849134   4.366   2.012   2.332 -0.8359 -2.2904 -1.2288
  129MOL   H23949135   4.309   2.160   2.295 -0.4436  0.1327  0.3334
  129MOL   H24049136   4.117   2.066   2.203 -0.0029 -0.8016 -1.1103
  129MOL   H24149137   4.144   1.919   2.282  1.2441 -1.8665  0.3458
  129MOL   H24249138   4.288   1.827   2.096 -2.3707 -0.0862  2.3276
  129MOL   H24349139   4.044   1.963   1.978 -0.2855 -0.1839  1.1886
  129MOL   H24449140   4.039   1.816   2.060 -1.3663  0.5788 -0.8712
  129MOL   H24549141   4.197   1.854   1.810 -0.6135 -0.4691 -1.3307
  129MOL   H24649142   4.168   1.697   1.888 -2.6438 -0.1650  2.6556
  129MOL   H24749143   4.269   2.113   1.975  1.5512  1.9834  0.9179
  129MOL   H24849144   4.379   1.981   1.931 -0.6314 -2.1576 -0.6250
  129MOL   C24949145   3.992   1.760   1.810 -0.3085 -0.6062  0.0192
  129MOL   C25049146   3.914   1.889   1.768 -0.1497 -0.3634 -0.7423
  129MOL   C25149147   3.823   1.851   1.648 -0.6472  0.3184 -0.5485
  129MOL   C25249148   3.905   1.740   1.573  0.4394  0.0900 -0.2080
  129MOL   C25349149   3.832   1.635   1.497  0.4713  0.2429  0.0428
  129MOL   C25449150   3.771   1.697   1.367  0.1625  0.1617 -0.0162
  129MOL   C25549151   3.997   1.677   1.679 -0.6187  0.0604  0.2687
  129MOL   H25649152   3.943   1.707   1.892 -2.2593 -1.0563 -1.4126
  129MOL   H25749153   3.851   1.926   1.848  0.5762 -1.0284  0.1524
  129MOL   H25849154   3.988   1.963   1.736 -0.1519  0.1405  0.4178
  129MOL   H25949155   3.792   1.942   1.598  0.6357  1.6332  0.9850
  129MOL   H26049156   3.734   1.808   1.694 -2.0184  1.5412 -2.0270
  129MOL   H26149157   3.984   1.787   1.515  1.2538 -0.2909  0.5677
  129MOL   H26249158   3.749   1.610   1.563  2.1984  1.5066  2.7569
  129MOL   H26349159   3.880   1.540   1.472 -0.3676  0.2581 -1.7588
  129MOL   H26449160   3.837   1.747   1.296  0.2592  0.3397  0.1996
  129MOL   H26549161   3.702   1.775   1.401 -0.1146 -0.4944  0.9381
  129MOL   H26649162   4.101   1.687   1.649 -1.3870  1.0603 -2.1668
  129MOL   H26749163   3.988   1.569   1.693  1.2351  0.0170  1.2698
  129MOL   C26849164   3.689   1.590   1.292  0.6789 -0.2290 -0.3552
  129MOL   C26949165   3.629   1.628   1.159 -0.3370  0.0748  0.0120
  129MOL   C27049166   3.482   1.593   1.173  0.5346  0.3346  0.4149
  129MOL   C27149167   3.479   1.477   1.266  0.2929 -0.2381 -0.0808
  129MOL   C27249168   3.334   1.428   1.305  0.0653 -0.2751  0.5029
  129MOL   C27349169   3.341   1.310   1.402  0.5901  0.8005  0.1755
  129MOL   C27449170   3.573   1.531   1.374  0.3024 -0.4945 -0.2782
  129MOL   H27549171   3.766   1.516   1.271  1.8290  0.5980  0.8484
  129MOL   H27649172   3.648   1.730   1.125 -1.0828  0.0101 -0.6072
  129MOL   H27749173   3.680   1.573   1.079 -0.8312  0.7014 -0.7478
  129MOL   H27849174   3.437   1.680   1.220 -2.0578 -1.0715  0.6525
  129MOL   H27949175   3.423   1.584   1.081  1.1563 -0.3639  0.0796
  129MOL   H28049176   3.538   1.397   1.219 -1.5795 -0.4777 -2.0900
  129MOL   H28149177   3.298   1.397   1.207 -1.7808 -1.0397  1.3915
  129MOL   H28249178   3.279   1.512   1.347  0.6623  0.8003 -0.8416
  129MOL   H28349179   3.421   1.239   1.380  0.8820  0.9351  0.7781
  129MOL   H28449180   3.369   1.353   1.498  1.3263 -2.5749  1.5357
  129MOL   H28549181   3.521   1.604   1.436  1.4704 -0.2187  0.4048
  129MOL   H28649182   3.606   1.451   1.440 -1.4412 -0.6710  0.3900
  129MOL   C28749183   3.209   1.236   1.430  0.0289 -0.2489  0.1623
  129MOL   C28849184   3.224   1.137   1.543 -0.0645 -0.0313  0.5170
  129MOL   C28949185   3.088   1.133   1.622 -0.8185  0.0352  0.0837
  129MOL   C29049186   3.035   1.277   1.613 -0.2972  0.5816  0.2616
  129MOL   C29149187   3.089   1.367   1.733  0.2843 -0.3657 -0.9086
  129MOL   C29249188   3.017   1.345   1.870  0.0115  0.1190 -0.5346
  129MOL   C29349189   3.100   1.329   1.479 -0.1713 -0.3656 -0.4854
  129MOL   H29449190   3.167   1.187   1.342  0.8605 -1.4835  0.4486
  129MOL   H29549191   3.269   1.045   1.506  1.1159  0.6601  0.2241
  129MOL   H29649192   3.293   1.182   1.615  2.1815 -0.6807 -1.1929
  129MOL   H29749193   3.108   1.098   1.723 -0.3067  2.6840  0.9431
  129MOL   H29849194   3.016   1.062   1.582  0.9005 -0.6214 -1.9281
  129MOL   H29949195   2.927   1.290   1.601 -0.5454 -0.6417  1.1779
  129MOL   H30049196   3.080   1.471   1.704  3.4843  0.6075  1.3165
  129MOL   H30149197   3.196   1.350   1.739 -0.0382 -1.5881  2.8735
  129MOL   H30249198   2.987   1.240   1.876  0.8264 -0.0803  0.2766
  129MOL   H30349199   2.927   1.405   1.863  0.2116  0.4379 -0.3616
  129MOL   H30449200   3.134   1.432   1.488 -0.8527 -0.0140 -1.7524
  129MOL   H30549201   3.022   1.354   1.407 -0.9082 -0.1994  0.3674
  129MOL   C30649202   3.087   1.383   2.000 -0.0917 -0.3546  0.0260
  129MOL   C30749203   2.997   1.348   2.119  0.5913 -0.2662 -0.4701
  129MOL   C30849204   3.076   1.302   2.240  0.0135  0.5652  0.0319
  129MOL   C30949205   3.219   1.301   2.187 -0.2327  0.4277 -0.9195
  129MOL   C31049206   3.306   1.176   2.238  0.1344  0.4631 -0.4277
  129MOL   C31149207   3.322   1.152   2.389 -0.0287 -0.0773 -0.3065
  129MOL   C31249208   3.209   1.297   2.034  1.1505  0.4077  0.5428
  129MOL   H31349209   3.115   1.488   1.992  1.0946 -0.4848  2.1320
  129MOL   H31449210   2.942   1.437   2.148  1.1034 -0.2775  0.5668
  129MOL   H31549211   2.930   1.263   2.104 -2.2740  1.8043  0.1057
  129MOL   H31649212   3.061   1.360   2.331  1.1939 -0.5151  0.9319
  129MOL   H31749213   3.042   1.203   2.270  1.0189  0.1135 -0.2855
  129MOL   H31849214   3.275   1.392   2.207  0.4954 -0.6441  2.1813
  129MOL   H31949215   3.254   1.091   2.194  1.3844 -0.5361 -0.0073
  129MOL   H32049216   3.396   1.177   2.176  0.2018  0.7318 -0.3262
  129MOL   H32149217   3.233   1.186   2.441  0.4038 -1.0615  1.1174
  129MOL   H32249218   3.403   1.213   2.429 -0.9968 -0.8367  2.9430
  129MOL   H32349219   3.191   1.194   2.001 -0.0055  1.1356 -1.1766
  129MOL   H32449220   3.293   1.316   1.967  0.4208  0.9054 -0.2448
  129MOL   C32549221   3.358   1.003   2.419 -0.1508 -0.6776  0.2740
  129MOL   C32649222   3.401   0.982   2.568 -0.8691 -0.6686  0.4465
  129MOL   C32749223   3.271   0.956   2.645  0.1132 -0.7107  0.0633
  129MOL   C32849224   3.152   0.950   2.541 -0.4704  0.5782 -0.3459
  129MOL   C32949225   3.055   0.836   2.561  0.5621  0.7225 -0.1597
  129MOL   C33049226   2.981   0.852   2.697  0.3958 -0.1361  0.7152
  129MOL   C33149227   3.227   0.922   2.410  0.1403  0.1505  0.0934
  129MOL   H33249228   3.443   0.985   2.353  1.4134  0.7132  1.8703
  129MOL   H33349229   3.443   1.073   2.612 -0.8537 -1.0748  1.2731
  129MOL   H33449230   3.463   0.894   2.580 -1.1967 -0.9517  0.0705
  129MOL   H33549231   3.279   0.861   2.698  0.5720 -0.5733  0.2416
  129MOL   H33649232   3.248   1.027   2.724  1.5487 -1.3678  1.1000
  129MOL   H33749233   3.103   1.048   2.543  0.5816  1.1203  3.4194
  129MOL   H33849234   2.991   0.832   2.473 -1.4429 -2.5869  1.3274
  129MOL   H33949235   3.113   0.744   2.568 -0.3129  0.2797  1.5963
  129MOL   H34049236   3.054   0.880   2.773  1.4157  0.3665 -0.4371
  129MOL   H34149237   2.922   0.943   2.695  0.4022 -0.1105  1.4742
  129MOL   H34249238   3.167   0.928   2.320  0.2860  0.9982  0.0498
  129MOL   H34349239   3.254   0.816   2.417 -0.4093  0.1052  1.8295
  129MOL   C34449240   2.913   0.716   2.747  0.1885  0.8058  0.2111
  129MOL   C34549241   2.822   0.647   2.650  0.1567 -0.4252  0.3523
  129MOL   C34649242   2.719   0.580   2.731  0.6365 -0.5604 -0.9548
  129MOL   C34749243   2.713   0.657   2.861 -0.9309  0.0322  0.1093
  129MOL   C34849244   2.652   0.576   2.975 -0.7091  0.8359 -0.7379
  129MOL   C34949245   2.632   0.657   3.107 -0.2094 -0.4133 -0.8115
  129MOL   C35049246   2.842   0.723   2.888 -0.6281 -0.2673 -0.0191
  129MOL   H35149247   3.000   0.652   2.765  1.1896  1.6775 -1.4767
  129MOL   H35249248   2.877   0.588   2.576 -0.6212  2.2311 -2.4571
  129MOL   H35349249   2.762   0.725   2.602 -0.2741 -1.8515 -1.4987
  129MOL   H35449250   2.626   0.564   2.677  0.1872  0.7728 -0.5925
  129MOL   H35549251   2.753   0.478   2.748  1.1385 -0.3116 -0.4424
  129MOL   H35649252   2.639   0.735   2.840 -0.3608  1.1332  2.0811
  129MOL   H35749253   2.558   0.530   2.947 -0.4979 -0.8444  1.2058
  129MOL   H35849254   2.717   0.490   2.987 -2.4513 -0.7176 -2.1630
  129MOL   H35949255   2.570   0.744   3.086 -2.7071 -2.4989 -2.3913
  129MOL   H36049256   2.722   0.701   3.149 -2.2757 -0.0535  3.5659
  129MOL   H36149257   2.830   0.824   2.927  1.1609 -1.3371  3.6006
  129MOL   H36249258   2.885   0.667   2.971 -0.3994 -1.1798 -0.7444
  129MOL   C36349259   2.562   0.571   3.210  0.1052 -0.2131  0.3979
  129MOL   C36449260   2.415   0.539   3.178  0.2417 -0.0352  0.3482
  129MOL   C36549261   2.333   0.612   3.289 -0.3972  0.1730 -0.2761
  129MOL   C36649262   2.427   0.607   3.407 -0.0632  0.3571  0.0834
  129MOL   C36749263   2.390   0.690   3.522  0.6525  0.1414  0.3099
  129MOL   C36849264   2.496   0.672   3.632 -0.2862 -0.3025 -0.4750
  129MOL   C36949265   2.563   0.628   3.348 -0.2410 -0.0327  0.5010
  129MOL   H37049266   2.620   0.478   3.210 -0.5964 -0.6864  2.4790
  129MOL   H37149267   2.390   0.571   3.077  1.4073 -0.1512  0.0148
  129MOL   H37249268   2.410   0.431   3.183 -0.2167 -0.0884 -1.2830
  129MOL   H37349269   2.322   0.717   3.261 -1.1265  0.4832  1.1518
  129MOL   H37449270   2.231   0.585   3.316 -0.5091  2.2843  1.6067
  129MOL   H37549271   2.417   0.505   3.446  2.2534 -0.1091 -0.4801
  129MOL   H37649272   2.391   0.793   3.488  1.6819  0.0962  0.1737
  129MOL   H37749273   2.297   0.667   3.574  1.3698 -1.7033  0.8492
  129MOL   H37849274   2.458   0.614   3.716  0.3932  1.5385  1.1435
  129MOL   H37949275   2.528   0.769   3.670 -2.9884  1.6567 -3.0428
  129MOL   H38049276   2.597   0.732   3.349 -0.4739  0.0547 -0.4079
  129MOL   H38149277   2.633   0.569   3.407 -0.0437  0.5151  0.8190
  129MOL   H38249278   2.598   0.640   3.609 -0.4409 -0.8954 -0.3425
  130MOL     C149279   6.590   0.236   1.962  0.0397 -0.3157 -0.5152
  130MOL     C249280   6.609   0.113   2.056  0.4527 -0.4583  0.1590
  130MOL     C349281   6.759   0.114   2.085 -0.5072  0.0365 -0.2355
  130MOL     C449282   6.818   0.233   2.018  0.0914 -0.3931 -0.2945
  130MOL     C549283   6.972   0.224   1.988 -0.0755 -0.6770  0.5024
  130MOL     C649284   7.059   0.218   2.114 -0.8010 -0.1783 -0.7121
  130MOL     C749285   6.725   0.256   1.901  0.2837  0.7841  0.1504
  130MOL     H849286   6.515   0.222   1.884  1.5226 -1.1355 -1.8111
  130MOL     H949287   6.574   0.017   2.018  0.4258 -0.2394 -0.3828
  130MOL    H1049288   6.553   0.130   2.147  0.0160 -2.0099  0.1945
  130MOL    H1149289   6.784   0.112   2.191  0.4902  1.9991 -0.4170
  130MOL    H1249290   6.798   0.030   2.027  0.6694 -0.0424  0.6329
  130MOL    H1349291   6.797   0.312   2.089  0.5562 -0.7925  0.2883
  130MOL    H1449292   6.998   0.139   1.925 -1.4999 -1.1146  0.4784
  130MOL    H1549293   7.008   0.313   1.937  3.0412 -0.0226  3.6229
  130MOL    H1649294   7.017   0.288   2.186 -0.7311 -0.5147 -0.3419
  130MOL    H1749295   7.045   0.117   2.153 -1.7239  0.8154  1.6076
  130MOL    H1849296   6.737   0.361   1.874  0.4566  0.9844  0.9746
  130MOL    H1949297   6.741   0.190   1.816 -1.4308 -0.2991  0.6487
  130MOL    H2049298   6.562   0.325   2.018 -1.7372 -0.4628 -1.1450
  130MOL    C2149299   7.204   0.265   2.069  0.0047 -0.4308  0.5767
  130MOL    C2249300   7.309   0.241   2.172  0.1074 -0.1081  0.3584
  130MOL    C2349301   7.443   0.256   2.102 -0.1182 -0.4803  0.1553
  130MOL    C2449302   7.421   0.210   1.957  0.1568  0.3018 -0.4582
  130MOL    C2549303   7.501   0.083   1.931 -0.5429 -0.2671 -0.6443
  130MOL    C2649304   7.534   0.083   1.785  0.2033 -0.6011 -0.4543
  130MOL    C2749305   7.264   0.192   1.943 -0.1030  0.2323  0.5513
  130MOL    H2849306   7.186   0.372   2.054 -0.3480 -0.1097  3.1331
  130MOL    H2949307   7.299   0.306   2.259  1.5811  2.2333 -1.1842
  130MOL    H3049308   7.310   0.140   2.213  0.1059  0.2101  1.1579
  130MOL    H3149309   7.471   0.361   2.100 -0.0997 -0.4985 -0.6904
  130MOL    H3249310   7.517   0.202   2.161  0.0744 -3.7316 -2.9043
  130MOL    H3349311   7.449   0.291   1.890  2.6075 -0.7032 -0.6768
  130MOL    H3449312   7.433   0.002   1.957 -1.7667 -0.2632 -3.6027
  130MOL    H3549313   7.593   0.070   1.988  0.6839  0.5106 -2.3889
  130MOL    H3649314   7.611   0.156   1.765  0.8483 -1.0249  0.4830
  130MOL    H3749315   7.439   0.101   1.734  0.7505 -2.6161 -2.2895
  130MOL    H3849316   7.232   0.235   1.847 -1.6360  0.6456  1.2367
  130MOL    H3949317   7.240   0.086   1.945 -0.4582  0.3055  0.3794
  130MOL    C4049318   7.606   7.600   1.748 -0.1467  0.6132 -0.0746
  130MOL    C4149319   7.521   7.471   1.751 -0.6783 -0.2020 -0.5324
  130MOL    C4249320   7.455   7.450   1.619 -0.0894  0.2438  0.1607
  130MOL    C4349321   7.542   7.529   1.526  0.0547  0.5052 -0.6163
  130MOL    C4449322   7.582   7.461   1.393 -0.2039  0.1930  0.6395
  130MOL    C4549323   0.050   7.358   1.392 -0.4186  0.0550  0.2177
  130MOL    C4649324   0.008   7.593   1.608  0.4218 -0.1392 -0.4150
  130MOL    H4749325   0.046   7.591   1.813  0.6763  0.9224 -1.1164
  130MOL    H4849326   7.448   7.470   1.832  0.4791 -0.0349  0.5335
  130MOL    H4949327   7.578   7.380   1.771 -3.2879 -1.5678  0.8587
  130MOL    H5049328   7.448   7.346   1.587  0.3089  0.4779 -0.6803
  130MOL    H5149329   7.349   7.479   1.618 -0.4671 -1.0443  1.0290
  130MOL    H5249330   7.479   7.615   1.499 -1.5281 -0.0712  1.1123
  130MOL    H5349331   7.496   7.401   1.366 -0.4073 -0.2084  2.1407
  130MOL    H5449332   7.593   7.533   1.311 -1.5662  0.0484  0.3231
  130MOL    H5549333   0.056   7.300   1.484  1.1415 -1.8651 -1.0744
  130MOL    H5649334   0.151   7.391   1.371 -0.4240 -1.5393 -2.5853
  130MOL    H5749335   0.097   7.531   1.613  0.3595 -0.1975  0.0211
  130MOL    H5849336   0.050   0.034   1.560 -1.2978  0.1039 -1.5376
  130MOL    C5949337   0.036   7.261   1.278  0.0897 -0.4099  0.4643
  130MOL    C6049338   0.157   7.170   1.249 -0.6067  0.8842 -0.1769
  130MOL    C6149339   0.108   7.037   1.197 -0.6610 -0.1043 -0.2749
  130MOL    C6249340   7.618   7.014   1.271  0.2905  0.2142 -0.0942
  130MOL    C6349341   7.530   6.911   1.206  0.4282 -0.0392  0.7339
  130MOL    C6449342   7.515   6.911   1.050 -0.2090  0.9648 -0.0490
  130MOL    C6549343   7.565   7.154   1.286 -0.3172  0.2178 -0.4689
  130MOL    H6649344   0.013   7.318   1.188  0.1866  0.1775  0.8068
  130MOL    H6749345   0.220   7.220   1.175  1.1716  0.3848  0.9582
  130MOL    H6849346   0.229   7.159   1.330 -0.3714  2.0126 -0.2351
  130MOL    H6949347   0.106   7.052   1.089 -1.3251 -1.3417 -0.4359
  130MOL    H7049348   0.188   6.967   1.222  0.6509  0.9477 -1.4936
  130MOL    H7149349   0.006   6.979   1.368  0.0224  1.8219  0.6030
  130MOL    H7249350   7.432   6.897   1.253  1.0559 -3.8437  1.0681
  130MOL    H7349351   7.582   6.822   1.239 -1.6940 -1.5449  0.1373
  130MOL    H7449352   7.550   7.007   1.013  1.0682  0.5663  0.0921
  130MOL    H7549353   7.585   6.844   0.999  0.4184  1.7690 -0.2548
  130MOL    H7649354   7.493   7.185   1.210 -1.0007  0.5453  0.3117
  130MOL    H7749355   7.505   7.162   1.376  0.4813  1.8989 -0.0675
  130MOL    C7849356   7.371   6.897   1.006 -0.0129 -0.1289 -0.5542
  130MOL    C7949357   7.272   7.008   1.043  0.9070 -0.2152 -0.1227
  130MOL    C8049358   7.144   6.973   0.969  0.8849  0.8048 -0.1876
  130MOL    C8149359   7.195   6.912   0.834 -0.6647 -0.1541  0.0498
  130MOL    C8249360   7.212   7.018   0.721  0.8767  0.2313  0.2470
  130MOL    C8349361   7.227   6.963   0.574 -0.5697  0.4186 -0.0300
  130MOL    C8449362   7.338   6.860   0.863  0.2718  0.2148 -0.2607
  130MOL    H8549363   7.338   6.813   1.067 -2.7152  0.8430 -0.6219
  130MOL    H8649364   7.256   7.020   1.150  2.8547 -0.1720  0.1692
  130MOL    H8749365   7.306   7.108   1.017 -1.1000  0.6836  0.5533
  130MOL    H8849366   7.101   6.900   1.037  1.9116  0.4349  0.0851
  130MOL    H8949367   7.076   7.057   0.962  1.0189  0.9179 -0.1288
  130MOL    H9049368   7.134   6.839   0.783 -0.0769 -0.2449 -0.5255
  130MOL    H9149369   7.288   7.094   0.738  0.0962  0.7884  1.2652
  130MOL    H9249370   7.118   7.073   0.720  0.0265 -1.1897 -0.6231
  130MOL    H9349371   7.130   6.957   0.524 -1.3847  1.8741  1.2886
  130MOL    H9449372   7.259   6.860   0.565  0.6153  0.8208 -0.5418
  130MOL    H9549373   7.420   6.911   0.812 -0.0080  1.4480  0.5237
  130MOL    H9649374   7.348   6.753   0.847  2.3002  0.2817  0.3209
  130MOL    C9749375   7.333   7.048   0.494  0.0905 -0.7838 -0.8839
  130MOL    C9849376   7.317   7.027   0.341  0.2968  0.2855  1.2547
  130MOL    C9949377   7.453   7.081   0.287  0.5612  0.3936 -0.4817
  130MOL   C10049378   7.545   7.098   0.407 -0.0952 -0.1257  0.2715
  130MOL   C10149379   0.048   7.075   0.376  0.1591  0.4531  0.8054
  130MOL   C10249380   0.099   7.176   0.265  0.0184  0.9878  0.1791
  130MOL   C10349381   7.484   7.017   0.527  0.4725  0.0194 -0.2697
  130MOL   H10449382   7.321   7.154   0.513 -1.4307 -1.3635  1.6358
  130MOL   H10549383   7.307   6.921   0.314 -0.3044  0.5060  0.6056
  130MOL   H10649384   7.227   7.067   0.296  0.8689  1.5878  1.2523
  130MOL   H10749385   7.504   7.014   0.219 -0.7304  0.5881 -1.6778
  130MOL   H10849386   7.433   7.177   0.239 -0.5473 -0.6859 -2.2412
  130MOL   H10949387   7.523   7.201   0.436  1.4126  0.7809 -1.6760
  130MOL   H11049388   0.106   7.083   0.468 -1.7413  0.3345  2.0646
  130MOL   H11149389   0.055   6.977   0.330 -0.0559  0.6246  0.4121
  130MOL   H11249390   0.025   7.180   0.185  2.2419  0.2405 -1.9722
  130MOL   H11349391   0.105   7.279   0.302 -0.1701  0.8351  0.6375
  130MOL   H11449392   7.503   6.910   0.519  1.8686  0.1520  0.9853
  130MOL   H11549393   7.511   7.042   0.630 -0.1609 -0.4416  0.0127
  130MOL   C11649394   0.238   7.141   0.212 -0.1967 -0.1138 -0.7315
  130MOL   C11749395   0.246   7.030   0.112 -0.5471 -0.0794  0.6850
  130MOL   C11849396   0.351   7.055   0.010 -0.4646  0.2016  0.5936
  130MOL   C11949397   0.402   7.198   0.038  0.4001 -0.1329 -0.6095
  130MOL   C12049398   0.437   7.289   7.565  0.3569 -0.3794  0.0879
  130MOL   C12149399   0.506   7.427   7.593  0.2155 -0.0032 -0.8430
  130MOL   C12249400   0.292   7.256   0.130  0.2041  0.0626 -0.1027
  130MOL   H12349401   0.321   7.125   0.281 -2.0842  0.0426  1.6307
  130MOL   H12449402   0.159   7.011   0.049  0.4603 -0.3595 -0.6454
  130MOL   H12549403   0.266   6.937   0.164  1.7175 -0.4374 -0.7677
  130MOL   H12649404   0.315   7.030   7.558  0.0329 -1.3761  0.7937
  130MOL   H12749405   0.438   6.989   0.011 -0.0044  0.7165 -2.4078
  130MOL   H12849406   0.494   7.197   0.096  0.0819  0.1486 -0.0999
  130MOL   H12949407   0.350   7.309   7.502 -1.0736  0.4855  2.2845
  130MOL   H13049408   0.502   7.233   7.498 -0.7050 -1.2777 -0.2163
  130MOL   H13149409   0.611   7.409   7.615  0.6272  3.4738  0.3007
  130MOL   H13249410   0.462   7.456   0.042 -0.6950  1.0086 -1.5503
  130MOL   H13349411   0.320   7.337   0.197 -0.2454  1.4180 -1.5397
  130MOL   H13449412   0.218   7.309   0.071  0.5759  1.9765  1.1076
  130MOL   C13549413   0.494   7.535   7.480 -0.2795  0.2211  0.2210
  130MOL   C13649414   0.360   7.576   7.451  0.5035 -0.5102 -0.3380
  130MOL   C13749415   0.376   0.052   7.363  0.1634 -0.1129  0.2454
  130MOL   C13849416   0.505   0.128   7.416  0.4547 -0.0307  0.0165
  130MOL   C13949417   0.584   0.189   7.300 -0.7515  0.4905 -0.9489
  130MOL   C14049418   0.693   0.282   7.344 -0.1981  0.3511 -0.1993
  130MOL   C14149419   0.574   0.016   7.502  0.0819 -0.0422  0.3233
  130MOL   H14249420   0.525   7.488   7.387  1.4835  0.3321  0.7428
  130MOL   H14349421   0.306   7.495   7.403 -0.4502 -1.4033  2.1735
  130MOL   H14449422   0.296   7.598   7.536  0.8296 -1.0534  0.0536
  130MOL   H14549423   0.385   0.008   7.263 -1.0672 -1.5750  0.7766
  130MOL   H14649424   0.282   0.107   7.360 -1.0756 -2.1379  1.4145
  130MOL   H14749425   0.474   0.209   7.481 -0.4979 -1.1330  0.9662
  130MOL   H14849426   0.517   0.250   7.239 -1.9812 -0.6184 -0.7231
  130MOL   H14949427   0.619   0.108   7.236  1.9561  1.2009 -0.4207
  130MOL   H15049428   0.656   0.363   7.407  1.0316 -0.1191  1.1545
  130MOL   H15149429   0.770   0.231   7.403  0.6069  0.6797 -0.9487
  130MOL   H15249430   0.565   0.046   7.606 -1.0610  0.3284  0.1250
  130MOL   H15349431   0.675   7.646   7.464 -0.3767 -0.7952 -0.6007
  130MOL   C15449432   0.771   0.344   7.234 -0.2031  0.3585 -0.0503
  130MOL   C15549433   0.890   0.426   7.294  0.1154  0.2883 -0.3865
  130MOL   C15649434   0.923   0.530   7.194 -0.3278 -0.3608  0.1616
  130MOL   C15749435   0.807   0.542   7.099  0.4101  0.0189  0.4088
  130MOL   C15849436   0.749   0.684   7.093  0.3560 -0.3117  0.4141
  130MOL   C15949437   0.834   0.769   6.994 -0.1030  0.0233 -0.1227
  130MOL   C16049438   0.700   0.449   7.153 -0.9524  0.0179  0.4491
  130MOL   H16149439   0.803   0.271   7.160 -1.0115 -0.7732  0.7088
  130MOL   H16249440   0.879   0.477   7.390  0.9090 -0.4670  0.1098
  130MOL   H16349441   0.976   0.362   7.310 -0.6186 -1.1137 -1.9310
  130MOL   H16449442   0.941   0.630   7.236 -3.7832  0.5947 -0.4462
  130MOL   H16549443   1.016   0.497   7.148 -0.0009 -1.4240  1.5617
  130MOL   H16649444   0.846   0.502   7.006 -0.4008 -1.0561  0.5266
  130MOL   H16749445   0.735   0.730   7.191  0.8376 -1.4690  1.0374
  130MOL   H16849446   0.648   0.684   7.054  0.5379  0.7900 -0.0678
  130MOL   H16949447   0.941   0.777   7.010 -0.1179 -2.8560  1.6356
  130MOL   H17049448   0.832   0.721   6.896 -2.4876 -1.3408  0.5423
  130MOL   H17149449   0.646   0.414   7.065  0.5489  2.4620 -1.4847
  130MOL   H17249450   0.619   0.495   7.209 -2.5618 -3.2052  0.9184
  130MOL   C17349451   0.783   0.914   6.987  0.3514  0.1620 -0.2312
  130MOL   C17449452   0.816   1.000   7.113  0.3454 -0.2024  0.4058
  130MOL   C17549453   0.877   1.136   7.071 -0.0965 -0.2664  0.5480
  130MOL   C17649454   0.840   1.150   6.922  0.4321  0.4022 -0.0167
  130MOL   C17749455   0.926   1.241   6.837 -0.5188 -0.0145  0.3337
  130MOL   C17849456   0.913   1.392   6.889 -0.5199 -0.7116 -0.5000
  130MOL   C17949457   0.839   1.001   6.873 -0.4390  0.5016 -0.4187
  130MOL   H18049458   0.678   0.914   6.957  0.4132  0.0969 -0.4526
  130MOL   H18149459   0.879   0.952   7.188  2.4991  0.8089 -0.6987
  130MOL   H18249460   0.719   1.018   7.159 -0.0340  1.7004 -1.0518
  130MOL   H18349461   0.840   1.224   7.124 -0.6723 -0.0411 -0.2111
  130MOL   H18449462   0.985   1.139   7.090 -0.0136 -2.0217  0.4122
  130MOL   H18549463   0.742   1.196   6.917  0.4007  0.2982 -0.3362
  130MOL   H18649464   0.880   1.218   6.741 -0.7210 -3.4249  1.1765
  130MOL   H18749465   1.029   1.208   6.821 -0.3145 -0.2442  2.0555
  130MOL   H18849466   0.958   1.402   6.988  0.8019 -2.0932 -0.9542
  130MOL   H18949467   0.807   1.407   6.909 -0.1473  0.2510  0.8419
  130MOL   H19049468   0.936   0.957   6.848 -0.4047 -0.7468  1.7555
  130MOL   H19149469   0.784   0.987   6.780 -1.8894  0.7729  0.3717
  130MOL   C19249470   0.980   1.499   6.800 -0.0746 -0.0968 -0.1090
  130MOL   C19349471   1.132   1.477   6.784  1.0870  0.2674  0.3711
  130MOL   C19449472   1.197   1.601   6.845 -0.5316  0.0517 -0.1907
  130MOL   C19549473   1.095   1.646   6.954 -0.5584 -0.4239  0.0231
  130MOL   C19649474   1.116   1.789   7.015  0.6291  0.2873 -0.0830
  130MOL   C19749475   1.025   1.836   7.123 -1.4774  0.0520  0.6165
  130MOL   C19849476   0.967   1.628   6.883  0.1081 -0.3338  0.0460
  130MOL   H19949477   0.935   1.510   6.701  0.1274  1.4791 -0.0304
  130MOL   H20049478   1.166   1.381   6.823 -0.8238  0.0059  1.4452
  130MOL   H20149479   1.151   1.480   6.677  1.2135 -0.7422  0.3554
  130MOL   H20249480   1.204   1.682   6.772 -3.0997 -0.3279 -0.9139
  130MOL   H20349481   1.292   1.574   6.891  0.6641 -0.4629 -2.8458
  130MOL   H20449482   1.103   1.575   7.037  1.0202 -1.7739 -1.2451
  130MOL   H20549483   1.112   1.861   6.933 -0.6911 -1.3268 -1.4732
  130MOL   H20649484   1.218   1.798   7.051  0.3199  1.7869  0.4333
  130MOL   H20749485   1.008   1.749   7.187  2.7164  1.0123  3.2093
  130MOL   H20849486   0.929   1.869   7.085 -0.6418  0.1587 -1.4857
  130MOL   H20949487   0.967   1.707   6.808 -0.3245 -1.6540 -1.3761
  130MOL   H21049488   0.880   1.625   6.948 -1.4411  0.9056 -1.9021
  130MOL   C21149489   1.084   1.954   7.205 -0.1967  0.6280  0.3990
  130MOL   C21249490   1.197   1.901   7.297 -0.0611  0.0814  0.1668
  130MOL   C21349491   1.185   1.975   7.436 -0.6110 -0.1669 -0.3382
  130MOL   C21449492   1.029   1.981   7.456 -0.0289  0.6169 -0.5498
  130MOL   C21549493   0.973   1.845   7.505 -0.5568  0.4278 -0.2383
  130MOL   C21649494   1.007   1.834   0.015  0.7243  0.2019  0.4213
  130MOL   C21749495   0.985   2.017   7.310 -0.3150  0.3362 -1.2753
  130MOL   H21849496   1.128   2.028   7.138  0.8085 -1.1371 -0.9574
  130MOL   H21949497   1.194   1.795   7.318  0.0580  0.2808  1.2344
  130MOL   H22049498   1.294   1.913   7.249 -0.5992  0.9397 -0.7205
  130MOL   H22149499   1.234   1.939   7.526 -1.2923  0.9134  0.4657
  130MOL   H22249500   1.223   2.077   7.430 -0.9907  0.0135  0.3462
  130MOL   H22349501   1.012   2.061   7.528  1.2763 -0.2720  0.7729
  130MOL   H22449502   1.015   1.758   7.454 -0.7779  0.3079 -0.2141
  130MOL   H22549503   0.867   1.827   7.488 -0.3660 -2.2015  1.1216
  130MOL   H22649504   1.114   1.835   0.036  0.5750 -2.2174  1.5246
  130MOL   H22749505   0.963   1.916   0.072  1.4743 -0.8387  2.5620
  130MOL   H22849506   0.983   2.126   7.306 -0.3627  0.3705 -0.2602
  130MOL   H22949507   0.884   1.979   7.295 -1.2318  2.2258 -0.0517
  130MOL   C23049508   0.964   1.697   0.073 -0.0722 -0.0884 -0.2303
  130MOL   C23149509   0.816   1.679   0.065  0.5857  0.3541 -0.0722
  130MOL   C23249510   0.771   1.588   0.181 -0.5003  0.2719 -0.6295
  130MOL   C23349511   0.865   1.632   0.291 -0.1213  0.0623  0.2602
  130MOL   C23449512   0.896   1.515   0.381  0.7723  0.9748 -0.4248
  130MOL   C23549513   0.959   1.550   0.519  0.1650 -0.5453  0.4518
  130MOL   C23649514   0.989   1.686   0.229 -0.4898  0.0504  0.6683
  130MOL   H23749515   1.016   1.614   0.027  0.7668 -0.4076  1.2379
  130MOL   H23849516   0.768   1.777   0.074  2.7975  1.6263 -1.7313
  130MOL   H23949517   0.790   1.637   7.615  2.9005 -2.4430  0.4437
  130MOL   H24049518   0.785   1.481   0.162 -0.1785  0.4180 -1.2310
  130MOL   H24149519   0.667   1.596   0.211 -0.8869  0.3262 -1.9893
  130MOL   H24249520   0.817   1.717   0.340 -1.7028  0.0685 -1.2315
  130MOL   H24349521   0.965   1.445   0.332  0.8382  0.6494  0.1278
  130MOL   H24449522   0.799   1.469   0.396  1.3296 -0.3994 -0.8930
  130MOL   H24549523   1.041   1.620   0.502 -1.2863  1.0553 -0.0976
  130MOL   H24649524   0.890   1.607   0.582 -0.3387 -0.1760 -0.4221
  130MOL   H24749525   1.079   1.625   0.242  0.8838  2.1260  1.0573
  130MOL   H24849526   1.015   1.787   0.259 -1.5668  0.1273  1.3704
  130MOL   C24949527   1.007   1.436   0.600 -0.0064  0.0530 -0.1980
  130MOL   C25049528   1.070   1.485   0.741 -0.1392  0.1088  0.2722
  130MOL   C25149529   1.047   1.368   0.836  0.4563  0.1028  0.0175
  130MOL   C25249530   0.907   1.327   0.803  0.3879  0.3923  0.0526
  130MOL   C25349531   0.875   1.198   0.876 -0.4124  0.4293  0.3326
  130MOL   C25449532   0.737   1.150   0.838 -0.4324  0.8275 -0.0831
  130MOL   C25549533   0.897   1.340   0.653 -0.0918 -0.0910 -0.2970
  130MOL   H25649534   1.078   1.370   0.549  0.5997  0.4628  0.1151
  130MOL   H25749535   1.175   1.513   0.746  0.2182 -1.0519 -0.4211
  130MOL   H25849536   1.015   1.570   0.783  0.5334  0.8062 -0.2433
  130MOL   H25949537   1.056   1.393   0.941  1.2641  1.2417 -0.3086
  130MOL   H26049538   1.113   1.285   0.812 -1.8750 -1.7093 -0.2933
  130MOL   H26149539   0.845   1.402   0.853 -1.8820 -1.0564 -0.4848
  130MOL   H26249540   0.892   1.222   0.981 -0.6981 -0.5086  0.5960
  130MOL   H26349541   0.939   1.117   0.840 -1.7553  0.1283 -1.4389
  130MOL   H26449542   0.719   1.164   0.731 -0.8318  1.3054  0.0490
  130MOL   H26549543   0.661   1.218   0.876 -0.8442  0.1686  0.2865
  130MOL   H26649544   0.796   1.370   0.629 -0.6679 -1.4016  0.4296
  130MOL   H26749545   0.911   1.244   0.602  0.2208  0.7183 -1.7492
  130MOL   C26849546   0.704   1.001   0.877  0.1965  0.8564  0.0801
  130MOL   C26949547   0.564   0.963   0.838 -0.2872 -0.5001  0.0975
  130MOL   C27049548   0.477   0.964   0.962 -0.6384 -0.7632 -0.4494
  130MOL   C27149549   0.569   0.953   1.080 -0.4608 -0.2761 -0.4863
  130MOL   C27249550   0.538   1.055   1.192 -0.5713 -0.1780  0.4010
  130MOL   C27349551   0.406   1.023   1.275 -0.5088 -0.0276 -0.4707
  130MOL   C27449552   0.715   0.960   1.027  0.0687  0.0937  0.2646
  130MOL   H27549553   0.772   0.929   0.831 -0.9164  0.3790 -0.8225
  130MOL   H27649554   0.524   1.033   0.765 -0.3706 -1.5633 -0.8967
  130MOL   H27749555   0.579   0.864   0.794 -0.1879 -0.9592  1.1344
  130MOL   H27849556   0.434   1.065   0.966 -0.1725 -0.5570 -0.6717
  130MOL   H27949557   0.400   0.887   0.955 -1.6260  0.2493 -0.9020
  130MOL   H28049558   0.565   0.850   1.114 -1.2777 -0.2318 -0.4371
  130MOL   H28149559   0.523   1.147   1.136  1.5925  1.2669  2.1623
  130MOL   H28249560   0.621   1.083   1.257 -1.4966  1.9160  0.7116
  130MOL   H28349561   0.325   1.017   1.203  1.0136  1.4045 -2.3671
  130MOL   H28449562   0.411   0.923   1.319 -0.8389  0.2195  0.1405
  130MOL   H28549563   0.786   1.017   1.086 -0.3616  0.5959  0.3026
  130MOL   H28649564   0.765   0.864   1.040 -0.3711  0.1133  2.1431
  130MOL   C28749565   0.365   1.133   1.381  0.6881 -0.1751 -0.2597
  130MOL   C28849566   0.231   1.099   1.448 -0.2669  0.3204  0.2793
  130MOL   C28949567   0.248   1.152   1.596 -0.2814 -0.2930  0.4404
  130MOL   C29049568   0.386   1.226   1.598  0.3732  0.3487 -0.7423
  130MOL   C29149569   0.450   1.257   1.735  0.0195  0.2218  0.1071
  130MOL   C29249570   0.570   1.353   1.725 -0.2495  0.0996  0.1799
  130MOL   C29349571   0.460   1.148   1.499  0.0089  0.3568 -0.0223
  130MOL   H29449572   0.359   1.232   1.336 -1.6014 -0.3105 -0.2738
  130MOL   H29549573   0.148   1.151   1.400  1.2304  2.7917  0.2929
  130MOL   H29649574   0.203   0.994   1.448  0.6602  0.0377 -2.1198
  130MOL   H29749575   0.239   1.072   1.669 -0.2241 -0.4338  0.2928
  130MOL   H29849576   0.164   1.221   1.609  0.7771  0.8222  1.5393
  130MOL   H29949577   0.353   1.324   1.562  0.7012  0.4838 -0.6828
  130MOL   H30049578   0.476   1.166   1.789  0.5096 -1.1680 -2.3864
  130MOL   H30149579   0.367   1.302   1.789 -1.0292  1.4439 -2.4368
  130MOL   H30249580   0.557   1.449   1.675 -1.7394 -0.0077  0.3575
  130MOL   H30349581   0.634   1.312   1.647 -0.7692  4.5432 -2.8214
  130MOL   H30449582   0.490   1.047   1.528  0.6280 -0.2828 -2.8005
  130MOL   H30549583   0.555   1.196   1.477  0.7679 -1.0971 -0.0447
  130MOL   C30649584   0.641   1.372   1.861 -0.3235 -0.1809  0.2461
  130MOL   C30749585   0.700   1.243   1.910  0.4236  0.6403 -0.5611
  130MOL   C30849586   0.837   1.274   1.989  1.1031  0.0474 -0.7650
  130MOL   C30949587   0.847   1.433   1.995  0.1822  0.3707 -0.0013
  130MOL   C31049588   0.990   1.488   2.007  0.2802 -0.3081 -0.1408
  130MOL   C31149589   1.057   1.422   2.124 -0.2171 -0.1034 -1.1958
  130MOL   C31249590   0.769   1.461   1.865 -0.7055 -0.0443  0.1874
  130MOL   H31349591   0.580   1.417   1.940 -0.7736 -0.9964  0.3794
  130MOL   H31449592   0.627   1.180   1.960 -1.5573  3.2503 -0.0334
  130MOL   H31549593   0.721   1.171   1.831 -0.4963  2.3534 -2.4238
  130MOL   H31649594   0.829   1.233   2.090 -1.1484  0.8822 -0.5790
  130MOL   H31749595   0.930   1.233   1.949  1.1644 -2.3101  1.6509
  130MOL   H31849596   0.787   1.475   2.076  0.3273  1.9601 -0.6953
  130MOL   H31949597   1.046   1.469   1.916 -1.1949 -0.0213 -1.1326
  130MOL   H32049598   0.990   1.596   2.016  0.7161 -0.3548  0.4791
  130MOL   H32149599   1.068   1.313   2.126  0.4262 -0.0306  1.3302
  130MOL   H32249600   1.006   1.449   2.217 -0.5278  0.5712 -1.5659
  130MOL   H32349601   0.832   1.439   1.779 -1.1751  0.9117 -0.3984
  130MOL   H32449602   0.748   1.567   1.859 -0.2296  0.0596  0.3252
  130MOL   C32549603   1.202   1.471   2.130  0.1159  0.5835  0.0656
  130MOL   C32649604   1.277   1.407   2.246  0.1723 -0.3693  0.0354
  130MOL   C32749605   1.421   1.444   2.227 -0.2245 -0.0059  0.2127
  130MOL   C32849606   1.431   1.459   2.074  1.2102 -0.6978  0.7436
  130MOL   C32949607   1.482   1.595   2.023  0.2780 -0.3355 -0.7149
  130MOL   C33049608   1.624   1.624   2.068 -0.2956  0.6239 -0.2680
  130MOL   C33149609   1.293   1.438   2.009  0.0002  0.5491  0.3797
  130MOL   H33249610   1.204   1.578   2.153  0.5293  0.2936  1.4664
  130MOL   H33349611   1.272   1.298   2.246 -1.9214 -0.2970 -1.3042
  130MOL   H33449612   1.250   1.452   2.341  2.9425  1.0164  0.2269
  130MOL   H33549613   1.447   1.545   2.258  0.5320  0.0144 -0.4883
  130MOL   H33649614   1.495   1.373   2.263  0.8783  2.6710  3.5003
  130MOL   H33749615   1.489   1.371   2.044  2.7960  0.3873  0.5870
  130MOL   H33849616   1.475   1.597   1.914 -1.3504 -4.6074 -0.8010
  130MOL   H33949617   1.419   1.675   2.061 -1.9966 -2.5650  0.3705
  130MOL   H34049618   1.629   1.643   2.175 -0.2349 -0.7029 -0.0214
  130MOL   H34149619   1.695   1.548   2.036  1.0302  0.8490  2.0461
  130MOL   H34249620   1.292   1.333   1.978 -2.4475  0.9841 -1.1475
  130MOL   H34349621   1.282   1.493   1.916  3.8967 -2.0279 -1.7732
  130MOL   C34449622   1.680   1.746   1.999 -0.1225 -0.2850 -0.0852
  130MOL   C34549623   1.811   1.803   2.065  0.0931  0.5445  0.4606
  130MOL   C34649624   1.831   1.939   2.004  0.0072 -0.3102  0.0299
  130MOL   C34749625   1.691   1.991   1.970  0.2123  0.4268  0.1621
  130MOL   C34849626   1.671   2.023   1.818  0.2632  0.0752 -0.1089
  130MOL   C34949627   1.760   2.144   1.768 -0.1961 -0.4468  0.4421
  130MOL   C35049628   1.594   1.875   2.008  0.4159 -0.0320  0.1841
  130MOL   H35149629   1.686   1.730   1.891 -1.2990  1.9086 -0.4934
  130MOL   H35249630   1.895   1.739   2.034 -0.5819  0.6633 -1.7367
  130MOL   H35349631   1.803   1.805   2.173 -1.3201 -0.5994  0.3915
  130MOL   H35449632   1.878   2.001   2.081  1.1139 -0.0063 -0.8590
  130MOL   H35549633   1.900   1.932   1.920 -1.3073  0.9226 -1.1807
  130MOL   H35649634   1.666   2.078   2.031 -2.9694 -0.4391  0.2141
  130MOL   H35749635   1.696   1.942   1.750  2.9597 -0.1659  1.0935
  130MOL   H35849636   1.566   2.048   1.808  0.3713  1.6010  2.0682
  130MOL   H35949637   1.867   2.127   1.768  0.1998  1.5595 -3.6245
  130MOL   H36049638   1.737   2.216   1.846 -0.9385 -1.9048  1.6008
  130MOL   H36149639   1.544   1.875   2.105 -0.4058  1.3162 -0.2138
  130MOL   H36249640   1.517   1.858   1.932 -0.2021 -2.7724  1.3585
  130MOL   C36349641   1.711   2.206   1.640  0.7985 -0.2721 -0.2443
  130MOL   C36449642   1.693   2.105   1.522 -0.6740 -0.2324  0.5229
  130MOL   C36549643   1.762   2.160   1.400  0.1864  1.3521 -0.4251
  130MOL   C36649644   1.783   2.312   1.421 -0.7250 -0.3516 -0.3825
  130MOL   C36749645   1.901   2.370   1.337 -0.7857 -0.1595 -0.5640
  130MOL   C36849646   1.929   2.520   1.366 -0.2842  0.3902  0.0526
  130MOL   C36949647   1.807   2.307   1.577  0.5613 -0.4710 -0.2214
  130MOL   H37049648   1.614   2.247   1.668  0.3939 -1.8599  0.7999
  130MOL   H37149649   1.740   2.009   1.543 -0.1918  0.0293  0.6582
  130MOL   H37249650   1.589   2.078   1.508 -0.8117  1.3511 -1.6356
  130MOL   H37349651   1.861   2.115   1.405 -0.9163 -0.9771  1.0739
  130MOL   H37449652   1.706   2.140   1.309  0.2505 -3.0611  0.4118
  130MOL   H37549653   1.692   2.370   1.409 -2.0938 -2.4372 -0.3359
  130MOL   H37649654   1.995   2.317   1.354 -0.0821  1.3176  0.3614
  130MOL   H37749655   1.872   2.357   1.233 -0.4449 -0.9433 -0.5641
  130MOL   H37849656   2.022   2.550   1.318  0.3720  0.1390  1.1408
  130MOL   H37949657   1.923   2.540   1.473 -1.0650 -0.9536  0.2785
  130MOL   H38049658   1.907   2.267   1.597  0.2869 -0.8670  0.4017
  130MOL   H38149659   1.795   2.398   1.636 -0.2509  0.4837 -1.8525
  130MOL   H38249660   1.852   2.583   1.321 -0.5702  0.8925  1.2134
   7.64717   7.64717   7.64717
