;
; Gromacs include topology (itp) file.
; For Molecular Group XYZ
; Force field scheme: opls2005
; Produced from DL_FIELD v4.11
;


[ moleculetype ]
; name    nrexcl
XYZ    3

[ atoms ]
; nr   type   resnr   residu    atom    cgnr    charge    mass
    1        CA    1  MOL      C1     1  -0.1150000   12.0115
    2        CA    1  MOL      C2     2  -0.1150000   12.0115
    3        CA    1  MOL      C3     3   0.1500000   12.0115
    4       OHP    1  MOL      O4     4  -0.5850000   15.9994
    5        CA    1  MOL      C5     5  -0.1150000   12.0115
    6        CA    1  MOL      C6     6  -0.1150000   12.0115
    7        CA    1  MOL      C7     7  -0.1150000   12.0115
    8       CO4    1  MOL      C8     8   0.7000000   12.0115
    9         O    1  MOL      O9     9  -0.4700000   15.9994
   10        CA    1  MOL     C10    10  -0.1150000   12.0115
   11        CA    1  MOL     C11    11  -0.1150000   12.0115
   12        CA    1  MOL     C12    12  -0.1150000   12.0115
   13        CA    1  MOL     C13    13   0.0850000   12.0115
   14        OS    1  MOL     O14    14  -0.1700000   15.9994
   15        CA    1  MOL     C15    15   0.0850000   12.0115
   16        CA    1  MOL     C16    16  -0.1150000   12.0115
   17        CA    1  MOL     C17    17  -0.1150000   12.0115
   18        CA    1  MOL     C18    18   0.0850000   12.0115
   19        CA    1  MOL     C19    19  -0.1150000   12.0115
   20        CA    1  MOL     C20    20  -0.1150000   12.0115
   21        CA    1  MOL     C21    21  -0.1150000   12.0115
   22        CA    1  MOL     C22    22  -0.1150000   12.0115
   23        HA    1  MOL     H23    23   0.1150000    1.0080
   24        HA    1  MOL     H24    24   0.1150000    1.0080
   25        HA    1  MOL     H25    25   0.1150000    1.0080
   26        HA    1  MOL     H26    26   0.1150000    1.0080
   27        HA    1  MOL     H27    27   0.1150000    1.0080
   28        HA    1  MOL     H28    28   0.1150000    1.0080
   29        HA    1  MOL     H29    29   0.1150000    1.0080
   30        HA    1  MOL     H30    30   0.1150000    1.0080
   31        HA    1  MOL     H31    31   0.1150000    1.0080
   32        HA    1  MOL     H32    32   0.1150000    1.0080
   33        HA    1  MOL     H33    33   0.1150000    1.0080
   34        HA    1  MOL     H34    34   0.1150000    1.0080
   35        HO    1  MOL     H35    35   0.4350000    1.0080
   36        CA    1  MOL     C36    36  -0.1150000   12.0115
   37        CA    1  MOL     C37    37  -0.1150000   12.0115
   38        CA    1  MOL     C38    38   0.0850000   12.0115
   39        OS    1  MOL     O39    39  -0.1700000   15.9994
   40        CA    1  MOL     C40    40  -0.1150000   12.0115
   41        CA    1  MOL     C41    41  -0.1150000   12.0115
   42        CA    1  MOL     C42    42  -0.1150000   12.0115
   43       CO4    1  MOL     C43    43   0.7000000   12.0115
   44         O    1  MOL     O44    44  -0.4700000   15.9994
   45        CA    1  MOL     C45    45  -0.1150000   12.0115
   46        CA    1  MOL     C46    46  -0.1150000   12.0115
   47        CA    1  MOL     C47    47  -0.1150000   12.0115
   48        CA    1  MOL     C48    48   0.0850000   12.0115
   49        OS    1  MOL     O49    49  -0.1700000   15.9994
   50        CA    1  MOL     C50    50   0.0850000   12.0115
   51        CA    1  MOL     C51    51  -0.1150000   12.0115
   52        CA    1  MOL     C52    52  -0.1150000   12.0115
   53        CA    1  MOL     C53    53   0.0850000   12.0115
   54        CA    1  MOL     C54    54  -0.1150000   12.0115
   55        CA    1  MOL     C55    55  -0.1150000   12.0115
   56        CA    1  MOL     C56    56  -0.1150000   12.0115
   57        CA    1  MOL     C57    57  -0.1150000   12.0115
   58        HA    1  MOL     H58    58   0.1150000    1.0080
   59        HA    1  MOL     H59    59   0.1150000    1.0080
   60        HA    1  MOL     H60    60   0.1150000    1.0080
   61        HA    1  MOL     H61    61   0.1150000    1.0080
   62        HA    1  MOL     H62    62   0.1150000    1.0080
   63        HA    1  MOL     H63    63   0.1150000    1.0080
   64        HA    1  MOL     H64    64   0.1150000    1.0080
   65        HA    1  MOL     H65    65   0.1150000    1.0080
   66        HA    1  MOL     H66    66   0.1150000    1.0080
   67        HA    1  MOL     H67    67   0.1150000    1.0080
   68        HA    1  MOL     H68    68   0.1150000    1.0080
   69        HA    1  MOL     H69    69   0.1150000    1.0080
   70        CA    1  MOL     C70    70  -0.1150000   12.0115
   71        CA    1  MOL     C71    71  -0.1150000   12.0115
   72        CA    1  MOL     C72    72   0.0850000   12.0115
   73        OS    1  MOL     O73    73  -0.1700000   15.9994
   74        CA    1  MOL     C74    74  -0.1150000   12.0115
   75        CA    1  MOL     C75    75  -0.1150000   12.0115
   76        CA    1  MOL     C76    76  -0.1150000   12.0115
   77       CO4    1  MOL     C77    77   0.7000000   12.0115
   78         O    1  MOL     O78    78  -0.4700000   15.9994
   79        CA    1  MOL     C79    79  -0.1150000   12.0115
   80        CA    1  MOL     C80    80  -0.1150000   12.0115
   81        CA    1  MOL     C81    81  -0.1150000   12.0115
   82        CA    1  MOL     C82    82   0.0850000   12.0115
   83        OS    1  MOL     O83    83  -0.1700000   15.9994
   84        CA    1  MOL     C84    84   0.0850000   12.0115
   85        CA    1  MOL     C85    85  -0.1150000   12.0115
   86        CA    1  MOL     C86    86  -0.1150000   12.0115
   87        CA    1  MOL     C87    87   0.0850000   12.0115
   88        CA    1  MOL     C88    88  -0.1150000   12.0115
   89        CA    1  MOL     C89    89  -0.1150000   12.0115
   90        CA    1  MOL     C90    90  -0.1150000   12.0115
   91        CA    1  MOL     C91    91  -0.1150000   12.0115
   92        HA    1  MOL     H92    92   0.1150000    1.0080
   93        HA    1  MOL     H93    93   0.1150000    1.0080
   94        HA    1  MOL     H94    94   0.1150000    1.0080
   95        HA    1  MOL     H95    95   0.1150000    1.0080
   96        HA    1  MOL     H96    96   0.1150000    1.0080
   97        HA    1  MOL     H97    97   0.1150000    1.0080
   98        HA    1  MOL     H98    98   0.1150000    1.0080
   99        HA    1  MOL     H99    99   0.1150000    1.0080
  100        HA    1  MOL    H100   100   0.1150000    1.0080
  101        HA    1  MOL    H101   101   0.1150000    1.0080
  102        HA    1  MOL    H102   102   0.1150000    1.0080
  103        HA    1  MOL    H103   103   0.1150000    1.0080
  104        CA    1  MOL    C104   104  -0.1150000   12.0115
  105        CA    1  MOL    C105   105  -0.1150000   12.0115
  106        CA    1  MOL    C106   106   0.0850000   12.0115
  107        OS    1  MOL    O107   107  -0.1700000   15.9994
  108        CA    1  MOL    C108   108  -0.1150000   12.0115
  109        CA    1  MOL    C109   109  -0.1150000   12.0115
  110        CA    1  MOL    C110   110  -0.1150000   12.0115
  111       CO4    1  MOL    C111   111   0.7000000   12.0115
  112         O    1  MOL    O112   112  -0.4700000   15.9994
  113        CA    1  MOL    C113   113  -0.1150000   12.0115
  114        CA    1  MOL    C114   114  -0.1150000   12.0115
  115        CA    1  MOL    C115   115  -0.1150000   12.0115
  116        CA    1  MOL    C116   116   0.0850000   12.0115
  117        OS    1  MOL    O117   117  -0.1700000   15.9994
  118        CA    1  MOL    C118   118   0.0850000   12.0115
  119        CA    1  MOL    C119   119  -0.1150000   12.0115
  120        CA    1  MOL    C120   120  -0.1150000   12.0115
  121        CA    1  MOL    C121   121   0.0850000   12.0115
  122        CA    1  MOL    C122   122  -0.1150000   12.0115
  123        CA    1  MOL    C123   123  -0.1150000   12.0115
  124        CA    1  MOL    C124   124  -0.1150000   12.0115
  125        CA    1  MOL    C125   125  -0.1150000   12.0115
  126        HA    1  MOL    H126   126   0.1150000    1.0080
  127        HA    1  MOL    H127   127   0.1150000    1.0080
  128        HA    1  MOL    H128   128   0.1150000    1.0080
  129        HA    1  MOL    H129   129   0.1150000    1.0080
  130        HA    1  MOL    H130   130   0.1150000    1.0080
  131        HA    1  MOL    H131   131   0.1150000    1.0080
  132        HA    1  MOL    H132   132   0.1150000    1.0080
  133        HA    1  MOL    H133   133   0.1150000    1.0080
  134        HA    1  MOL    H134   134   0.1150000    1.0080
  135        HA    1  MOL    H135   135   0.1150000    1.0080
  136        HA    1  MOL    H136   136   0.1150000    1.0080
  137        HA    1  MOL    H137   137   0.1150000    1.0080
  138        CA    1  MOL    C138   138  -0.1150000   12.0115
  139        CA    1  MOL    C139   139  -0.1150000   12.0115
  140        CA    1  MOL    C140   140   0.0850000   12.0115
  141        OS    1  MOL    O141   141  -0.1700000   15.9994
  142        CA    1  MOL    C142   142  -0.1150000   12.0115
  143        CA    1  MOL    C143   143  -0.1150000   12.0115
  144        CA    1  MOL    C144   144  -0.1150000   12.0115
  145       CO4    1  MOL    C145   145   0.7000000   12.0115
  146         O    1  MOL    O146   146  -0.4700000   15.9994
  147        CA    1  MOL    C147   147  -0.1150000   12.0115
  148        CA    1  MOL    C148   148  -0.1150000   12.0115
  149        CA    1  MOL    C149   149  -0.1150000   12.0115
  150        CA    1  MOL    C150   150   0.0850000   12.0115
  151        OS    1  MOL    O151   151  -0.1700000   15.9994
  152        CA    1  MOL    C152   152   0.0850000   12.0115
  153        CA    1  MOL    C153   153  -0.1150000   12.0115
  154        CA    1  MOL    C154   154  -0.1150000   12.0115
  155        CA    1  MOL    C155   155   0.0850000   12.0115
  156        CA    1  MOL    C156   156  -0.1150000   12.0115
  157        CA    1  MOL    C157   157  -0.1150000   12.0115
  158        CA    1  MOL    C158   158  -0.1150000   12.0115
  159        CA    1  MOL    C159   159  -0.1150000   12.0115
  160        HA    1  MOL    H160   160   0.1150000    1.0080
  161        HA    1  MOL    H161   161   0.1150000    1.0080
  162        HA    1  MOL    H162   162   0.1150000    1.0080
  163        HA    1  MOL    H163   163   0.1150000    1.0080
  164        HA    1  MOL    H164   164   0.1150000    1.0080
  165        HA    1  MOL    H165   165   0.1150000    1.0080
  166        HA    1  MOL    H166   166   0.1150000    1.0080
  167        HA    1  MOL    H167   167   0.1150000    1.0080
  168        HA    1  MOL    H168   168   0.1150000    1.0080
  169        HA    1  MOL    H169   169   0.1150000    1.0080
  170        HA    1  MOL    H170   170   0.1150000    1.0080
  171        HA    1  MOL    H171   171   0.1150000    1.0080
  172        CA    1  MOL    C172   172  -0.1150000   12.0115
  173        CA    1  MOL    C173   173  -0.1150000   12.0115
  174        CA    1  MOL    C174   174   0.0850000   12.0115
  175        OS    1  MOL    O175   175  -0.1700000   15.9994
  176        CA    1  MOL    C176   176  -0.1150000   12.0115
  177        CA    1  MOL    C177   177  -0.1150000   12.0115
  178        CA    1  MOL    C178   178  -0.1150000   12.0115
  179       CO4    1  MOL    C179   179   0.7000000   12.0115
  180         O    1  MOL    O180   180  -0.4700000   15.9994
  181        CA    1  MOL    C181   181  -0.1150000   12.0115
  182        CA    1  MOL    C182   182  -0.1150000   12.0115
  183        CA    1  MOL    C183   183  -0.1150000   12.0115
  184        CA    1  MOL    C184   184   0.0850000   12.0115
  185        OS    1  MOL    O185   185  -0.1700000   15.9994
  186        CA    1  MOL    C186   186   0.0850000   12.0115
  187        CA    1  MOL    C187   187  -0.1150000   12.0115
  188        CA    1  MOL    C188   188  -0.1150000   12.0115
  189        CA    1  MOL    C189   189   0.0850000   12.0115
  190        CA    1  MOL    C190   190  -0.1150000   12.0115
  191        CA    1  MOL    C191   191  -0.1150000   12.0115
  192        CA    1  MOL    C192   192  -0.1150000   12.0115
  193        CA    1  MOL    C193   193  -0.1150000   12.0115
  194        HA    1  MOL    H194   194   0.1150000    1.0080
  195        HA    1  MOL    H195   195   0.1150000    1.0080
  196        HA    1  MOL    H196   196   0.1150000    1.0080
  197        HA    1  MOL    H197   197   0.1150000    1.0080
  198        HA    1  MOL    H198   198   0.1150000    1.0080
  199        HA    1  MOL    H199   199   0.1150000    1.0080
  200        HA    1  MOL    H200   200   0.1150000    1.0080
  201        HA    1  MOL    H201   201   0.1150000    1.0080
  202        HA    1  MOL    H202   202   0.1150000    1.0080
  203        HA    1  MOL    H203   203   0.1150000    1.0080
  204        HA    1  MOL    H204   204   0.1150000    1.0080
  205        HA    1  MOL    H205   205   0.1150000    1.0080
  206        CA    1  MOL    C206   206  -0.1150000   12.0115
  207        CA    1  MOL    C207   207  -0.1150000   12.0115
  208        CA    1  MOL    C208   208   0.0850000   12.0115
  209        OS    1  MOL    O209   209  -0.1700000   15.9994
  210        CA    1  MOL    C210   210  -0.1150000   12.0115
  211        CA    1  MOL    C211   211  -0.1150000   12.0115
  212        CA    1  MOL    C212   212  -0.1150000   12.0115
  213       CO4    1  MOL    C213   213   0.7000000   12.0115
  214         O    1  MOL    O214   214  -0.4700000   15.9994
  215        CA    1  MOL    C215   215  -0.1150000   12.0115
  216        CA    1  MOL    C216   216  -0.1150000   12.0115
  217        CA    1  MOL    C217   217  -0.1150000   12.0115
  218        CA    1  MOL    C218   218   0.0850000   12.0115
  219        OS    1  MOL    O219   219  -0.1700000   15.9994
  220        CA    1  MOL    C220   220   0.0850000   12.0115
  221        CA    1  MOL    C221   221  -0.1150000   12.0115
  222        CA    1  MOL    C222   222  -0.1150000   12.0115
  223        CA    1  MOL    C223   223   0.0850000   12.0115
  224        CA    1  MOL    C224   224  -0.1150000   12.0115
  225        CA    1  MOL    C225   225  -0.1150000   12.0115
  226        CA    1  MOL    C226   226  -0.1150000   12.0115
  227        CA    1  MOL    C227   227  -0.1150000   12.0115
  228        HA    1  MOL    H228   228   0.1150000    1.0080
  229        HA    1  MOL    H229   229   0.1150000    1.0080
  230        HA    1  MOL    H230   230   0.1150000    1.0080
  231        HA    1  MOL    H231   231   0.1150000    1.0080
  232        HA    1  MOL    H232   232   0.1150000    1.0080
  233        HA    1  MOL    H233   233   0.1150000    1.0080
  234        HA    1  MOL    H234   234   0.1150000    1.0080
  235        HA    1  MOL    H235   235   0.1150000    1.0080
  236        HA    1  MOL    H236   236   0.1150000    1.0080
  237        HA    1  MOL    H237   237   0.1150000    1.0080
  238        HA    1  MOL    H238   238   0.1150000    1.0080
  239        HA    1  MOL    H239   239   0.1150000    1.0080
  240        CA    1  MOL    C240   240  -0.1150000   12.0115
  241        CA    1  MOL    C241   241  -0.1150000   12.0115
  242        CA    1  MOL    C242   242   0.0850000   12.0115
  243        OS    1  MOL    O243   243  -0.1700000   15.9994
  244        CA    1  MOL    C244   244  -0.1150000   12.0115
  245        CA    1  MOL    C245   245  -0.1150000   12.0115
  246        CA    1  MOL    C246   246  -0.1150000   12.0115
  247       CO4    1  MOL    C247   247   0.7000000   12.0115
  248         O    1  MOL    O248   248  -0.4700000   15.9994
  249        CA    1  MOL    C249   249  -0.1150000   12.0115
  250        CA    1  MOL    C250   250  -0.1150000   12.0115
  251        CA    1  MOL    C251   251  -0.1150000   12.0115
  252        CA    1  MOL    C252   252   0.0850000   12.0115
  253        OS    1  MOL    O253   253  -0.1700000   15.9994
  254        CA    1  MOL    C254   254   0.0850000   12.0115
  255        CA    1  MOL    C255   255  -0.1150000   12.0115
  256        CA    1  MOL    C256   256  -0.1150000   12.0115
  257        CA    1  MOL    C257   257   0.0850000   12.0115
  258        CA    1  MOL    C258   258  -0.1150000   12.0115
  259        CA    1  MOL    C259   259  -0.1150000   12.0115
  260        CA    1  MOL    C260   260  -0.1150000   12.0115
  261        CA    1  MOL    C261   261  -0.1150000   12.0115
  262        HA    1  MOL    H262   262   0.1150000    1.0080
  263        HA    1  MOL    H263   263   0.1150000    1.0080
  264        HA    1  MOL    H264   264   0.1150000    1.0080
  265        HA    1  MOL    H265   265   0.1150000    1.0080
  266        HA    1  MOL    H266   266   0.1150000    1.0080
  267        HA    1  MOL    H267   267   0.1150000    1.0080
  268        HA    1  MOL    H268   268   0.1150000    1.0080
  269        HA    1  MOL    H269   269   0.1150000    1.0080
  270        HA    1  MOL    H270   270   0.1150000    1.0080
  271        HA    1  MOL    H271   271   0.1150000    1.0080
  272        HA    1  MOL    H272   272   0.1150000    1.0080
  273        HA    1  MOL    H273   273   0.1150000    1.0080
  274        CA    1  MOL    C274   274  -0.1150000   12.0115
  275        CA    1  MOL    C275   275  -0.1150000   12.0115
  276        CA    1  MOL    C276   276   0.0850000   12.0115
  277        OS    1  MOL    O277   277  -0.1700000   15.9994
  278        CA    1  MOL    C278   278  -0.1150000   12.0115
  279        CA    1  MOL    C279   279  -0.1150000   12.0115
  280        CA    1  MOL    C280   280  -0.1150000   12.0115
  281       CO4    1  MOL    C281   281   0.7000000   12.0115
  282         O    1  MOL    O282   282  -0.4700000   15.9994
  283        CA    1  MOL    C283   283  -0.1150000   12.0115
  284        CA    1  MOL    C284   284  -0.1150000   12.0115
  285        CA    1  MOL    C285   285  -0.1150000   12.0115
  286        CA    1  MOL    C286   286   0.0850000   12.0115
  287        OS    1  MOL    O287   287  -0.1700000   15.9994
  288        CA    1  MOL    C288   288   0.0850000   12.0115
  289        CA    1  MOL    C289   289  -0.1150000   12.0115
  290        CA    1  MOL    C290   290  -0.1150000   12.0115
  291        CA    1  MOL    C291   291   0.0850000   12.0115
  292        CA    1  MOL    C292   292  -0.1150000   12.0115
  293        CA    1  MOL    C293   293  -0.1150000   12.0115
  294        CA    1  MOL    C294   294  -0.1150000   12.0115
  295        CA    1  MOL    C295   295  -0.1150000   12.0115
  296        HA    1  MOL    H296   296   0.1150000    1.0080
  297        HA    1  MOL    H297   297   0.1150000    1.0080
  298        HA    1  MOL    H298   298   0.1150000    1.0080
  299        HA    1  MOL    H299   299   0.1150000    1.0080
  300        HA    1  MOL    H300   300   0.1150000    1.0080
  301        HA    1  MOL    H301   301   0.1150000    1.0080
  302        HA    1  MOL    H302   302   0.1150000    1.0080
  303        HA    1  MOL    H303   303   0.1150000    1.0080
  304        HA    1  MOL    H304   304   0.1150000    1.0080
  305        HA    1  MOL    H305   305   0.1150000    1.0080
  306        HA    1  MOL    H306   306   0.1150000    1.0080
  307        HA    1  MOL    H307   307   0.1150000    1.0080
  308        CA    1  MOL    C308   308  -0.1150000   12.0115
  309        CA    1  MOL    C309   309  -0.1150000   12.0115
  310        CA    1  MOL    C310   310   0.0850000   12.0115
  311        OS    1  MOL    O311   311  -0.1700000   15.9994
  312        CA    1  MOL    C312   312  -0.1150000   12.0115
  313        CA    1  MOL    C313   313  -0.1150000   12.0115
  314        CA    1  MOL    C314   314  -0.1150000   12.0115
  315       CO4    1  MOL    C315   315   0.7000000   12.0115
  316         O    1  MOL    O316   316  -0.4700000   15.9994
  317        CA    1  MOL    C317   317  -0.1150000   12.0115
  318        CA    1  MOL    C318   318  -0.1150000   12.0115
  319        CA    1  MOL    C319   319  -0.1150000   12.0115
  320        CA    1  MOL    C320   320   0.0850000   12.0115
  321        OS    1  MOL    O321   321  -0.1700000   15.9994
  322        CA    1  MOL    C322   322   0.0850000   12.0115
  323        CA    1  MOL    C323   323  -0.1150000   12.0115
  324        CA    1  MOL    C324   324  -0.1150000   12.0115
  325        CA    1  MOL    C325   325   0.0850000   12.0115
  326        CA    1  MOL    C326   326  -0.1150000   12.0115
  327        CA    1  MOL    C327   327  -0.1150000   12.0115
  328        CA    1  MOL    C328   328  -0.1150000   12.0115
  329        CA    1  MOL    C329   329  -0.1150000   12.0115
  330        HA    1  MOL    H330   330   0.1150000    1.0080
  331        HA    1  MOL    H331   331   0.1150000    1.0080
  332        HA    1  MOL    H332   332   0.1150000    1.0080
  333        HA    1  MOL    H333   333   0.1150000    1.0080
  334        HA    1  MOL    H334   334   0.1150000    1.0080
  335        HA    1  MOL    H335   335   0.1150000    1.0080
  336        HA    1  MOL    H336   336   0.1150000    1.0080
  337        HA    1  MOL    H337   337   0.1150000    1.0080
  338        HA    1  MOL    H338   338   0.1150000    1.0080
  339        HA    1  MOL    H339   339   0.1150000    1.0080
  340        HA    1  MOL    H340   340   0.1150000    1.0080
  341        HA    1  MOL    H341   341   0.1150000    1.0080
  342        CA    1  MOL    C342   342  -0.1150000   12.0115
  343        CA    1  MOL    C343   343  -0.1150000   12.0115
  344        CA    1  MOL    C344   344   0.0850000   12.0115
  345        OS    1  MOL    O345   345  -0.1700000   15.9994
  346        CA    1  MOL    C346   346  -0.1150000   12.0115
  347        CA    1  MOL    C347   347  -0.1150000   12.0115
  348        CA    1  MOL    C348   348  -0.1150000   12.0115
  349       CO4    1  MOL    C349   349   0.7000000   12.0115
  350         O    1  MOL    O350   350  -0.4700000   15.9994
  351        CA    1  MOL    C351   351  -0.1150000   12.0115
  352        CA    1  MOL    C352   352  -0.1150000   12.0115
  353        CA    1  MOL    C353   353  -0.1150000   12.0115
  354        CA    1  MOL    C354   354   0.0850000   12.0115
  355        OS    1  MOL    O355   355  -0.1700000   15.9994
  356        CA    1  MOL    C356   356   0.0850000   12.0115
  357        CA    1  MOL    C357   357  -0.1150000   12.0115
  358        CA    1  MOL    C358   358  -0.1150000   12.0115
  359        CA    1  MOL    C359   359   0.0850000   12.0115
  360        CA    1  MOL    C360   360  -0.1150000   12.0115
  361        CA    1  MOL    C361   361  -0.1150000   12.0115
  362        CA    1  MOL    C362   362  -0.1150000   12.0115
  363        CA    1  MOL    C363   363  -0.1150000   12.0115
  364        HA    1  MOL    H364   364   0.1150000    1.0080
  365        HA    1  MOL    H365   365   0.1150000    1.0080
  366        HA    1  MOL    H366   366   0.1150000    1.0080
  367        HA    1  MOL    H367   367   0.1150000    1.0080
  368        HA    1  MOL    H368   368   0.1150000    1.0080
  369        HA    1  MOL    H369   369   0.1150000    1.0080
  370        HA    1  MOL    H370   370   0.1150000    1.0080
  371        HA    1  MOL    H371   371   0.1150000    1.0080
  372        HA    1  MOL    H372   372   0.1150000    1.0080
  373        HA    1  MOL    H373   373   0.1150000    1.0080
  374        HA    1  MOL    H374   374   0.1150000    1.0080
  375        HA    1  MOL    H375   375   0.1150000    1.0080
  376        CA    1  MOL    C376   376  -0.1150000   12.0115
  377        CA    1  MOL    C377   377  -0.1150000   12.0115
  378        CA    1  MOL    C378   378   0.0850000   12.0115
  379        OS    1  MOL    O379   379  -0.1700000   15.9994
  380        CA    1  MOL    C380   380  -0.1150000   12.0115
  381        CA    1  MOL    C381   381  -0.1150000   12.0115
  382        CA    1  MOL    C382   382  -0.1150000   12.0115
  383       CO4    1  MOL    C383   383   0.7000000   12.0115
  384         O    1  MOL    O384   384  -0.4700000   15.9994
  385        CA    1  MOL    C385   385  -0.1150000   12.0115
  386        CA    1  MOL    C386   386  -0.1150000   12.0115
  387        CA    1  MOL    C387   387  -0.1150000   12.0115
  388        CA    1  MOL    C388   388   0.0850000   12.0115
  389        OS    1  MOL    O389   389  -0.1700000   15.9994
  390        CA    1  MOL    C390   390   0.0850000   12.0115
  391        CA    1  MOL    C391   391  -0.1150000   12.0115
  392        CA    1  MOL    C392   392  -0.1150000   12.0115
  393        CA    1  MOL    C393   393   0.0850000   12.0115
  394        CA    1  MOL    C394   394  -0.1150000   12.0115
  395        CA    1  MOL    C395   395  -0.1150000   12.0115
  396        CA    1  MOL    C396   396  -0.1150000   12.0115
  397        CA    1  MOL    C397   397  -0.1150000   12.0115
  398        HA    1  MOL    H398   398   0.1150000    1.0080
  399        HA    1  MOL    H399   399   0.1150000    1.0080
  400        HA    1  MOL    H400   400   0.1150000    1.0080
  401        HA    1  MOL    H401   401   0.1150000    1.0080
  402        HA    1  MOL    H402   402   0.1150000    1.0080
  403        HA    1  MOL    H403   403   0.1150000    1.0080
  404        HA    1  MOL    H404   404   0.1150000    1.0080
  405        HA    1  MOL    H405   405   0.1150000    1.0080
  406        HA    1  MOL    H406   406   0.1150000    1.0080
  407        HA    1  MOL    H407   407   0.1150000    1.0080
  408        HA    1  MOL    H408   408   0.1150000    1.0080
  409        HA    1  MOL    H409   409   0.1150000    1.0080
  410        CA    1  MOL    C410   410  -0.1150000   12.0115
  411        CA    1  MOL    C411   411  -0.1150000   12.0115
  412        CA    1  MOL    C412   412   0.0850000   12.0115
  413        OS    1  MOL    O413   413  -0.1700000   15.9994
  414        CA    1  MOL    C414   414  -0.1150000   12.0115
  415        CA    1  MOL    C415   415  -0.1150000   12.0115
  416        CA    1  MOL    C416   416  -0.1150000   12.0115
  417       CO4    1  MOL    C417   417   0.7000000   12.0115
  418         O    1  MOL    O418   418  -0.4700000   15.9994
  419        CA    1  MOL    C419   419  -0.1150000   12.0115
  420        CA    1  MOL    C420   420  -0.1150000   12.0115
  421        CA    1  MOL    C421   421  -0.1150000   12.0115
  422        CA    1  MOL    C422   422   0.0850000   12.0115
  423        OS    1  MOL    O423   423  -0.1700000   15.9994
  424        CA    1  MOL    C424   424   0.0850000   12.0115
  425        CA    1  MOL    C425   425  -0.1150000   12.0115
  426        CA    1  MOL    C426   426  -0.1150000   12.0115
  427        CA    1  MOL    C427   427   0.0850000   12.0115
  428        CA    1  MOL    C428   428  -0.1150000   12.0115
  429        CA    1  MOL    C429   429  -0.1150000   12.0115
  430        CA    1  MOL    C430   430  -0.1150000   12.0115
  431        CA    1  MOL    C431   431  -0.1150000   12.0115
  432        HA    1  MOL    H432   432   0.1150000    1.0080
  433        HA    1  MOL    H433   433   0.1150000    1.0080
  434        HA    1  MOL    H434   434   0.1150000    1.0080
  435        HA    1  MOL    H435   435   0.1150000    1.0080
  436        HA    1  MOL    H436   436   0.1150000    1.0080
  437        HA    1  MOL    H437   437   0.1150000    1.0080
  438        HA    1  MOL    H438   438   0.1150000    1.0080
  439        HA    1  MOL    H439   439   0.1150000    1.0080
  440        HA    1  MOL    H440   440   0.1150000    1.0080
  441        HA    1  MOL    H441   441   0.1150000    1.0080
  442        HA    1  MOL    H442   442   0.1150000    1.0080
  443        HA    1  MOL    H443   443   0.1150000    1.0080
  444        CA    1  MOL    C444   444  -0.1150000   12.0115
  445        CA    1  MOL    C445   445  -0.1150000   12.0115
  446        CA    1  MOL    C446   446   0.0850000   12.0115
  447        OS    1  MOL    O447   447  -0.1700000   15.9994
  448        CA    1  MOL    C448   448  -0.1150000   12.0115
  449        CA    1  MOL    C449   449  -0.1150000   12.0115
  450        CA    1  MOL    C450   450  -0.1150000   12.0115
  451       CO4    1  MOL    C451   451   0.7000000   12.0115
  452         O    1  MOL    O452   452  -0.4700000   15.9994
  453        CA    1  MOL    C453   453  -0.1150000   12.0115
  454        CA    1  MOL    C454   454  -0.1150000   12.0115
  455        CA    1  MOL    C455   455  -0.1150000   12.0115
  456        CA    1  MOL    C456   456   0.0850000   12.0115
  457        OS    1  MOL    O457   457  -0.1700000   15.9994
  458        CA    1  MOL    C458   458   0.0850000   12.0115
  459        CA    1  MOL    C459   459  -0.1150000   12.0115
  460        CA    1  MOL    C460   460  -0.1150000   12.0115
  461        CA    1  MOL    C461   461   0.0850000   12.0115
  462        CA    1  MOL    C462   462  -0.1150000   12.0115
  463        CA    1  MOL    C463   463  -0.1150000   12.0115
  464        CA    1  MOL    C464   464  -0.1150000   12.0115
  465        CA    1  MOL    C465   465  -0.1150000   12.0115
  466        HA    1  MOL    H466   466   0.1150000    1.0080
  467        HA    1  MOL    H467   467   0.1150000    1.0080
  468        HA    1  MOL    H468   468   0.1150000    1.0080
  469        HA    1  MOL    H469   469   0.1150000    1.0080
  470        HA    1  MOL    H470   470   0.1150000    1.0080
  471        HA    1  MOL    H471   471   0.1150000    1.0080
  472        HA    1  MOL    H472   472   0.1150000    1.0080
  473        HA    1  MOL    H473   473   0.1150000    1.0080
  474        HA    1  MOL    H474   474   0.1150000    1.0080
  475        HA    1  MOL    H475   475   0.1150000    1.0080
  476        HA    1  MOL    H476   476   0.1150000    1.0080
  477        HA    1  MOL    H477   477   0.1150000    1.0080
  478        CA    1  MOL    C478   478  -0.1150000   12.0115
  479        CA    1  MOL    C479   479  -0.1150000   12.0115
  480        CA    1  MOL    C480   480   0.0850000   12.0115
  481        OS    1  MOL    O481   481  -0.1700000   15.9994
  482        CA    1  MOL    C482   482  -0.1150000   12.0115
  483        CA    1  MOL    C483   483  -0.1150000   12.0115
  484        CA    1  MOL    C484   484  -0.1150000   12.0115
  485       CO4    1  MOL    C485   485   0.7000000   12.0115
  486         O    1  MOL    O486   486  -0.4700000   15.9994
  487        CA    1  MOL    C487   487  -0.1150000   12.0115
  488        CA    1  MOL    C488   488  -0.1150000   12.0115
  489        CA    1  MOL    C489   489  -0.1150000   12.0115
  490        CA    1  MOL    C490   490   0.0850000   12.0115
  491        OS    1  MOL    O491   491  -0.1700000   15.9994
  492        CA    1  MOL    C492   492   0.0850000   12.0115
  493        CA    1  MOL    C493   493  -0.1150000   12.0115
  494        CA    1  MOL    C494   494  -0.1150000   12.0115
  495        CA    1  MOL    C495   495   0.0850000   12.0115
  496        CA    1  MOL    C496   496  -0.1150000   12.0115
  497        CA    1  MOL    C497   497  -0.1150000   12.0115
  498        CA    1  MOL    C498   498  -0.1150000   12.0115
  499        CA    1  MOL    C499   499  -0.1150000   12.0115
  500        HA    1  MOL    H500   500   0.1150000    1.0080
  501        HA    1  MOL    H501   501   0.1150000    1.0080
  502        HA    1  MOL    H502   502   0.1150000    1.0080
  503        HA    1  MOL    H503   503   0.1150000    1.0080
  504        HA    1  MOL    H504   504   0.1150000    1.0080
  505        HA    1  MOL    H505   505   0.1150000    1.0080
  506        HA    1  MOL    H506   506   0.1150000    1.0080
  507        HA    1  MOL    H507   507   0.1150000    1.0080
  508        HA    1  MOL    H508   508   0.1150000    1.0080
  509        HA    1  MOL    H509   509   0.1150000    1.0080
  510        HA    1  MOL    H510   510   0.1150000    1.0080
  511        HA    1  MOL    H511   511   0.1150000    1.0080
  512        CA    1  MOL    C512   512  -0.1150000   12.0115
  513        CA    1  MOL    C513   513  -0.1150000   12.0115
  514        CA    1  MOL    C514   514   0.0850000   12.0115
  515        OS    1  MOL    O515   515  -0.1700000   15.9994
  516        CA    1  MOL    C516   516  -0.1150000   12.0115
  517        CA    1  MOL    C517   517  -0.1150000   12.0115
  518        CA    1  MOL    C518   518  -0.1150000   12.0115
  519       CO4    1  MOL    C519   519   0.7000000   12.0115
  520         O    1  MOL    O520   520  -0.4700000   15.9994
  521        CA    1  MOL    C521   521  -0.1150000   12.0115
  522        CA    1  MOL    C522   522  -0.1150000   12.0115
  523        CA    1  MOL    C523   523  -0.1150000   12.0115
  524        CA    1  MOL    C524   524   0.0850000   12.0115
  525        OS    1  MOL    O525   525  -0.1700000   15.9994
  526        CA    1  MOL    C526   526   0.0850000   12.0115
  527        CA    1  MOL    C527   527  -0.1150000   12.0115
  528        CA    1  MOL    C528   528  -0.1150000   12.0115
  529        CA    1  MOL    C529   529   0.0850000   12.0115
  530        CA    1  MOL    C530   530  -0.1150000   12.0115
  531        CA    1  MOL    C531   531  -0.1150000   12.0115
  532        CA    1  MOL    C532   532  -0.1150000   12.0115
  533        CA    1  MOL    C533   533  -0.1150000   12.0115
  534        HA    1  MOL    H534   534   0.1150000    1.0080
  535        HA    1  MOL    H535   535   0.1150000    1.0080
  536        HA    1  MOL    H536   536   0.1150000    1.0080
  537        HA    1  MOL    H537   537   0.1150000    1.0080
  538        HA    1  MOL    H538   538   0.1150000    1.0080
  539        HA    1  MOL    H539   539   0.1150000    1.0080
  540        HA    1  MOL    H540   540   0.1150000    1.0080
  541        HA    1  MOL    H541   541   0.1150000    1.0080
  542        HA    1  MOL    H542   542   0.1150000    1.0080
  543        HA    1  MOL    H543   543   0.1150000    1.0080
  544        HA    1  MOL    H544   544   0.1150000    1.0080
  545        HA    1  MOL    H545   545   0.1150000    1.0080
  546        CA    1  MOL    C546   546  -0.1150000   12.0115
  547        CA    1  MOL    C547   547  -0.1150000   12.0115
  548        CA    1  MOL    C548   548   0.0850000   12.0115
  549        OS    1  MOL    O549   549  -0.1700000   15.9994
  550        CA    1  MOL    C550   550  -0.1150000   12.0115
  551        CA    1  MOL    C551   551  -0.1150000   12.0115
  552        CA    1  MOL    C552   552  -0.1150000   12.0115
  553       CO4    1  MOL    C553   553   0.7000000   12.0115
  554         O    1  MOL    O554   554  -0.4700000   15.9994
  555        CA    1  MOL    C555   555  -0.1150000   12.0115
  556        CA    1  MOL    C556   556  -0.1150000   12.0115
  557        CA    1  MOL    C557   557  -0.1150000   12.0115
  558        CA    1  MOL    C558   558   0.0850000   12.0115
  559        OS    1  MOL    O559   559  -0.1700000   15.9994
  560        CA    1  MOL    C560   560   0.0850000   12.0115
  561        CA    1  MOL    C561   561  -0.1150000   12.0115
  562        CA    1  MOL    C562   562  -0.1150000   12.0115
  563        CA    1  MOL    C563   563   0.0850000   12.0115
  564        CA    1  MOL    C564   564  -0.1150000   12.0115
  565        CA    1  MOL    C565   565  -0.1150000   12.0115
  566        CA    1  MOL    C566   566  -0.1150000   12.0115
  567        CA    1  MOL    C567   567  -0.1150000   12.0115
  568        HA    1  MOL    H568   568   0.1150000    1.0080
  569        HA    1  MOL    H569   569   0.1150000    1.0080
  570        HA    1  MOL    H570   570   0.1150000    1.0080
  571        HA    1  MOL    H571   571   0.1150000    1.0080
  572        HA    1  MOL    H572   572   0.1150000    1.0080
  573        HA    1  MOL    H573   573   0.1150000    1.0080
  574        HA    1  MOL    H574   574   0.1150000    1.0080
  575        HA    1  MOL    H575   575   0.1150000    1.0080
  576        HA    1  MOL    H576   576   0.1150000    1.0080
  577        HA    1  MOL    H577   577   0.1150000    1.0080
  578        HA    1  MOL    H578   578   0.1150000    1.0080
  579        HA    1  MOL    H579   579   0.1150000    1.0080
  580        CA    1  MOL    C580   580  -0.1150000   12.0115
  581        CA    1  MOL    C581   581  -0.1150000   12.0115
  582        CA    1  MOL    C582   582   0.0850000   12.0115
  583        OS    1  MOL    O583   583  -0.1700000   15.9994
  584        CA    1  MOL    C584   584  -0.1150000   12.0115
  585        CA    1  MOL    C585   585  -0.1150000   12.0115
  586        CA    1  MOL    C586   586  -0.1150000   12.0115
  587       CO4    1  MOL    C587   587   0.7000000   12.0115
  588         O    1  MOL    O588   588  -0.4700000   15.9994
  589        CA    1  MOL    C589   589  -0.1150000   12.0115
  590        CA    1  MOL    C590   590  -0.1150000   12.0115
  591        CA    1  MOL    C591   591  -0.1150000   12.0115
  592        CA    1  MOL    C592   592   0.0850000   12.0115
  593        OS    1  MOL    O593   593  -0.1700000   15.9994
  594        CA    1  MOL    C594   594   0.0850000   12.0115
  595        CA    1  MOL    C595   595  -0.1150000   12.0115
  596        CA    1  MOL    C596   596  -0.1150000   12.0115
  597        CA    1  MOL    C597   597   0.0850000   12.0115
  598        CA    1  MOL    C598   598  -0.1150000   12.0115
  599        CA    1  MOL    C599   599  -0.1150000   12.0115
  600        CA    1  MOL    C600   600  -0.1150000   12.0115
  601        CA    1  MOL    C601   601  -0.1150000   12.0115
  602        HA    1  MOL    H602   602   0.1150000    1.0080
  603        HA    1  MOL    H603   603   0.1150000    1.0080
  604        HA    1  MOL    H604   604   0.1150000    1.0080
  605        HA    1  MOL    H605   605   0.1150000    1.0080
  606        HA    1  MOL    H606   606   0.1150000    1.0080
  607        HA    1  MOL    H607   607   0.1150000    1.0080
  608        HA    1  MOL    H608   608   0.1150000    1.0080
  609        HA    1  MOL    H609   609   0.1150000    1.0080
  610        HA    1  MOL    H610   610   0.1150000    1.0080
  611        HA    1  MOL    H611   611   0.1150000    1.0080
  612        HA    1  MOL    H612   612   0.1150000    1.0080
  613        HA    1  MOL    H613   613   0.1150000    1.0080
  614        CA    1  MOL    C614   614  -0.1150000   12.0115
  615        CA    1  MOL    C615   615  -0.1150000   12.0115
  616        CA    1  MOL    C616   616   0.0850000   12.0115
  617        OS    1  MOL    O617   617  -0.1700000   15.9994
  618        CA    1  MOL    C618   618  -0.1150000   12.0115
  619        CA    1  MOL    C619   619  -0.1150000   12.0115
  620        CA    1  MOL    C620   620  -0.1150000   12.0115
  621       CO4    1  MOL    C621   621   0.7000000   12.0115
  622         O    1  MOL    O622   622  -0.4700000   15.9994
  623        CA    1  MOL    C623   623  -0.1150000   12.0115
  624        CA    1  MOL    C624   624  -0.1150000   12.0115
  625        CA    1  MOL    C625   625  -0.1150000   12.0115
  626        CA    1  MOL    C626   626   0.0850000   12.0115
  627        OS    1  MOL    O627   627  -0.1700000   15.9994
  628        CA    1  MOL    C628   628   0.0850000   12.0115
  629        CA    1  MOL    C629   629  -0.1150000   12.0115
  630        CA    1  MOL    C630   630  -0.1150000   12.0115
  631        CA    1  MOL    C631   631   0.0850000   12.0115
  632        CA    1  MOL    C632   632  -0.1150000   12.0115
  633        CA    1  MOL    C633   633  -0.1150000   12.0115
  634        CA    1  MOL    C634   634  -0.1150000   12.0115
  635        CA    1  MOL    C635   635  -0.1150000   12.0115
  636        HA    1  MOL    H636   636   0.1150000    1.0080
  637        HA    1  MOL    H637   637   0.1150000    1.0080
  638        HA    1  MOL    H638   638   0.1150000    1.0080
  639        HA    1  MOL    H639   639   0.1150000    1.0080
  640        HA    1  MOL    H640   640   0.1150000    1.0080
  641        HA    1  MOL    H641   641   0.1150000    1.0080
  642        HA    1  MOL    H642   642   0.1150000    1.0080
  643        HA    1  MOL    H643   643   0.1150000    1.0080
  644        HA    1  MOL    H644   644   0.1150000    1.0080
  645        HA    1  MOL    H645   645   0.1150000    1.0080
  646        HA    1  MOL    H646   646   0.1150000    1.0080
  647        HA    1  MOL    H647   647   0.1150000    1.0080
  648        CA    1  MOL    C648   648  -0.1150000   12.0115
  649        CA    1  MOL    C649   649  -0.1150000   12.0115
  650        CA    1  MOL    C650   650   0.0850000   12.0115
  651        OS    1  MOL    O651   651  -0.1700000   15.9994
  652        CA    1  MOL    C652   652  -0.1150000   12.0115
  653        CA    1  MOL    C653   653  -0.1150000   12.0115
  654        CA    1  MOL    C654   654  -0.1150000   12.0115
  655       CO4    1  MOL    C655   655   0.7000000   12.0115
  656         O    1  MOL    O656   656  -0.4700000   15.9994
  657        CA    1  MOL    C657   657  -0.1150000   12.0115
  658        CA    1  MOL    C658   658  -0.1150000   12.0115
  659        CA    1  MOL    C659   659  -0.1150000   12.0115
  660        CA    1  MOL    C660   660   0.0850000   12.0115
  661        OS    1  MOL    O661   661  -0.1700000   15.9994
  662        CA    1  MOL    C662   662   0.0850000   12.0115
  663        CA    1  MOL    C663   663  -0.1150000   12.0115
  664        CA    1  MOL    C664   664  -0.1150000   12.0115
  665        CA    1  MOL    C665   665  -0.1150000   12.0115
  666        CA    1  MOL    C666   666  -0.1150000   12.0115
  667        CA    1  MOL    C667   667  -0.1150000   12.0115
  668        CA    1  MOL    C668   668  -0.1150000   12.0115
  669        CA    1  MOL    C669   669  -0.1150000   12.0115
  670        HA    1  MOL    H670   670   0.1150000    1.0080
  671        HA    1  MOL    H671   671   0.1150000    1.0080
  672        HA    1  MOL    H672   672   0.1150000    1.0080
  673        HA    1  MOL    H673   673   0.1150000    1.0080
  674        HA    1  MOL    H674   674   0.1150000    1.0080
  675        HA    1  MOL    H675   675   0.1150000    1.0080
  676        HA    1  MOL    H676   676   0.1150000    1.0080
  677        HA    1  MOL    H677   677   0.1150000    1.0080
  678        HA    1  MOL    H678   678   0.1150000    1.0080
  679        HA    1  MOL    H679   679   0.1150000    1.0080
  680        HA    1  MOL    H680   680   0.1150000    1.0080
  681        HA    1  MOL    H681   681   0.1150000    1.0080
  682        HA    1  MOL    H682   682   0.1150000    1.0080

[ bonds ]
      1      2   1      0.1400 392459.2000
      1      7   1      0.1400 392459.2000
      1     23   1      0.1080 307105.6000
      2      3   1      0.1400 392459.2000
      2     24   1      0.1080 307105.6000
      3      4   1      0.1364 376560.0000
      3      5   1      0.1400 392459.2000
      4     35   1      0.0945 462750.4000
      5      6   1      0.1400 392459.2000
      5     25   1      0.1080 307105.6000
      6      7   1      0.1400 392459.2000
      6     26   1      0.1080 307105.6000
      7      8   1      0.1470 259408.0000
      8      9   1      0.1229 476976.0000
      8     10   1      0.1470 259408.0000
     10     11   1      0.1400 392459.2000
     10     22   1      0.1400 392459.2000
     11     12   1      0.1400 392459.2000
     11     27   1      0.1080 307105.6000
     12     13   1      0.1400 392459.2000
     12     28   1      0.1080 307105.6000
     13     14   1      0.1364 376560.0000
     13     21   1      0.1400 392459.2000
     14     15   1      0.1364 376560.0000
     15     16   1      0.1400 392459.2000
     15     20   1      0.1400 392459.2000
     16     17   1      0.1400 392459.2000
     16     29   1      0.1080 307105.6000
     17     18   1      0.1400 392459.2000
     17     30   1      0.1080 307105.6000
     18     19   1      0.1400 392459.2000
     18     39   1      0.1364 376560.0000
     19     20   1      0.1400 392459.2000
     19     31   1      0.1080 307105.6000
     20     32   1      0.1080 307105.6000
     21     22   1      0.1400 392459.2000
     21     33   1      0.1080 307105.6000
     22     34   1      0.1080 307105.6000
     36     37   1      0.1400 392459.2000
     36     42   1      0.1400 392459.2000
     36     58   1      0.1080 307105.6000
     37     38   1      0.1400 392459.2000
     37     59   1      0.1080 307105.6000
     38     39   1      0.1364 376560.0000
     38     40   1      0.1400 392459.2000
     40     41   1      0.1400 392459.2000
     40     60   1      0.1080 307105.6000
     41     42   1      0.1400 392459.2000
     41     61   1      0.1080 307105.6000
     42     43   1      0.1470 259408.0000
     43     44   1      0.1229 476976.0000
     43     45   1      0.1470 259408.0000
     45     46   1      0.1400 392459.2000
     45     57   1      0.1400 392459.2000
     46     47   1      0.1400 392459.2000
     46     62   1      0.1080 307105.6000
     47     48   1      0.1400 392459.2000
     47     63   1      0.1080 307105.6000
     48     49   1      0.1364 376560.0000
     48     56   1      0.1400 392459.2000
     49     50   1      0.1364 376560.0000
     50     51   1      0.1400 392459.2000
     50     55   1      0.1400 392459.2000
     51     52   1      0.1400 392459.2000
     51     64   1      0.1080 307105.6000
     52     53   1      0.1400 392459.2000
     52     65   1      0.1080 307105.6000
     53     54   1      0.1400 392459.2000
     53     73   1      0.1364 376560.0000
     54     55   1      0.1400 392459.2000
     54     66   1      0.1080 307105.6000
     55     67   1      0.1080 307105.6000
     56     57   1      0.1400 392459.2000
     56     68   1      0.1080 307105.6000
     57     69   1      0.1080 307105.6000
     70     71   1      0.1400 392459.2000
     70     76   1      0.1400 392459.2000
     70     92   1      0.1080 307105.6000
     71     72   1      0.1400 392459.2000
     71     93   1      0.1080 307105.6000
     72     73   1      0.1364 376560.0000
     72     74   1      0.1400 392459.2000
     74     75   1      0.1400 392459.2000
     74     94   1      0.1080 307105.6000
     75     76   1      0.1400 392459.2000
     75     95   1      0.1080 307105.6000
     76     77   1      0.1470 259408.0000
     77     78   1      0.1229 476976.0000
     77     79   1      0.1470 259408.0000
     79     80   1      0.1400 392459.2000
     79     91   1      0.1400 392459.2000
     80     81   1      0.1400 392459.2000
     80     96   1      0.1080 307105.6000
     81     82   1      0.1400 392459.2000
     81     97   1      0.1080 307105.6000
     82     83   1      0.1364 376560.0000
     82     90   1      0.1400 392459.2000
     83     84   1      0.1364 376560.0000
     84     85   1      0.1400 392459.2000
     84     89   1      0.1400 392459.2000
     85     86   1      0.1400 392459.2000
     85     98   1      0.1080 307105.6000
     86     87   1      0.1400 392459.2000
     86     99   1      0.1080 307105.6000
     87     88   1      0.1400 392459.2000
     87    107   1      0.1364 376560.0000
     88     89   1      0.1400 392459.2000
     88    100   1      0.1080 307105.6000
     89    101   1      0.1080 307105.6000
     90     91   1      0.1400 392459.2000
     90    102   1      0.1080 307105.6000
     91    103   1      0.1080 307105.6000
    104    105   1      0.1400 392459.2000
    104    110   1      0.1400 392459.2000
    104    126   1      0.1080 307105.6000
    105    106   1      0.1400 392459.2000
    105    127   1      0.1080 307105.6000
    106    107   1      0.1364 376560.0000
    106    108   1      0.1400 392459.2000
    108    109   1      0.1400 392459.2000
    108    128   1      0.1080 307105.6000
    109    110   1      0.1400 392459.2000
    109    129   1      0.1080 307105.6000
    110    111   1      0.1470 259408.0000
    111    112   1      0.1229 476976.0000
    111    113   1      0.1470 259408.0000
    113    114   1      0.1400 392459.2000
    113    125   1      0.1400 392459.2000
    114    115   1      0.1400 392459.2000
    114    130   1      0.1080 307105.6000
    115    116   1      0.1400 392459.2000
    115    131   1      0.1080 307105.6000
    116    117   1      0.1364 376560.0000
    116    124   1      0.1400 392459.2000
    117    118   1      0.1364 376560.0000
    118    119   1      0.1400 392459.2000
    118    123   1      0.1400 392459.2000
    119    120   1      0.1400 392459.2000
    119    132   1      0.1080 307105.6000
    120    121   1      0.1400 392459.2000
    120    133   1      0.1080 307105.6000
    121    122   1      0.1400 392459.2000
    121    141   1      0.1364 376560.0000
    122    123   1      0.1400 392459.2000
    122    134   1      0.1080 307105.6000
    123    135   1      0.1080 307105.6000
    124    125   1      0.1400 392459.2000
    124    136   1      0.1080 307105.6000
    125    137   1      0.1080 307105.6000
    138    139   1      0.1400 392459.2000
    138    144   1      0.1400 392459.2000
    138    160   1      0.1080 307105.6000
    139    140   1      0.1400 392459.2000
    139    161   1      0.1080 307105.6000
    140    141   1      0.1364 376560.0000
    140    142   1      0.1400 392459.2000
    142    143   1      0.1400 392459.2000
    142    162   1      0.1080 307105.6000
    143    144   1      0.1400 392459.2000
    143    163   1      0.1080 307105.6000
    144    145   1      0.1470 259408.0000
    145    146   1      0.1229 476976.0000
    145    147   1      0.1470 259408.0000
    147    148   1      0.1400 392459.2000
    147    159   1      0.1400 392459.2000
    148    149   1      0.1400 392459.2000
    148    164   1      0.1080 307105.6000
    149    150   1      0.1400 392459.2000
    149    165   1      0.1080 307105.6000
    150    151   1      0.1364 376560.0000
    150    158   1      0.1400 392459.2000
    151    152   1      0.1364 376560.0000
    152    153   1      0.1400 392459.2000
    152    157   1      0.1400 392459.2000
    153    154   1      0.1400 392459.2000
    153    166   1      0.1080 307105.6000
    154    155   1      0.1400 392459.2000
    154    167   1      0.1080 307105.6000
    155    156   1      0.1400 392459.2000
    155    175   1      0.1364 376560.0000
    156    157   1      0.1400 392459.2000
    156    168   1      0.1080 307105.6000
    157    169   1      0.1080 307105.6000
    158    159   1      0.1400 392459.2000
    158    170   1      0.1080 307105.6000
    159    171   1      0.1080 307105.6000
    172    173   1      0.1400 392459.2000
    172    178   1      0.1400 392459.2000
    172    194   1      0.1080 307105.6000
    173    174   1      0.1400 392459.2000
    173    195   1      0.1080 307105.6000
    174    175   1      0.1364 376560.0000
    174    176   1      0.1400 392459.2000
    176    177   1      0.1400 392459.2000
    176    196   1      0.1080 307105.6000
    177    178   1      0.1400 392459.2000
    177    197   1      0.1080 307105.6000
    178    179   1      0.1470 259408.0000
    179    180   1      0.1229 476976.0000
    179    181   1      0.1470 259408.0000
    181    182   1      0.1400 392459.2000
    181    193   1      0.1400 392459.2000
    182    183   1      0.1400 392459.2000
    182    198   1      0.1080 307105.6000
    183    184   1      0.1400 392459.2000
    183    199   1      0.1080 307105.6000
    184    185   1      0.1364 376560.0000
    184    192   1      0.1400 392459.2000
    185    186   1      0.1364 376560.0000
    186    187   1      0.1400 392459.2000
    186    191   1      0.1400 392459.2000
    187    188   1      0.1400 392459.2000
    187    200   1      0.1080 307105.6000
    188    189   1      0.1400 392459.2000
    188    201   1      0.1080 307105.6000
    189    190   1      0.1400 392459.2000
    189    209   1      0.1364 376560.0000
    190    191   1      0.1400 392459.2000
    190    202   1      0.1080 307105.6000
    191    203   1      0.1080 307105.6000
    192    193   1      0.1400 392459.2000
    192    204   1      0.1080 307105.6000
    193    205   1      0.1080 307105.6000
    206    207   1      0.1400 392459.2000
    206    212   1      0.1400 392459.2000
    206    228   1      0.1080 307105.6000
    207    208   1      0.1400 392459.2000
    207    229   1      0.1080 307105.6000
    208    209   1      0.1364 376560.0000
    208    210   1      0.1400 392459.2000
    210    211   1      0.1400 392459.2000
    210    230   1      0.1080 307105.6000
    211    212   1      0.1400 392459.2000
    211    231   1      0.1080 307105.6000
    212    213   1      0.1470 259408.0000
    213    214   1      0.1229 476976.0000
    213    215   1      0.1470 259408.0000
    215    216   1      0.1400 392459.2000
    215    227   1      0.1400 392459.2000
    216    217   1      0.1400 392459.2000
    216    232   1      0.1080 307105.6000
    217    218   1      0.1400 392459.2000
    217    233   1      0.1080 307105.6000
    218    219   1      0.1364 376560.0000
    218    226   1      0.1400 392459.2000
    219    220   1      0.1364 376560.0000
    220    221   1      0.1400 392459.2000
    220    225   1      0.1400 392459.2000
    221    222   1      0.1400 392459.2000
    221    234   1      0.1080 307105.6000
    222    223   1      0.1400 392459.2000
    222    235   1      0.1080 307105.6000
    223    224   1      0.1400 392459.2000
    223    243   1      0.1364 376560.0000
    224    225   1      0.1400 392459.2000
    224    236   1      0.1080 307105.6000
    225    237   1      0.1080 307105.6000
    226    227   1      0.1400 392459.2000
    226    238   1      0.1080 307105.6000
    227    239   1      0.1080 307105.6000
    240    241   1      0.1400 392459.2000
    240    246   1      0.1400 392459.2000
    240    262   1      0.1080 307105.6000
    241    242   1      0.1400 392459.2000
    241    263   1      0.1080 307105.6000
    242    243   1      0.1364 376560.0000
    242    244   1      0.1400 392459.2000
    244    245   1      0.1400 392459.2000
    244    264   1      0.1080 307105.6000
    245    246   1      0.1400 392459.2000
    245    265   1      0.1080 307105.6000
    246    247   1      0.1470 259408.0000
    247    248   1      0.1229 476976.0000
    247    249   1      0.1470 259408.0000
    249    250   1      0.1400 392459.2000
    249    261   1      0.1400 392459.2000
    250    251   1      0.1400 392459.2000
    250    266   1      0.1080 307105.6000
    251    252   1      0.1400 392459.2000
    251    267   1      0.1080 307105.6000
    252    253   1      0.1364 376560.0000
    252    260   1      0.1400 392459.2000
    253    254   1      0.1364 376560.0000
    254    255   1      0.1400 392459.2000
    254    259   1      0.1400 392459.2000
    255    256   1      0.1400 392459.2000
    255    268   1      0.1080 307105.6000
    256    257   1      0.1400 392459.2000
    256    269   1      0.1080 307105.6000
    257    258   1      0.1400 392459.2000
    257    277   1      0.1364 376560.0000
    258    259   1      0.1400 392459.2000
    258    270   1      0.1080 307105.6000
    259    271   1      0.1080 307105.6000
    260    261   1      0.1400 392459.2000
    260    272   1      0.1080 307105.6000
    261    273   1      0.1080 307105.6000
    274    275   1      0.1400 392459.2000
    274    280   1      0.1400 392459.2000
    274    296   1      0.1080 307105.6000
    275    276   1      0.1400 392459.2000
    275    297   1      0.1080 307105.6000
    276    277   1      0.1364 376560.0000
    276    278   1      0.1400 392459.2000
    278    279   1      0.1400 392459.2000
    278    298   1      0.1080 307105.6000
    279    280   1      0.1400 392459.2000
    279    299   1      0.1080 307105.6000
    280    281   1      0.1470 259408.0000
    281    282   1      0.1229 476976.0000
    281    283   1      0.1470 259408.0000
    283    284   1      0.1400 392459.2000
    283    295   1      0.1400 392459.2000
    284    285   1      0.1400 392459.2000
    284    300   1      0.1080 307105.6000
    285    286   1      0.1400 392459.2000
    285    301   1      0.1080 307105.6000
    286    287   1      0.1364 376560.0000
    286    294   1      0.1400 392459.2000
    287    288   1      0.1364 376560.0000
    288    289   1      0.1400 392459.2000
    288    293   1      0.1400 392459.2000
    289    290   1      0.1400 392459.2000
    289    302   1      0.1080 307105.6000
    290    291   1      0.1400 392459.2000
    290    303   1      0.1080 307105.6000
    291    292   1      0.1400 392459.2000
    291    311   1      0.1364 376560.0000
    292    293   1      0.1400 392459.2000
    292    304   1      0.1080 307105.6000
    293    305   1      0.1080 307105.6000
    294    295   1      0.1400 392459.2000
    294    306   1      0.1080 307105.6000
    295    307   1      0.1080 307105.6000
    308    309   1      0.1400 392459.2000
    308    314   1      0.1400 392459.2000
    308    330   1      0.1080 307105.6000
    309    310   1      0.1400 392459.2000
    309    331   1      0.1080 307105.6000
    310    311   1      0.1364 376560.0000
    310    312   1      0.1400 392459.2000
    312    313   1      0.1400 392459.2000
    312    332   1      0.1080 307105.6000
    313    314   1      0.1400 392459.2000
    313    333   1      0.1080 307105.6000
    314    315   1      0.1470 259408.0000
    315    316   1      0.1229 476976.0000
    315    317   1      0.1470 259408.0000
    317    318   1      0.1400 392459.2000
    317    329   1      0.1400 392459.2000
    318    319   1      0.1400 392459.2000
    318    334   1      0.1080 307105.6000
    319    320   1      0.1400 392459.2000
    319    335   1      0.1080 307105.6000
    320    321   1      0.1364 376560.0000
    320    328   1      0.1400 392459.2000
    321    322   1      0.1364 376560.0000
    322    323   1      0.1400 392459.2000
    322    327   1      0.1400 392459.2000
    323    324   1      0.1400 392459.2000
    323    336   1      0.1080 307105.6000
    324    325   1      0.1400 392459.2000
    324    337   1      0.1080 307105.6000
    325    326   1      0.1400 392459.2000
    325    345   1      0.1364 376560.0000
    326    327   1      0.1400 392459.2000
    326    338   1      0.1080 307105.6000
    327    339   1      0.1080 307105.6000
    328    329   1      0.1400 392459.2000
    328    340   1      0.1080 307105.6000
    329    341   1      0.1080 307105.6000
    342    343   1      0.1400 392459.2000
    342    348   1      0.1400 392459.2000
    342    364   1      0.1080 307105.6000
    343    344   1      0.1400 392459.2000
    343    365   1      0.1080 307105.6000
    344    345   1      0.1364 376560.0000
    344    346   1      0.1400 392459.2000
    346    347   1      0.1400 392459.2000
    346    366   1      0.1080 307105.6000
    347    348   1      0.1400 392459.2000
    347    367   1      0.1080 307105.6000
    348    349   1      0.1470 259408.0000
    349    350   1      0.1229 476976.0000
    349    351   1      0.1470 259408.0000
    351    352   1      0.1400 392459.2000
    351    363   1      0.1400 392459.2000
    352    353   1      0.1400 392459.2000
    352    368   1      0.1080 307105.6000
    353    354   1      0.1400 392459.2000
    353    369   1      0.1080 307105.6000
    354    355   1      0.1364 376560.0000
    354    362   1      0.1400 392459.2000
    355    356   1      0.1364 376560.0000
    356    357   1      0.1400 392459.2000
    356    361   1      0.1400 392459.2000
    357    358   1      0.1400 392459.2000
    357    370   1      0.1080 307105.6000
    358    359   1      0.1400 392459.2000
    358    371   1      0.1080 307105.6000
    359    360   1      0.1400 392459.2000
    359    379   1      0.1364 376560.0000
    360    361   1      0.1400 392459.2000
    360    372   1      0.1080 307105.6000
    361    373   1      0.1080 307105.6000
    362    363   1      0.1400 392459.2000
    362    374   1      0.1080 307105.6000
    363    375   1      0.1080 307105.6000
    376    377   1      0.1400 392459.2000
    376    382   1      0.1400 392459.2000
    376    398   1      0.1080 307105.6000
    377    378   1      0.1400 392459.2000
    377    399   1      0.1080 307105.6000
    378    379   1      0.1364 376560.0000
    378    380   1      0.1400 392459.2000
    380    381   1      0.1400 392459.2000
    380    400   1      0.1080 307105.6000
    381    382   1      0.1400 392459.2000
    381    401   1      0.1080 307105.6000
    382    383   1      0.1470 259408.0000
    383    384   1      0.1229 476976.0000
    383    385   1      0.1470 259408.0000
    385    386   1      0.1400 392459.2000
    385    397   1      0.1400 392459.2000
    386    387   1      0.1400 392459.2000
    386    402   1      0.1080 307105.6000
    387    388   1      0.1400 392459.2000
    387    403   1      0.1080 307105.6000
    388    389   1      0.1364 376560.0000
    388    396   1      0.1400 392459.2000
    389    390   1      0.1364 376560.0000
    390    391   1      0.1400 392459.2000
    390    395   1      0.1400 392459.2000
    391    392   1      0.1400 392459.2000
    391    404   1      0.1080 307105.6000
    392    393   1      0.1400 392459.2000
    392    405   1      0.1080 307105.6000
    393    394   1      0.1400 392459.2000
    393    413   1      0.1364 376560.0000
    394    395   1      0.1400 392459.2000
    394    406   1      0.1080 307105.6000
    395    407   1      0.1080 307105.6000
    396    397   1      0.1400 392459.2000
    396    408   1      0.1080 307105.6000
    397    409   1      0.1080 307105.6000
    410    411   1      0.1400 392459.2000
    410    416   1      0.1400 392459.2000
    410    432   1      0.1080 307105.6000
    411    412   1      0.1400 392459.2000
    411    433   1      0.1080 307105.6000
    412    413   1      0.1364 376560.0000
    412    414   1      0.1400 392459.2000
    414    415   1      0.1400 392459.2000
    414    434   1      0.1080 307105.6000
    415    416   1      0.1400 392459.2000
    415    435   1      0.1080 307105.6000
    416    417   1      0.1470 259408.0000
    417    418   1      0.1229 476976.0000
    417    419   1      0.1470 259408.0000
    419    420   1      0.1400 392459.2000
    419    431   1      0.1400 392459.2000
    420    421   1      0.1400 392459.2000
    420    436   1      0.1080 307105.6000
    421    422   1      0.1400 392459.2000
    421    437   1      0.1080 307105.6000
    422    423   1      0.1364 376560.0000
    422    430   1      0.1400 392459.2000
    423    424   1      0.1364 376560.0000
    424    425   1      0.1400 392459.2000
    424    429   1      0.1400 392459.2000
    425    426   1      0.1400 392459.2000
    425    438   1      0.1080 307105.6000
    426    427   1      0.1400 392459.2000
    426    439   1      0.1080 307105.6000
    427    428   1      0.1400 392459.2000
    427    447   1      0.1364 376560.0000
    428    429   1      0.1400 392459.2000
    428    440   1      0.1080 307105.6000
    429    441   1      0.1080 307105.6000
    430    431   1      0.1400 392459.2000
    430    442   1      0.1080 307105.6000
    431    443   1      0.1080 307105.6000
    444    445   1      0.1400 392459.2000
    444    450   1      0.1400 392459.2000
    444    466   1      0.1080 307105.6000
    445    446   1      0.1400 392459.2000
    445    467   1      0.1080 307105.6000
    446    447   1      0.1364 376560.0000
    446    448   1      0.1400 392459.2000
    448    449   1      0.1400 392459.2000
    448    468   1      0.1080 307105.6000
    449    450   1      0.1400 392459.2000
    449    469   1      0.1080 307105.6000
    450    451   1      0.1470 259408.0000
    451    452   1      0.1229 476976.0000
    451    453   1      0.1470 259408.0000
    453    454   1      0.1400 392459.2000
    453    465   1      0.1400 392459.2000
    454    455   1      0.1400 392459.2000
    454    470   1      0.1080 307105.6000
    455    456   1      0.1400 392459.2000
    455    471   1      0.1080 307105.6000
    456    457   1      0.1364 376560.0000
    456    464   1      0.1400 392459.2000
    457    458   1      0.1364 376560.0000
    458    459   1      0.1400 392459.2000
    458    463   1      0.1400 392459.2000
    459    460   1      0.1400 392459.2000
    459    472   1      0.1080 307105.6000
    460    461   1      0.1400 392459.2000
    460    473   1      0.1080 307105.6000
    461    462   1      0.1400 392459.2000
    461    481   1      0.1364 376560.0000
    462    463   1      0.1400 392459.2000
    462    474   1      0.1080 307105.6000
    463    475   1      0.1080 307105.6000
    464    465   1      0.1400 392459.2000
    464    476   1      0.1080 307105.6000
    465    477   1      0.1080 307105.6000
    478    479   1      0.1400 392459.2000
    478    484   1      0.1400 392459.2000
    478    500   1      0.1080 307105.6000
    479    480   1      0.1400 392459.2000
    479    501   1      0.1080 307105.6000
    480    481   1      0.1364 376560.0000
    480    482   1      0.1400 392459.2000
    482    483   1      0.1400 392459.2000
    482    502   1      0.1080 307105.6000
    483    484   1      0.1400 392459.2000
    483    503   1      0.1080 307105.6000
    484    485   1      0.1470 259408.0000
    485    486   1      0.1229 476976.0000
    485    487   1      0.1470 259408.0000
    487    488   1      0.1400 392459.2000
    487    499   1      0.1400 392459.2000
    488    489   1      0.1400 392459.2000
    488    504   1      0.1080 307105.6000
    489    490   1      0.1400 392459.2000
    489    505   1      0.1080 307105.6000
    490    491   1      0.1364 376560.0000
    490    498   1      0.1400 392459.2000
    491    492   1      0.1364 376560.0000
    492    493   1      0.1400 392459.2000
    492    497   1      0.1400 392459.2000
    493    494   1      0.1400 392459.2000
    493    506   1      0.1080 307105.6000
    494    495   1      0.1400 392459.2000
    494    507   1      0.1080 307105.6000
    495    496   1      0.1400 392459.2000
    495    515   1      0.1364 376560.0000
    496    497   1      0.1400 392459.2000
    496    508   1      0.1080 307105.6000
    497    509   1      0.1080 307105.6000
    498    499   1      0.1400 392459.2000
    498    510   1      0.1080 307105.6000
    499    511   1      0.1080 307105.6000
    512    513   1      0.1400 392459.2000
    512    518   1      0.1400 392459.2000
    512    534   1      0.1080 307105.6000
    513    514   1      0.1400 392459.2000
    513    535   1      0.1080 307105.6000
    514    515   1      0.1364 376560.0000
    514    516   1      0.1400 392459.2000
    516    517   1      0.1400 392459.2000
    516    536   1      0.1080 307105.6000
    517    518   1      0.1400 392459.2000
    517    537   1      0.1080 307105.6000
    518    519   1      0.1470 259408.0000
    519    520   1      0.1229 476976.0000
    519    521   1      0.1470 259408.0000
    521    522   1      0.1400 392459.2000
    521    533   1      0.1400 392459.2000
    522    523   1      0.1400 392459.2000
    522    538   1      0.1080 307105.6000
    523    524   1      0.1400 392459.2000
    523    539   1      0.1080 307105.6000
    524    525   1      0.1364 376560.0000
    524    532   1      0.1400 392459.2000
    525    526   1      0.1364 376560.0000
    526    527   1      0.1400 392459.2000
    526    531   1      0.1400 392459.2000
    527    528   1      0.1400 392459.2000
    527    540   1      0.1080 307105.6000
    528    529   1      0.1400 392459.2000
    528    541   1      0.1080 307105.6000
    529    530   1      0.1400 392459.2000
    529    549   1      0.1364 376560.0000
    530    531   1      0.1400 392459.2000
    530    542   1      0.1080 307105.6000
    531    543   1      0.1080 307105.6000
    532    533   1      0.1400 392459.2000
    532    544   1      0.1080 307105.6000
    533    545   1      0.1080 307105.6000
    546    547   1      0.1400 392459.2000
    546    552   1      0.1400 392459.2000
    546    568   1      0.1080 307105.6000
    547    548   1      0.1400 392459.2000
    547    569   1      0.1080 307105.6000
    548    549   1      0.1364 376560.0000
    548    550   1      0.1400 392459.2000
    550    551   1      0.1400 392459.2000
    550    570   1      0.1080 307105.6000
    551    552   1      0.1400 392459.2000
    551    571   1      0.1080 307105.6000
    552    553   1      0.1470 259408.0000
    553    554   1      0.1229 476976.0000
    553    555   1      0.1470 259408.0000
    555    556   1      0.1400 392459.2000
    555    567   1      0.1400 392459.2000
    556    557   1      0.1400 392459.2000
    556    572   1      0.1080 307105.6000
    557    558   1      0.1400 392459.2000
    557    573   1      0.1080 307105.6000
    558    559   1      0.1364 376560.0000
    558    566   1      0.1400 392459.2000
    559    560   1      0.1364 376560.0000
    560    561   1      0.1400 392459.2000
    560    565   1      0.1400 392459.2000
    561    562   1      0.1400 392459.2000
    561    574   1      0.1080 307105.6000
    562    563   1      0.1400 392459.2000
    562    575   1      0.1080 307105.6000
    563    564   1      0.1400 392459.2000
    563    583   1      0.1364 376560.0000
    564    565   1      0.1400 392459.2000
    564    576   1      0.1080 307105.6000
    565    577   1      0.1080 307105.6000
    566    567   1      0.1400 392459.2000
    566    578   1      0.1080 307105.6000
    567    579   1      0.1080 307105.6000
    580    581   1      0.1400 392459.2000
    580    586   1      0.1400 392459.2000
    580    602   1      0.1080 307105.6000
    581    582   1      0.1400 392459.2000
    581    603   1      0.1080 307105.6000
    582    583   1      0.1364 376560.0000
    582    584   1      0.1400 392459.2000
    584    585   1      0.1400 392459.2000
    584    604   1      0.1080 307105.6000
    585    586   1      0.1400 392459.2000
    585    605   1      0.1080 307105.6000
    586    587   1      0.1470 259408.0000
    587    588   1      0.1229 476976.0000
    587    589   1      0.1470 259408.0000
    589    590   1      0.1400 392459.2000
    589    601   1      0.1400 392459.2000
    590    591   1      0.1400 392459.2000
    590    606   1      0.1080 307105.6000
    591    592   1      0.1400 392459.2000
    591    607   1      0.1080 307105.6000
    592    593   1      0.1364 376560.0000
    592    600   1      0.1400 392459.2000
    593    594   1      0.1364 376560.0000
    594    595   1      0.1400 392459.2000
    594    599   1      0.1400 392459.2000
    595    596   1      0.1400 392459.2000
    595    608   1      0.1080 307105.6000
    596    597   1      0.1400 392459.2000
    596    609   1      0.1080 307105.6000
    597    598   1      0.1400 392459.2000
    597    617   1      0.1364 376560.0000
    598    599   1      0.1400 392459.2000
    598    610   1      0.1080 307105.6000
    599    611   1      0.1080 307105.6000
    600    601   1      0.1400 392459.2000
    600    612   1      0.1080 307105.6000
    601    613   1      0.1080 307105.6000
    614    615   1      0.1400 392459.2000
    614    620   1      0.1400 392459.2000
    614    636   1      0.1080 307105.6000
    615    616   1      0.1400 392459.2000
    615    637   1      0.1080 307105.6000
    616    617   1      0.1364 376560.0000
    616    618   1      0.1400 392459.2000
    618    619   1      0.1400 392459.2000
    618    638   1      0.1080 307105.6000
    619    620   1      0.1400 392459.2000
    619    639   1      0.1080 307105.6000
    620    621   1      0.1470 259408.0000
    621    622   1      0.1229 476976.0000
    621    623   1      0.1470 259408.0000
    623    624   1      0.1400 392459.2000
    623    635   1      0.1400 392459.2000
    624    625   1      0.1400 392459.2000
    624    640   1      0.1080 307105.6000
    625    626   1      0.1400 392459.2000
    625    641   1      0.1080 307105.6000
    626    627   1      0.1364 376560.0000
    626    634   1      0.1400 392459.2000
    627    628   1      0.1364 376560.0000
    628    629   1      0.1400 392459.2000
    628    633   1      0.1400 392459.2000
    629    630   1      0.1400 392459.2000
    629    642   1      0.1080 307105.6000
    630    631   1      0.1400 392459.2000
    630    643   1      0.1080 307105.6000
    631    632   1      0.1400 392459.2000
    631    651   1      0.1364 376560.0000
    632    633   1      0.1400 392459.2000
    632    644   1      0.1080 307105.6000
    633    645   1      0.1080 307105.6000
    634    635   1      0.1400 392459.2000
    634    646   1      0.1080 307105.6000
    635    647   1      0.1080 307105.6000
    648    649   1      0.1400 392459.2000
    648    654   1      0.1400 392459.2000
    648    670   1      0.1080 307105.6000
    649    650   1      0.1400 392459.2000
    649    671   1      0.1080 307105.6000
    650    651   1      0.1364 376560.0000
    650    652   1      0.1400 392459.2000
    652    653   1      0.1400 392459.2000
    652    672   1      0.1080 307105.6000
    653    654   1      0.1400 392459.2000
    653    673   1      0.1080 307105.6000
    654    655   1      0.1470 259408.0000
    655    656   1      0.1229 476976.0000
    655    657   1      0.1470 259408.0000
    657    658   1      0.1400 392459.2000
    657    669   1      0.1400 392459.2000
    658    659   1      0.1400 392459.2000
    658    674   1      0.1080 307105.6000
    659    660   1      0.1400 392459.2000
    659    675   1      0.1080 307105.6000
    660    661   1      0.1364 376560.0000
    660    668   1      0.1400 392459.2000
    661    662   1      0.1364 376560.0000
    662    663   1      0.1400 392459.2000
    662    667   1      0.1400 392459.2000
    663    664   1      0.1400 392459.2000
    663    676   1      0.1080 307105.6000
    664    665   1      0.1400 392459.2000
    664    677   1      0.1080 307105.6000
    665    666   1      0.1400 392459.2000
    665    682   1      0.1080 307105.6000
    666    667   1      0.1400 392459.2000
    666    678   1      0.1080 307105.6000
    667    679   1      0.1080 307105.6000
    668    669   1      0.1400 392459.2000
    668    680   1      0.1080 307105.6000
    669    681   1      0.1080 307105.6000

[ pairs ]
; ai   aj   funct   fudge_QQ  charge_i   charge_j   c6    c12
      7      3   2   0.50000    -0.1150000    0.1500000   1.172438e-03  2.346713e-06
      7     24   2   0.50000    -0.1150000    0.1150000   2.431434e-04  1.541678e-07
     23      3   2   0.50000     0.1150000    0.1500000   2.431434e-04  1.541678e-07
     23     24   2   0.50000     0.1150000    0.1150000   5.042375e-05  1.012808e-08
      2      6   2   0.50000    -0.1150000   -0.1150000   1.172438e-03  2.346713e-06
      2      8   2   0.50000    -0.1150000    0.7000000   1.692561e-03  3.993218e-06
     23      6   2   0.50000     0.1150000   -0.1150000   2.431434e-04  1.541678e-07
     23      8   2   0.50000     0.1150000    0.7000000   3.510079e-04  2.623353e-07
      1      4   2   0.50000    -0.1150000   -0.5850000   1.181668e-03  1.529662e-06
      1      5   2   0.50000    -0.1150000   -0.1150000   1.172438e-03  2.346713e-06
     24      4   2   0.50000     0.1150000   -0.5850000   2.450575e-04  1.004915e-07
     24      5   2   0.50000     0.1150000   -0.1150000   2.431434e-04  1.541678e-07
      2     35   2   0.50000    -0.1150000    0.4350000   2.144502e-06  1.199282e-11
      5     35   2   0.50000    -0.1150000    0.4350000   2.144502e-06  1.199282e-11
      2     25   2   0.50000    -0.1150000    0.1150000   2.431434e-04  1.541678e-07
      4      6   2   0.50000    -0.5850000   -0.1150000   1.181668e-03  1.529662e-06
      4     25   2   0.50000    -0.5850000    0.1150000   2.450575e-04  1.004915e-07
      3     26   2   0.50000     0.1500000    0.1150000   2.431434e-04  1.541678e-07
     25      7   2   0.50000     0.1150000   -0.1150000   2.431434e-04  1.541678e-07
     25     26   2   0.50000     0.1150000    0.1150000   5.042375e-05  1.012808e-08
      5      8   2   0.50000    -0.1150000    0.7000000   1.692561e-03  3.993218e-06
     26      1   2   0.50000     0.1150000   -0.1150000   2.431434e-04  1.541678e-07
     26      8   2   0.50000     0.1150000    0.7000000   3.510079e-04  2.623353e-07
      1      9   2   0.50000    -0.1150000   -0.4700000   1.177174e-03  1.365843e-06
      1     10   2   0.50000    -0.1150000   -0.1150000   1.172438e-03  2.346713e-06
      6      9   2   0.50000    -0.1150000   -0.4700000   1.177174e-03  1.365843e-06
      6     10   2   0.50000    -0.1150000   -0.1150000   1.172438e-03  2.346713e-06
      7     11   2   0.50000    -0.1150000   -0.1150000   1.172438e-03  2.346713e-06
      7     22   2   0.50000    -0.1150000   -0.1150000   1.172438e-03  2.346713e-06
      9     11   2   0.50000    -0.4700000   -0.1150000   1.177174e-03  1.365843e-06
      9     22   2   0.50000    -0.4700000   -0.1150000   1.177174e-03  1.365843e-06
      8     12   2   0.50000     0.7000000   -0.1150000   1.692561e-03  3.993218e-06
      8     27   2   0.50000     0.7000000    0.1150000   3.510079e-04  2.623353e-07
     22     12   2   0.50000    -0.1150000   -0.1150000   1.172438e-03  2.346713e-06
     22     27   2   0.50000    -0.1150000    0.1150000   2.431434e-04  1.541678e-07
      8     21   2   0.50000     0.7000000   -0.1150000   1.692561e-03  3.993218e-06
      8     34   2   0.50000     0.7000000    0.1150000   3.510079e-04  2.623353e-07
     11     21   2   0.50000    -0.1150000   -0.1150000   1.172438e-03  2.346713e-06
     11     34   2   0.50000    -0.1150000    0.1150000   2.431434e-04  1.541678e-07
     10     13   2   0.50000    -0.1150000    0.0850000   1.172438e-03  2.346713e-06
     10     28   2   0.50000    -0.1150000    0.1150000   2.431434e-04  1.541678e-07
     27     13   2   0.50000     0.1150000    0.0850000   2.431434e-04  1.541678e-07
     27     28   2   0.50000     0.1150000    0.1150000   5.042375e-05  1.012808e-08
     11     14   2   0.50000    -0.1150000   -0.1700000   9.038862e-04  9.862632e-07
     28     14   2   0.50000     0.1150000   -0.1700000   1.874504e-04  6.479276e-08
     28     21   2   0.50000     0.1150000   -0.1150000   2.431434e-04  1.541678e-07
     12     15   2   0.50000    -0.1150000    0.0850000   1.172438e-03  2.346713e-06
     21     15   2   0.50000    -0.1150000    0.0850000   1.172438e-03  2.346713e-06
     12     33   2   0.50000    -0.1150000    0.1150000   2.431434e-04  1.541678e-07
     14     22   2   0.50000    -0.1700000   -0.1150000   9.038862e-04  9.862632e-07
     14     33   2   0.50000    -0.1700000    0.1150000   1.874504e-04  6.479276e-08
     13     16   2   0.50000     0.0850000   -0.1150000   1.172438e-03  2.346713e-06
     13     20   2   0.50000     0.0850000   -0.1150000   1.172438e-03  2.346713e-06
     14     17   2   0.50000    -0.1700000   -0.1150000   9.038862e-04  9.862632e-07
     14     29   2   0.50000    -0.1700000    0.1150000   1.874504e-04  6.479276e-08
     20     17   2   0.50000    -0.1150000   -0.1150000   1.172438e-03  2.346713e-06
     20     29   2   0.50000    -0.1150000    0.1150000   2.431434e-04  1.541678e-07
     14     19   2   0.50000    -0.1700000   -0.1150000   9.038862e-04  9.862632e-07
     14     32   2   0.50000    -0.1700000    0.1150000   1.874504e-04  6.479276e-08
     16     19   2   0.50000    -0.1150000   -0.1150000   1.172438e-03  2.346713e-06
     16     32   2   0.50000    -0.1150000    0.1150000   2.431434e-04  1.541678e-07
     15     18   2   0.50000     0.0850000    0.0850000   1.172438e-03  2.346713e-06
     15     30   2   0.50000     0.0850000    0.1150000   2.431434e-04  1.541678e-07
     29     18   2   0.50000     0.1150000    0.0850000   2.431434e-04  1.541678e-07
     29     30   2   0.50000     0.1150000    0.1150000   5.042375e-05  1.012808e-08
     16     39   2   0.50000    -0.1150000   -0.1700000   9.038862e-04  9.862632e-07
     30     19   2   0.50000     0.1150000   -0.1150000   2.431434e-04  1.541678e-07
     30     39   2   0.50000     0.1150000   -0.1700000   1.874504e-04  6.479276e-08
     17     31   2   0.50000    -0.1150000    0.1150000   2.431434e-04  1.541678e-07
     39     20   2   0.50000    -0.1700000   -0.1150000   9.038862e-04  9.862632e-07
     39     31   2   0.50000    -0.1700000    0.1150000   1.874504e-04  6.479276e-08
     17     38   2   0.50000    -0.1150000    0.0850000   1.172438e-03  2.346713e-06
     19     38   2   0.50000    -0.1150000    0.0850000   1.172438e-03  2.346713e-06
     18     32   2   0.50000     0.0850000    0.1150000   2.431434e-04  1.541678e-07
     31     15   2   0.50000     0.1150000    0.0850000   2.431434e-04  1.541678e-07
     31     32   2   0.50000     0.1150000    0.1150000   5.042375e-05  1.012808e-08
     13     34   2   0.50000     0.0850000    0.1150000   2.431434e-04  1.541678e-07
     33     10   2   0.50000     0.1150000   -0.1150000   2.431434e-04  1.541678e-07
     33     34   2   0.50000     0.1150000    0.1150000   5.042375e-05  1.012808e-08
     42     38   2   0.50000    -0.1150000    0.0850000   1.172438e-03  2.346713e-06
     42     59   2   0.50000    -0.1150000    0.1150000   2.431434e-04  1.541678e-07
     58     38   2   0.50000     0.1150000    0.0850000   2.431434e-04  1.541678e-07
     58     59   2   0.50000     0.1150000    0.1150000   5.042375e-05  1.012808e-08
     37     41   2   0.50000    -0.1150000   -0.1150000   1.172438e-03  2.346713e-06
     37     43   2   0.50000    -0.1150000    0.7000000   1.692561e-03  3.993218e-06
     58     41   2   0.50000     0.1150000   -0.1150000   2.431434e-04  1.541678e-07
     58     43   2   0.50000     0.1150000    0.7000000   3.510079e-04  2.623353e-07
     36     39   2   0.50000    -0.1150000   -0.1700000   9.038862e-04  9.862632e-07
     36     40   2   0.50000    -0.1150000   -0.1150000   1.172438e-03  2.346713e-06
     59     39   2   0.50000     0.1150000   -0.1700000   1.874504e-04  6.479276e-08
     59     40   2   0.50000     0.1150000   -0.1150000   2.431434e-04  1.541678e-07
     37     18   2   0.50000    -0.1150000    0.0850000   1.172438e-03  2.346713e-06
     40     18   2   0.50000    -0.1150000    0.0850000   1.172438e-03  2.346713e-06
     37     60   2   0.50000    -0.1150000    0.1150000   2.431434e-04  1.541678e-07
     39     41   2   0.50000    -0.1700000   -0.1150000   9.038862e-04  9.862632e-07
     39     60   2   0.50000    -0.1700000    0.1150000   1.874504e-04  6.479276e-08
     38     61   2   0.50000     0.0850000    0.1150000   2.431434e-04  1.541678e-07
     60     42   2   0.50000     0.1150000   -0.1150000   2.431434e-04  1.541678e-07
     60     61   2   0.50000     0.1150000    0.1150000   5.042375e-05  1.012808e-08
     40     43   2   0.50000    -0.1150000    0.7000000   1.692561e-03  3.993218e-06
     61     36   2   0.50000     0.1150000   -0.1150000   2.431434e-04  1.541678e-07
     61     43   2   0.50000     0.1150000    0.7000000   3.510079e-04  2.623353e-07
     36     44   2   0.50000    -0.1150000   -0.4700000   1.177174e-03  1.365843e-06
     36     45   2   0.50000    -0.1150000   -0.1150000   1.172438e-03  2.346713e-06
     41     44   2   0.50000    -0.1150000   -0.4700000   1.177174e-03  1.365843e-06
     41     45   2   0.50000    -0.1150000   -0.1150000   1.172438e-03  2.346713e-06
     42     46   2   0.50000    -0.1150000   -0.1150000   1.172438e-03  2.346713e-06
     42     57   2   0.50000    -0.1150000   -0.1150000   1.172438e-03  2.346713e-06
     44     46   2   0.50000    -0.4700000   -0.1150000   1.177174e-03  1.365843e-06
     44     57   2   0.50000    -0.4700000   -0.1150000   1.177174e-03  1.365843e-06
     43     47   2   0.50000     0.7000000   -0.1150000   1.692561e-03  3.993218e-06
     43     62   2   0.50000     0.7000000    0.1150000   3.510079e-04  2.623353e-07
     57     47   2   0.50000    -0.1150000   -0.1150000   1.172438e-03  2.346713e-06
     57     62   2   0.50000    -0.1150000    0.1150000   2.431434e-04  1.541678e-07
     43     56   2   0.50000     0.7000000   -0.1150000   1.692561e-03  3.993218e-06
     43     69   2   0.50000     0.7000000    0.1150000   3.510079e-04  2.623353e-07
     46     56   2   0.50000    -0.1150000   -0.1150000   1.172438e-03  2.346713e-06
     46     69   2   0.50000    -0.1150000    0.1150000   2.431434e-04  1.541678e-07
     45     48   2   0.50000    -0.1150000    0.0850000   1.172438e-03  2.346713e-06
     45     63   2   0.50000    -0.1150000    0.1150000   2.431434e-04  1.541678e-07
     62     48   2   0.50000     0.1150000    0.0850000   2.431434e-04  1.541678e-07
     62     63   2   0.50000     0.1150000    0.1150000   5.042375e-05  1.012808e-08
     46     49   2   0.50000    -0.1150000   -0.1700000   9.038862e-04  9.862632e-07
     63     49   2   0.50000     0.1150000   -0.1700000   1.874504e-04  6.479276e-08
     63     56   2   0.50000     0.1150000   -0.1150000   2.431434e-04  1.541678e-07
     47     50   2   0.50000    -0.1150000    0.0850000   1.172438e-03  2.346713e-06
     56     50   2   0.50000    -0.1150000    0.0850000   1.172438e-03  2.346713e-06
     47     68   2   0.50000    -0.1150000    0.1150000   2.431434e-04  1.541678e-07
     49     57   2   0.50000    -0.1700000   -0.1150000   9.038862e-04  9.862632e-07
     49     68   2   0.50000    -0.1700000    0.1150000   1.874504e-04  6.479276e-08
     48     51   2   0.50000     0.0850000   -0.1150000   1.172438e-03  2.346713e-06
     48     55   2   0.50000     0.0850000   -0.1150000   1.172438e-03  2.346713e-06
     49     52   2   0.50000    -0.1700000   -0.1150000   9.038862e-04  9.862632e-07
     49     64   2   0.50000    -0.1700000    0.1150000   1.874504e-04  6.479276e-08
     55     52   2   0.50000    -0.1150000   -0.1150000   1.172438e-03  2.346713e-06
     55     64   2   0.50000    -0.1150000    0.1150000   2.431434e-04  1.541678e-07
     49     54   2   0.50000    -0.1700000   -0.1150000   9.038862e-04  9.862632e-07
     49     67   2   0.50000    -0.1700000    0.1150000   1.874504e-04  6.479276e-08
     51     54   2   0.50000    -0.1150000   -0.1150000   1.172438e-03  2.346713e-06
     51     67   2   0.50000    -0.1150000    0.1150000   2.431434e-04  1.541678e-07
     50     53   2   0.50000     0.0850000    0.0850000   1.172438e-03  2.346713e-06
     50     65   2   0.50000     0.0850000    0.1150000   2.431434e-04  1.541678e-07
     64     53   2   0.50000     0.1150000    0.0850000   2.431434e-04  1.541678e-07
     64     65   2   0.50000     0.1150000    0.1150000   5.042375e-05  1.012808e-08
     51     73   2   0.50000    -0.1150000   -0.1700000   9.038862e-04  9.862632e-07
     65     54   2   0.50000     0.1150000   -0.1150000   2.431434e-04  1.541678e-07
     65     73   2   0.50000     0.1150000   -0.1700000   1.874504e-04  6.479276e-08
     52     66   2   0.50000    -0.1150000    0.1150000   2.431434e-04  1.541678e-07
     73     55   2   0.50000    -0.1700000   -0.1150000   9.038862e-04  9.862632e-07
     73     66   2   0.50000    -0.1700000    0.1150000   1.874504e-04  6.479276e-08
     52     72   2   0.50000    -0.1150000    0.0850000   1.172438e-03  2.346713e-06
     54     72   2   0.50000    -0.1150000    0.0850000   1.172438e-03  2.346713e-06
     53     67   2   0.50000     0.0850000    0.1150000   2.431434e-04  1.541678e-07
     66     50   2   0.50000     0.1150000    0.0850000   2.431434e-04  1.541678e-07
     66     67   2   0.50000     0.1150000    0.1150000   5.042375e-05  1.012808e-08
     48     69   2   0.50000     0.0850000    0.1150000   2.431434e-04  1.541678e-07
     68     45   2   0.50000     0.1150000   -0.1150000   2.431434e-04  1.541678e-07
     68     69   2   0.50000     0.1150000    0.1150000   5.042375e-05  1.012808e-08
     76     72   2   0.50000    -0.1150000    0.0850000   1.172438e-03  2.346713e-06
     76     93   2   0.50000    -0.1150000    0.1150000   2.431434e-04  1.541678e-07
     92     72   2   0.50000     0.1150000    0.0850000   2.431434e-04  1.541678e-07
     92     93   2   0.50000     0.1150000    0.1150000   5.042375e-05  1.012808e-08
     71     75   2   0.50000    -0.1150000   -0.1150000   1.172438e-03  2.346713e-06
     71     77   2   0.50000    -0.1150000    0.7000000   1.692561e-03  3.993218e-06
     92     75   2   0.50000     0.1150000   -0.1150000   2.431434e-04  1.541678e-07
     92     77   2   0.50000     0.1150000    0.7000000   3.510079e-04  2.623353e-07
     70     73   2   0.50000    -0.1150000   -0.1700000   9.038862e-04  9.862632e-07
     70     74   2   0.50000    -0.1150000   -0.1150000   1.172438e-03  2.346713e-06
     93     73   2   0.50000     0.1150000   -0.1700000   1.874504e-04  6.479276e-08
     93     74   2   0.50000     0.1150000   -0.1150000   2.431434e-04  1.541678e-07
     71     53   2   0.50000    -0.1150000    0.0850000   1.172438e-03  2.346713e-06
     74     53   2   0.50000    -0.1150000    0.0850000   1.172438e-03  2.346713e-06
     71     94   2   0.50000    -0.1150000    0.1150000   2.431434e-04  1.541678e-07
     73     75   2   0.50000    -0.1700000   -0.1150000   9.038862e-04  9.862632e-07
     73     94   2   0.50000    -0.1700000    0.1150000   1.874504e-04  6.479276e-08
     72     95   2   0.50000     0.0850000    0.1150000   2.431434e-04  1.541678e-07
     94     76   2   0.50000     0.1150000   -0.1150000   2.431434e-04  1.541678e-07
     94     95   2   0.50000     0.1150000    0.1150000   5.042375e-05  1.012808e-08
     74     77   2   0.50000    -0.1150000    0.7000000   1.692561e-03  3.993218e-06
     95     70   2   0.50000     0.1150000   -0.1150000   2.431434e-04  1.541678e-07
     95     77   2   0.50000     0.1150000    0.7000000   3.510079e-04  2.623353e-07
     70     78   2   0.50000    -0.1150000   -0.4700000   1.177174e-03  1.365843e-06
     70     79   2   0.50000    -0.1150000   -0.1150000   1.172438e-03  2.346713e-06
     75     78   2   0.50000    -0.1150000   -0.4700000   1.177174e-03  1.365843e-06
     75     79   2   0.50000    -0.1150000   -0.1150000   1.172438e-03  2.346713e-06
     76     80   2   0.50000    -0.1150000   -0.1150000   1.172438e-03  2.346713e-06
     76     91   2   0.50000    -0.1150000   -0.1150000   1.172438e-03  2.346713e-06
     78     80   2   0.50000    -0.4700000   -0.1150000   1.177174e-03  1.365843e-06
     78     91   2   0.50000    -0.4700000   -0.1150000   1.177174e-03  1.365843e-06
     77     81   2   0.50000     0.7000000   -0.1150000   1.692561e-03  3.993218e-06
     77     96   2   0.50000     0.7000000    0.1150000   3.510079e-04  2.623353e-07
     91     81   2   0.50000    -0.1150000   -0.1150000   1.172438e-03  2.346713e-06
     91     96   2   0.50000    -0.1150000    0.1150000   2.431434e-04  1.541678e-07
     77     90   2   0.50000     0.7000000   -0.1150000   1.692561e-03  3.993218e-06
     77    103   2   0.50000     0.7000000    0.1150000   3.510079e-04  2.623353e-07
     80     90   2   0.50000    -0.1150000   -0.1150000   1.172438e-03  2.346713e-06
     80    103   2   0.50000    -0.1150000    0.1150000   2.431434e-04  1.541678e-07
     79     82   2   0.50000    -0.1150000    0.0850000   1.172438e-03  2.346713e-06
     79     97   2   0.50000    -0.1150000    0.1150000   2.431434e-04  1.541678e-07
     96     82   2   0.50000     0.1150000    0.0850000   2.431434e-04  1.541678e-07
     96     97   2   0.50000     0.1150000    0.1150000   5.042375e-05  1.012808e-08
     80     83   2   0.50000    -0.1150000   -0.1700000   9.038862e-04  9.862632e-07
     97     83   2   0.50000     0.1150000   -0.1700000   1.874504e-04  6.479276e-08
     97     90   2   0.50000     0.1150000   -0.1150000   2.431434e-04  1.541678e-07
     81     84   2   0.50000    -0.1150000    0.0850000   1.172438e-03  2.346713e-06
     90     84   2   0.50000    -0.1150000    0.0850000   1.172438e-03  2.346713e-06
     81    102   2   0.50000    -0.1150000    0.1150000   2.431434e-04  1.541678e-07
     83     91   2   0.50000    -0.1700000   -0.1150000   9.038862e-04  9.862632e-07
     83    102   2   0.50000    -0.1700000    0.1150000   1.874504e-04  6.479276e-08
     82     85   2   0.50000     0.0850000   -0.1150000   1.172438e-03  2.346713e-06
     82     89   2   0.50000     0.0850000   -0.1150000   1.172438e-03  2.346713e-06
     83     86   2   0.50000    -0.1700000   -0.1150000   9.038862e-04  9.862632e-07
     83     98   2   0.50000    -0.1700000    0.1150000   1.874504e-04  6.479276e-08
     89     86   2   0.50000    -0.1150000   -0.1150000   1.172438e-03  2.346713e-06
     89     98   2   0.50000    -0.1150000    0.1150000   2.431434e-04  1.541678e-07
     83     88   2   0.50000    -0.1700000   -0.1150000   9.038862e-04  9.862632e-07
     83    101   2   0.50000    -0.1700000    0.1150000   1.874504e-04  6.479276e-08
     85     88   2   0.50000    -0.1150000   -0.1150000   1.172438e-03  2.346713e-06
     85    101   2   0.50000    -0.1150000    0.1150000   2.431434e-04  1.541678e-07
     84     87   2   0.50000     0.0850000    0.0850000   1.172438e-03  2.346713e-06
     84     99   2   0.50000     0.0850000    0.1150000   2.431434e-04  1.541678e-07
     98     87   2   0.50000     0.1150000    0.0850000   2.431434e-04  1.541678e-07
     98     99   2   0.50000     0.1150000    0.1150000   5.042375e-05  1.012808e-08
     85    107   2   0.50000    -0.1150000   -0.1700000   9.038862e-04  9.862632e-07
     99     88   2   0.50000     0.1150000   -0.1150000   2.431434e-04  1.541678e-07
     99    107   2   0.50000     0.1150000   -0.1700000   1.874504e-04  6.479276e-08
     86    100   2   0.50000    -0.1150000    0.1150000   2.431434e-04  1.541678e-07
    107     89   2   0.50000    -0.1700000   -0.1150000   9.038862e-04  9.862632e-07
    107    100   2   0.50000    -0.1700000    0.1150000   1.874504e-04  6.479276e-08
     86    106   2   0.50000    -0.1150000    0.0850000   1.172438e-03  2.346713e-06
     88    106   2   0.50000    -0.1150000    0.0850000   1.172438e-03  2.346713e-06
     87    101   2   0.50000     0.0850000    0.1150000   2.431434e-04  1.541678e-07
    100     84   2   0.50000     0.1150000    0.0850000   2.431434e-04  1.541678e-07
    100    101   2   0.50000     0.1150000    0.1150000   5.042375e-05  1.012808e-08
     82    103   2   0.50000     0.0850000    0.1150000   2.431434e-04  1.541678e-07
    102     79   2   0.50000     0.1150000   -0.1150000   2.431434e-04  1.541678e-07
    102    103   2   0.50000     0.1150000    0.1150000   5.042375e-05  1.012808e-08
    110    106   2   0.50000    -0.1150000    0.0850000   1.172438e-03  2.346713e-06
    110    127   2   0.50000    -0.1150000    0.1150000   2.431434e-04  1.541678e-07
    126    106   2   0.50000     0.1150000    0.0850000   2.431434e-04  1.541678e-07
    126    127   2   0.50000     0.1150000    0.1150000   5.042375e-05  1.012808e-08
    105    109   2   0.50000    -0.1150000   -0.1150000   1.172438e-03  2.346713e-06
    105    111   2   0.50000    -0.1150000    0.7000000   1.692561e-03  3.993218e-06
    126    109   2   0.50000     0.1150000   -0.1150000   2.431434e-04  1.541678e-07
    126    111   2   0.50000     0.1150000    0.7000000   3.510079e-04  2.623353e-07
    104    107   2   0.50000    -0.1150000   -0.1700000   9.038862e-04  9.862632e-07
    104    108   2   0.50000    -0.1150000   -0.1150000   1.172438e-03  2.346713e-06
    127    107   2   0.50000     0.1150000   -0.1700000   1.874504e-04  6.479276e-08
    127    108   2   0.50000     0.1150000   -0.1150000   2.431434e-04  1.541678e-07
    105     87   2   0.50000    -0.1150000    0.0850000   1.172438e-03  2.346713e-06
    108     87   2   0.50000    -0.1150000    0.0850000   1.172438e-03  2.346713e-06
    105    128   2   0.50000    -0.1150000    0.1150000   2.431434e-04  1.541678e-07
    107    109   2   0.50000    -0.1700000   -0.1150000   9.038862e-04  9.862632e-07
    107    128   2   0.50000    -0.1700000    0.1150000   1.874504e-04  6.479276e-08
    106    129   2   0.50000     0.0850000    0.1150000   2.431434e-04  1.541678e-07
    128    110   2   0.50000     0.1150000   -0.1150000   2.431434e-04  1.541678e-07
    128    129   2   0.50000     0.1150000    0.1150000   5.042375e-05  1.012808e-08
    108    111   2   0.50000    -0.1150000    0.7000000   1.692561e-03  3.993218e-06
    129    104   2   0.50000     0.1150000   -0.1150000   2.431434e-04  1.541678e-07
    129    111   2   0.50000     0.1150000    0.7000000   3.510079e-04  2.623353e-07
    104    112   2   0.50000    -0.1150000   -0.4700000   1.177174e-03  1.365843e-06
    104    113   2   0.50000    -0.1150000   -0.1150000   1.172438e-03  2.346713e-06
    109    112   2   0.50000    -0.1150000   -0.4700000   1.177174e-03  1.365843e-06
    109    113   2   0.50000    -0.1150000   -0.1150000   1.172438e-03  2.346713e-06
    110    114   2   0.50000    -0.1150000   -0.1150000   1.172438e-03  2.346713e-06
    110    125   2   0.50000    -0.1150000   -0.1150000   1.172438e-03  2.346713e-06
    112    114   2   0.50000    -0.4700000   -0.1150000   1.177174e-03  1.365843e-06
    112    125   2   0.50000    -0.4700000   -0.1150000   1.177174e-03  1.365843e-06
    111    115   2   0.50000     0.7000000   -0.1150000   1.692561e-03  3.993218e-06
    111    130   2   0.50000     0.7000000    0.1150000   3.510079e-04  2.623353e-07
    125    115   2   0.50000    -0.1150000   -0.1150000   1.172438e-03  2.346713e-06
    125    130   2   0.50000    -0.1150000    0.1150000   2.431434e-04  1.541678e-07
    111    124   2   0.50000     0.7000000   -0.1150000   1.692561e-03  3.993218e-06
    111    137   2   0.50000     0.7000000    0.1150000   3.510079e-04  2.623353e-07
    114    124   2   0.50000    -0.1150000   -0.1150000   1.172438e-03  2.346713e-06
    114    137   2   0.50000    -0.1150000    0.1150000   2.431434e-04  1.541678e-07
    113    116   2   0.50000    -0.1150000    0.0850000   1.172438e-03  2.346713e-06
    113    131   2   0.50000    -0.1150000    0.1150000   2.431434e-04  1.541678e-07
    130    116   2   0.50000     0.1150000    0.0850000   2.431434e-04  1.541678e-07
    130    131   2   0.50000     0.1150000    0.1150000   5.042375e-05  1.012808e-08
    114    117   2   0.50000    -0.1150000   -0.1700000   9.038862e-04  9.862632e-07
    131    117   2   0.50000     0.1150000   -0.1700000   1.874504e-04  6.479276e-08
    131    124   2   0.50000     0.1150000   -0.1150000   2.431434e-04  1.541678e-07
    115    118   2   0.50000    -0.1150000    0.0850000   1.172438e-03  2.346713e-06
    124    118   2   0.50000    -0.1150000    0.0850000   1.172438e-03  2.346713e-06
    115    136   2   0.50000    -0.1150000    0.1150000   2.431434e-04  1.541678e-07
    117    125   2   0.50000    -0.1700000   -0.1150000   9.038862e-04  9.862632e-07
    117    136   2   0.50000    -0.1700000    0.1150000   1.874504e-04  6.479276e-08
    116    119   2   0.50000     0.0850000   -0.1150000   1.172438e-03  2.346713e-06
    116    123   2   0.50000     0.0850000   -0.1150000   1.172438e-03  2.346713e-06
    117    120   2   0.50000    -0.1700000   -0.1150000   9.038862e-04  9.862632e-07
    117    132   2   0.50000    -0.1700000    0.1150000   1.874504e-04  6.479276e-08
    123    120   2   0.50000    -0.1150000   -0.1150000   1.172438e-03  2.346713e-06
    123    132   2   0.50000    -0.1150000    0.1150000   2.431434e-04  1.541678e-07
    117    122   2   0.50000    -0.1700000   -0.1150000   9.038862e-04  9.862632e-07
    117    135   2   0.50000    -0.1700000    0.1150000   1.874504e-04  6.479276e-08
    119    122   2   0.50000    -0.1150000   -0.1150000   1.172438e-03  2.346713e-06
    119    135   2   0.50000    -0.1150000    0.1150000   2.431434e-04  1.541678e-07
    118    121   2   0.50000     0.0850000    0.0850000   1.172438e-03  2.346713e-06
    118    133   2   0.50000     0.0850000    0.1150000   2.431434e-04  1.541678e-07
    132    121   2   0.50000     0.1150000    0.0850000   2.431434e-04  1.541678e-07
    132    133   2   0.50000     0.1150000    0.1150000   5.042375e-05  1.012808e-08
    119    141   2   0.50000    -0.1150000   -0.1700000   9.038862e-04  9.862632e-07
    133    122   2   0.50000     0.1150000   -0.1150000   2.431434e-04  1.541678e-07
    133    141   2   0.50000     0.1150000   -0.1700000   1.874504e-04  6.479276e-08
    120    134   2   0.50000    -0.1150000    0.1150000   2.431434e-04  1.541678e-07
    141    123   2   0.50000    -0.1700000   -0.1150000   9.038862e-04  9.862632e-07
    141    134   2   0.50000    -0.1700000    0.1150000   1.874504e-04  6.479276e-08
    120    140   2   0.50000    -0.1150000    0.0850000   1.172438e-03  2.346713e-06
    122    140   2   0.50000    -0.1150000    0.0850000   1.172438e-03  2.346713e-06
    121    135   2   0.50000     0.0850000    0.1150000   2.431434e-04  1.541678e-07
    134    118   2   0.50000     0.1150000    0.0850000   2.431434e-04  1.541678e-07
    134    135   2   0.50000     0.1150000    0.1150000   5.042375e-05  1.012808e-08
    116    137   2   0.50000     0.0850000    0.1150000   2.431434e-04  1.541678e-07
    136    113   2   0.50000     0.1150000   -0.1150000   2.431434e-04  1.541678e-07
    136    137   2   0.50000     0.1150000    0.1150000   5.042375e-05  1.012808e-08
    144    140   2   0.50000    -0.1150000    0.0850000   1.172438e-03  2.346713e-06
    144    161   2   0.50000    -0.1150000    0.1150000   2.431434e-04  1.541678e-07
    160    140   2   0.50000     0.1150000    0.0850000   2.431434e-04  1.541678e-07
    160    161   2   0.50000     0.1150000    0.1150000   5.042375e-05  1.012808e-08
    139    143   2   0.50000    -0.1150000   -0.1150000   1.172438e-03  2.346713e-06
    139    145   2   0.50000    -0.1150000    0.7000000   1.692561e-03  3.993218e-06
    160    143   2   0.50000     0.1150000   -0.1150000   2.431434e-04  1.541678e-07
    160    145   2   0.50000     0.1150000    0.7000000   3.510079e-04  2.623353e-07
    138    141   2   0.50000    -0.1150000   -0.1700000   9.038862e-04  9.862632e-07
    138    142   2   0.50000    -0.1150000   -0.1150000   1.172438e-03  2.346713e-06
    161    141   2   0.50000     0.1150000   -0.1700000   1.874504e-04  6.479276e-08
    161    142   2   0.50000     0.1150000   -0.1150000   2.431434e-04  1.541678e-07
    139    121   2   0.50000    -0.1150000    0.0850000   1.172438e-03  2.346713e-06
    142    121   2   0.50000    -0.1150000    0.0850000   1.172438e-03  2.346713e-06
    139    162   2   0.50000    -0.1150000    0.1150000   2.431434e-04  1.541678e-07
    141    143   2   0.50000    -0.1700000   -0.1150000   9.038862e-04  9.862632e-07
    141    162   2   0.50000    -0.1700000    0.1150000   1.874504e-04  6.479276e-08
    140    163   2   0.50000     0.0850000    0.1150000   2.431434e-04  1.541678e-07
    162    144   2   0.50000     0.1150000   -0.1150000   2.431434e-04  1.541678e-07
    162    163   2   0.50000     0.1150000    0.1150000   5.042375e-05  1.012808e-08
    142    145   2   0.50000    -0.1150000    0.7000000   1.692561e-03  3.993218e-06
    163    138   2   0.50000     0.1150000   -0.1150000   2.431434e-04  1.541678e-07
    163    145   2   0.50000     0.1150000    0.7000000   3.510079e-04  2.623353e-07
    138    146   2   0.50000    -0.1150000   -0.4700000   1.177174e-03  1.365843e-06
    138    147   2   0.50000    -0.1150000   -0.1150000   1.172438e-03  2.346713e-06
    143    146   2   0.50000    -0.1150000   -0.4700000   1.177174e-03  1.365843e-06
    143    147   2   0.50000    -0.1150000   -0.1150000   1.172438e-03  2.346713e-06
    144    148   2   0.50000    -0.1150000   -0.1150000   1.172438e-03  2.346713e-06
    144    159   2   0.50000    -0.1150000   -0.1150000   1.172438e-03  2.346713e-06
    146    148   2   0.50000    -0.4700000   -0.1150000   1.177174e-03  1.365843e-06
    146    159   2   0.50000    -0.4700000   -0.1150000   1.177174e-03  1.365843e-06
    145    149   2   0.50000     0.7000000   -0.1150000   1.692561e-03  3.993218e-06
    145    164   2   0.50000     0.7000000    0.1150000   3.510079e-04  2.623353e-07
    159    149   2   0.50000    -0.1150000   -0.1150000   1.172438e-03  2.346713e-06
    159    164   2   0.50000    -0.1150000    0.1150000   2.431434e-04  1.541678e-07
    145    158   2   0.50000     0.7000000   -0.1150000   1.692561e-03  3.993218e-06
    145    171   2   0.50000     0.7000000    0.1150000   3.510079e-04  2.623353e-07
    148    158   2   0.50000    -0.1150000   -0.1150000   1.172438e-03  2.346713e-06
    148    171   2   0.50000    -0.1150000    0.1150000   2.431434e-04  1.541678e-07
    147    150   2   0.50000    -0.1150000    0.0850000   1.172438e-03  2.346713e-06
    147    165   2   0.50000    -0.1150000    0.1150000   2.431434e-04  1.541678e-07
    164    150   2   0.50000     0.1150000    0.0850000   2.431434e-04  1.541678e-07
    164    165   2   0.50000     0.1150000    0.1150000   5.042375e-05  1.012808e-08
    148    151   2   0.50000    -0.1150000   -0.1700000   9.038862e-04  9.862632e-07
    165    151   2   0.50000     0.1150000   -0.1700000   1.874504e-04  6.479276e-08
    165    158   2   0.50000     0.1150000   -0.1150000   2.431434e-04  1.541678e-07
    149    152   2   0.50000    -0.1150000    0.0850000   1.172438e-03  2.346713e-06
    158    152   2   0.50000    -0.1150000    0.0850000   1.172438e-03  2.346713e-06
    149    170   2   0.50000    -0.1150000    0.1150000   2.431434e-04  1.541678e-07
    151    159   2   0.50000    -0.1700000   -0.1150000   9.038862e-04  9.862632e-07
    151    170   2   0.50000    -0.1700000    0.1150000   1.874504e-04  6.479276e-08
    150    153   2   0.50000     0.0850000   -0.1150000   1.172438e-03  2.346713e-06
    150    157   2   0.50000     0.0850000   -0.1150000   1.172438e-03  2.346713e-06
    151    154   2   0.50000    -0.1700000   -0.1150000   9.038862e-04  9.862632e-07
    151    166   2   0.50000    -0.1700000    0.1150000   1.874504e-04  6.479276e-08
    157    154   2   0.50000    -0.1150000   -0.1150000   1.172438e-03  2.346713e-06
    157    166   2   0.50000    -0.1150000    0.1150000   2.431434e-04  1.541678e-07
    151    156   2   0.50000    -0.1700000   -0.1150000   9.038862e-04  9.862632e-07
    151    169   2   0.50000    -0.1700000    0.1150000   1.874504e-04  6.479276e-08
    153    156   2   0.50000    -0.1150000   -0.1150000   1.172438e-03  2.346713e-06
    153    169   2   0.50000    -0.1150000    0.1150000   2.431434e-04  1.541678e-07
    152    155   2   0.50000     0.0850000    0.0850000   1.172438e-03  2.346713e-06
    152    167   2   0.50000     0.0850000    0.1150000   2.431434e-04  1.541678e-07
    166    155   2   0.50000     0.1150000    0.0850000   2.431434e-04  1.541678e-07
    166    167   2   0.50000     0.1150000    0.1150000   5.042375e-05  1.012808e-08
    153    175   2   0.50000    -0.1150000   -0.1700000   9.038862e-04  9.862632e-07
    167    156   2   0.50000     0.1150000   -0.1150000   2.431434e-04  1.541678e-07
    167    175   2   0.50000     0.1150000   -0.1700000   1.874504e-04  6.479276e-08
    154    168   2   0.50000    -0.1150000    0.1150000   2.431434e-04  1.541678e-07
    175    157   2   0.50000    -0.1700000   -0.1150000   9.038862e-04  9.862632e-07
    175    168   2   0.50000    -0.1700000    0.1150000   1.874504e-04  6.479276e-08
    154    174   2   0.50000    -0.1150000    0.0850000   1.172438e-03  2.346713e-06
    156    174   2   0.50000    -0.1150000    0.0850000   1.172438e-03  2.346713e-06
    155    169   2   0.50000     0.0850000    0.1150000   2.431434e-04  1.541678e-07
    168    152   2   0.50000     0.1150000    0.0850000   2.431434e-04  1.541678e-07
    168    169   2   0.50000     0.1150000    0.1150000   5.042375e-05  1.012808e-08
    150    171   2   0.50000     0.0850000    0.1150000   2.431434e-04  1.541678e-07
    170    147   2   0.50000     0.1150000   -0.1150000   2.431434e-04  1.541678e-07
    170    171   2   0.50000     0.1150000    0.1150000   5.042375e-05  1.012808e-08
    178    174   2   0.50000    -0.1150000    0.0850000   1.172438e-03  2.346713e-06
    178    195   2   0.50000    -0.1150000    0.1150000   2.431434e-04  1.541678e-07
    194    174   2   0.50000     0.1150000    0.0850000   2.431434e-04  1.541678e-07
    194    195   2   0.50000     0.1150000    0.1150000   5.042375e-05  1.012808e-08
    173    177   2   0.50000    -0.1150000   -0.1150000   1.172438e-03  2.346713e-06
    173    179   2   0.50000    -0.1150000    0.7000000   1.692561e-03  3.993218e-06
    194    177   2   0.50000     0.1150000   -0.1150000   2.431434e-04  1.541678e-07
    194    179   2   0.50000     0.1150000    0.7000000   3.510079e-04  2.623353e-07
    172    175   2   0.50000    -0.1150000   -0.1700000   9.038862e-04  9.862632e-07
    172    176   2   0.50000    -0.1150000   -0.1150000   1.172438e-03  2.346713e-06
    195    175   2   0.50000     0.1150000   -0.1700000   1.874504e-04  6.479276e-08
    195    176   2   0.50000     0.1150000   -0.1150000   2.431434e-04  1.541678e-07
    173    155   2   0.50000    -0.1150000    0.0850000   1.172438e-03  2.346713e-06
    176    155   2   0.50000    -0.1150000    0.0850000   1.172438e-03  2.346713e-06
    173    196   2   0.50000    -0.1150000    0.1150000   2.431434e-04  1.541678e-07
    175    177   2   0.50000    -0.1700000   -0.1150000   9.038862e-04  9.862632e-07
    175    196   2   0.50000    -0.1700000    0.1150000   1.874504e-04  6.479276e-08
    174    197   2   0.50000     0.0850000    0.1150000   2.431434e-04  1.541678e-07
    196    178   2   0.50000     0.1150000   -0.1150000   2.431434e-04  1.541678e-07
    196    197   2   0.50000     0.1150000    0.1150000   5.042375e-05  1.012808e-08
    176    179   2   0.50000    -0.1150000    0.7000000   1.692561e-03  3.993218e-06
    197    172   2   0.50000     0.1150000   -0.1150000   2.431434e-04  1.541678e-07
    197    179   2   0.50000     0.1150000    0.7000000   3.510079e-04  2.623353e-07
    172    180   2   0.50000    -0.1150000   -0.4700000   1.177174e-03  1.365843e-06
    172    181   2   0.50000    -0.1150000   -0.1150000   1.172438e-03  2.346713e-06
    177    180   2   0.50000    -0.1150000   -0.4700000   1.177174e-03  1.365843e-06
    177    181   2   0.50000    -0.1150000   -0.1150000   1.172438e-03  2.346713e-06
    178    182   2   0.50000    -0.1150000   -0.1150000   1.172438e-03  2.346713e-06
    178    193   2   0.50000    -0.1150000   -0.1150000   1.172438e-03  2.346713e-06
    180    182   2   0.50000    -0.4700000   -0.1150000   1.177174e-03  1.365843e-06
    180    193   2   0.50000    -0.4700000   -0.1150000   1.177174e-03  1.365843e-06
    179    183   2   0.50000     0.7000000   -0.1150000   1.692561e-03  3.993218e-06
    179    198   2   0.50000     0.7000000    0.1150000   3.510079e-04  2.623353e-07
    193    183   2   0.50000    -0.1150000   -0.1150000   1.172438e-03  2.346713e-06
    193    198   2   0.50000    -0.1150000    0.1150000   2.431434e-04  1.541678e-07
    179    192   2   0.50000     0.7000000   -0.1150000   1.692561e-03  3.993218e-06
    179    205   2   0.50000     0.7000000    0.1150000   3.510079e-04  2.623353e-07
    182    192   2   0.50000    -0.1150000   -0.1150000   1.172438e-03  2.346713e-06
    182    205   2   0.50000    -0.1150000    0.1150000   2.431434e-04  1.541678e-07
    181    184   2   0.50000    -0.1150000    0.0850000   1.172438e-03  2.346713e-06
    181    199   2   0.50000    -0.1150000    0.1150000   2.431434e-04  1.541678e-07
    198    184   2   0.50000     0.1150000    0.0850000   2.431434e-04  1.541678e-07
    198    199   2   0.50000     0.1150000    0.1150000   5.042375e-05  1.012808e-08
    182    185   2   0.50000    -0.1150000   -0.1700000   9.038862e-04  9.862632e-07
    199    185   2   0.50000     0.1150000   -0.1700000   1.874504e-04  6.479276e-08
    199    192   2   0.50000     0.1150000   -0.1150000   2.431434e-04  1.541678e-07
    183    186   2   0.50000    -0.1150000    0.0850000   1.172438e-03  2.346713e-06
    192    186   2   0.50000    -0.1150000    0.0850000   1.172438e-03  2.346713e-06
    183    204   2   0.50000    -0.1150000    0.1150000   2.431434e-04  1.541678e-07
    185    193   2   0.50000    -0.1700000   -0.1150000   9.038862e-04  9.862632e-07
    185    204   2   0.50000    -0.1700000    0.1150000   1.874504e-04  6.479276e-08
    184    187   2   0.50000     0.0850000   -0.1150000   1.172438e-03  2.346713e-06
    184    191   2   0.50000     0.0850000   -0.1150000   1.172438e-03  2.346713e-06
    185    188   2   0.50000    -0.1700000   -0.1150000   9.038862e-04  9.862632e-07
    185    200   2   0.50000    -0.1700000    0.1150000   1.874504e-04  6.479276e-08
    191    188   2   0.50000    -0.1150000   -0.1150000   1.172438e-03  2.346713e-06
    191    200   2   0.50000    -0.1150000    0.1150000   2.431434e-04  1.541678e-07
    185    190   2   0.50000    -0.1700000   -0.1150000   9.038862e-04  9.862632e-07
    185    203   2   0.50000    -0.1700000    0.1150000   1.874504e-04  6.479276e-08
    187    190   2   0.50000    -0.1150000   -0.1150000   1.172438e-03  2.346713e-06
    187    203   2   0.50000    -0.1150000    0.1150000   2.431434e-04  1.541678e-07
    186    189   2   0.50000     0.0850000    0.0850000   1.172438e-03  2.346713e-06
    186    201   2   0.50000     0.0850000    0.1150000   2.431434e-04  1.541678e-07
    200    189   2   0.50000     0.1150000    0.0850000   2.431434e-04  1.541678e-07
    200    201   2   0.50000     0.1150000    0.1150000   5.042375e-05  1.012808e-08
    187    209   2   0.50000    -0.1150000   -0.1700000   9.038862e-04  9.862632e-07
    201    190   2   0.50000     0.1150000   -0.1150000   2.431434e-04  1.541678e-07
    201    209   2   0.50000     0.1150000   -0.1700000   1.874504e-04  6.479276e-08
    188    202   2   0.50000    -0.1150000    0.1150000   2.431434e-04  1.541678e-07
    209    191   2   0.50000    -0.1700000   -0.1150000   9.038862e-04  9.862632e-07
    209    202   2   0.50000    -0.1700000    0.1150000   1.874504e-04  6.479276e-08
    188    208   2   0.50000    -0.1150000    0.0850000   1.172438e-03  2.346713e-06
    190    208   2   0.50000    -0.1150000    0.0850000   1.172438e-03  2.346713e-06
    189    203   2   0.50000     0.0850000    0.1150000   2.431434e-04  1.541678e-07
    202    186   2   0.50000     0.1150000    0.0850000   2.431434e-04  1.541678e-07
    202    203   2   0.50000     0.1150000    0.1150000   5.042375e-05  1.012808e-08
    184    205   2   0.50000     0.0850000    0.1150000   2.431434e-04  1.541678e-07
    204    181   2   0.50000     0.1150000   -0.1150000   2.431434e-04  1.541678e-07
    204    205   2   0.50000     0.1150000    0.1150000   5.042375e-05  1.012808e-08
    212    208   2   0.50000    -0.1150000    0.0850000   1.172438e-03  2.346713e-06
    212    229   2   0.50000    -0.1150000    0.1150000   2.431434e-04  1.541678e-07
    228    208   2   0.50000     0.1150000    0.0850000   2.431434e-04  1.541678e-07
    228    229   2   0.50000     0.1150000    0.1150000   5.042375e-05  1.012808e-08
    207    211   2   0.50000    -0.1150000   -0.1150000   1.172438e-03  2.346713e-06
    207    213   2   0.50000    -0.1150000    0.7000000   1.692561e-03  3.993218e-06
    228    211   2   0.50000     0.1150000   -0.1150000   2.431434e-04  1.541678e-07
    228    213   2   0.50000     0.1150000    0.7000000   3.510079e-04  2.623353e-07
    206    209   2   0.50000    -0.1150000   -0.1700000   9.038862e-04  9.862632e-07
    206    210   2   0.50000    -0.1150000   -0.1150000   1.172438e-03  2.346713e-06
    229    209   2   0.50000     0.1150000   -0.1700000   1.874504e-04  6.479276e-08
    229    210   2   0.50000     0.1150000   -0.1150000   2.431434e-04  1.541678e-07
    207    189   2   0.50000    -0.1150000    0.0850000   1.172438e-03  2.346713e-06
    210    189   2   0.50000    -0.1150000    0.0850000   1.172438e-03  2.346713e-06
    207    230   2   0.50000    -0.1150000    0.1150000   2.431434e-04  1.541678e-07
    209    211   2   0.50000    -0.1700000   -0.1150000   9.038862e-04  9.862632e-07
    209    230   2   0.50000    -0.1700000    0.1150000   1.874504e-04  6.479276e-08
    208    231   2   0.50000     0.0850000    0.1150000   2.431434e-04  1.541678e-07
    230    212   2   0.50000     0.1150000   -0.1150000   2.431434e-04  1.541678e-07
    230    231   2   0.50000     0.1150000    0.1150000   5.042375e-05  1.012808e-08
    210    213   2   0.50000    -0.1150000    0.7000000   1.692561e-03  3.993218e-06
    231    206   2   0.50000     0.1150000   -0.1150000   2.431434e-04  1.541678e-07
    231    213   2   0.50000     0.1150000    0.7000000   3.510079e-04  2.623353e-07
    206    214   2   0.50000    -0.1150000   -0.4700000   1.177174e-03  1.365843e-06
    206    215   2   0.50000    -0.1150000   -0.1150000   1.172438e-03  2.346713e-06
    211    214   2   0.50000    -0.1150000   -0.4700000   1.177174e-03  1.365843e-06
    211    215   2   0.50000    -0.1150000   -0.1150000   1.172438e-03  2.346713e-06
    212    216   2   0.50000    -0.1150000   -0.1150000   1.172438e-03  2.346713e-06
    212    227   2   0.50000    -0.1150000   -0.1150000   1.172438e-03  2.346713e-06
    214    216   2   0.50000    -0.4700000   -0.1150000   1.177174e-03  1.365843e-06
    214    227   2   0.50000    -0.4700000   -0.1150000   1.177174e-03  1.365843e-06
    213    217   2   0.50000     0.7000000   -0.1150000   1.692561e-03  3.993218e-06
    213    232   2   0.50000     0.7000000    0.1150000   3.510079e-04  2.623353e-07
    227    217   2   0.50000    -0.1150000   -0.1150000   1.172438e-03  2.346713e-06
    227    232   2   0.50000    -0.1150000    0.1150000   2.431434e-04  1.541678e-07
    213    226   2   0.50000     0.7000000   -0.1150000   1.692561e-03  3.993218e-06
    213    239   2   0.50000     0.7000000    0.1150000   3.510079e-04  2.623353e-07
    216    226   2   0.50000    -0.1150000   -0.1150000   1.172438e-03  2.346713e-06
    216    239   2   0.50000    -0.1150000    0.1150000   2.431434e-04  1.541678e-07
    215    218   2   0.50000    -0.1150000    0.0850000   1.172438e-03  2.346713e-06
    215    233   2   0.50000    -0.1150000    0.1150000   2.431434e-04  1.541678e-07
    232    218   2   0.50000     0.1150000    0.0850000   2.431434e-04  1.541678e-07
    232    233   2   0.50000     0.1150000    0.1150000   5.042375e-05  1.012808e-08
    216    219   2   0.50000    -0.1150000   -0.1700000   9.038862e-04  9.862632e-07
    233    219   2   0.50000     0.1150000   -0.1700000   1.874504e-04  6.479276e-08
    233    226   2   0.50000     0.1150000   -0.1150000   2.431434e-04  1.541678e-07
    217    220   2   0.50000    -0.1150000    0.0850000   1.172438e-03  2.346713e-06
    226    220   2   0.50000    -0.1150000    0.0850000   1.172438e-03  2.346713e-06
    217    238   2   0.50000    -0.1150000    0.1150000   2.431434e-04  1.541678e-07
    219    227   2   0.50000    -0.1700000   -0.1150000   9.038862e-04  9.862632e-07
    219    238   2   0.50000    -0.1700000    0.1150000   1.874504e-04  6.479276e-08
    218    221   2   0.50000     0.0850000   -0.1150000   1.172438e-03  2.346713e-06
    218    225   2   0.50000     0.0850000   -0.1150000   1.172438e-03  2.346713e-06
    219    222   2   0.50000    -0.1700000   -0.1150000   9.038862e-04  9.862632e-07
    219    234   2   0.50000    -0.1700000    0.1150000   1.874504e-04  6.479276e-08
    225    222   2   0.50000    -0.1150000   -0.1150000   1.172438e-03  2.346713e-06
    225    234   2   0.50000    -0.1150000    0.1150000   2.431434e-04  1.541678e-07
    219    224   2   0.50000    -0.1700000   -0.1150000   9.038862e-04  9.862632e-07
    219    237   2   0.50000    -0.1700000    0.1150000   1.874504e-04  6.479276e-08
    221    224   2   0.50000    -0.1150000   -0.1150000   1.172438e-03  2.346713e-06
    221    237   2   0.50000    -0.1150000    0.1150000   2.431434e-04  1.541678e-07
    220    223   2   0.50000     0.0850000    0.0850000   1.172438e-03  2.346713e-06
    220    235   2   0.50000     0.0850000    0.1150000   2.431434e-04  1.541678e-07
    234    223   2   0.50000     0.1150000    0.0850000   2.431434e-04  1.541678e-07
    234    235   2   0.50000     0.1150000    0.1150000   5.042375e-05  1.012808e-08
    221    243   2   0.50000    -0.1150000   -0.1700000   9.038862e-04  9.862632e-07
    235    224   2   0.50000     0.1150000   -0.1150000   2.431434e-04  1.541678e-07
    235    243   2   0.50000     0.1150000   -0.1700000   1.874504e-04  6.479276e-08
    222    236   2   0.50000    -0.1150000    0.1150000   2.431434e-04  1.541678e-07
    243    225   2   0.50000    -0.1700000   -0.1150000   9.038862e-04  9.862632e-07
    243    236   2   0.50000    -0.1700000    0.1150000   1.874504e-04  6.479276e-08
    222    242   2   0.50000    -0.1150000    0.0850000   1.172438e-03  2.346713e-06
    224    242   2   0.50000    -0.1150000    0.0850000   1.172438e-03  2.346713e-06
    223    237   2   0.50000     0.0850000    0.1150000   2.431434e-04  1.541678e-07
    236    220   2   0.50000     0.1150000    0.0850000   2.431434e-04  1.541678e-07
    236    237   2   0.50000     0.1150000    0.1150000   5.042375e-05  1.012808e-08
    218    239   2   0.50000     0.0850000    0.1150000   2.431434e-04  1.541678e-07
    238    215   2   0.50000     0.1150000   -0.1150000   2.431434e-04  1.541678e-07
    238    239   2   0.50000     0.1150000    0.1150000   5.042375e-05  1.012808e-08
    246    242   2   0.50000    -0.1150000    0.0850000   1.172438e-03  2.346713e-06
    246    263   2   0.50000    -0.1150000    0.1150000   2.431434e-04  1.541678e-07
    262    242   2   0.50000     0.1150000    0.0850000   2.431434e-04  1.541678e-07
    262    263   2   0.50000     0.1150000    0.1150000   5.042375e-05  1.012808e-08
    241    245   2   0.50000    -0.1150000   -0.1150000   1.172438e-03  2.346713e-06
    241    247   2   0.50000    -0.1150000    0.7000000   1.692561e-03  3.993218e-06
    262    245   2   0.50000     0.1150000   -0.1150000   2.431434e-04  1.541678e-07
    262    247   2   0.50000     0.1150000    0.7000000   3.510079e-04  2.623353e-07
    240    243   2   0.50000    -0.1150000   -0.1700000   9.038862e-04  9.862632e-07
    240    244   2   0.50000    -0.1150000   -0.1150000   1.172438e-03  2.346713e-06
    263    243   2   0.50000     0.1150000   -0.1700000   1.874504e-04  6.479276e-08
    263    244   2   0.50000     0.1150000   -0.1150000   2.431434e-04  1.541678e-07
    241    223   2   0.50000    -0.1150000    0.0850000   1.172438e-03  2.346713e-06
    244    223   2   0.50000    -0.1150000    0.0850000   1.172438e-03  2.346713e-06
    241    264   2   0.50000    -0.1150000    0.1150000   2.431434e-04  1.541678e-07
    243    245   2   0.50000    -0.1700000   -0.1150000   9.038862e-04  9.862632e-07
    243    264   2   0.50000    -0.1700000    0.1150000   1.874504e-04  6.479276e-08
    242    265   2   0.50000     0.0850000    0.1150000   2.431434e-04  1.541678e-07
    264    246   2   0.50000     0.1150000   -0.1150000   2.431434e-04  1.541678e-07
    264    265   2   0.50000     0.1150000    0.1150000   5.042375e-05  1.012808e-08
    244    247   2   0.50000    -0.1150000    0.7000000   1.692561e-03  3.993218e-06
    265    240   2   0.50000     0.1150000   -0.1150000   2.431434e-04  1.541678e-07
    265    247   2   0.50000     0.1150000    0.7000000   3.510079e-04  2.623353e-07
    240    248   2   0.50000    -0.1150000   -0.4700000   1.177174e-03  1.365843e-06
    240    249   2   0.50000    -0.1150000   -0.1150000   1.172438e-03  2.346713e-06
    245    248   2   0.50000    -0.1150000   -0.4700000   1.177174e-03  1.365843e-06
    245    249   2   0.50000    -0.1150000   -0.1150000   1.172438e-03  2.346713e-06
    246    250   2   0.50000    -0.1150000   -0.1150000   1.172438e-03  2.346713e-06
    246    261   2   0.50000    -0.1150000   -0.1150000   1.172438e-03  2.346713e-06
    248    250   2   0.50000    -0.4700000   -0.1150000   1.177174e-03  1.365843e-06
    248    261   2   0.50000    -0.4700000   -0.1150000   1.177174e-03  1.365843e-06
    247    251   2   0.50000     0.7000000   -0.1150000   1.692561e-03  3.993218e-06
    247    266   2   0.50000     0.7000000    0.1150000   3.510079e-04  2.623353e-07
    261    251   2   0.50000    -0.1150000   -0.1150000   1.172438e-03  2.346713e-06
    261    266   2   0.50000    -0.1150000    0.1150000   2.431434e-04  1.541678e-07
    247    260   2   0.50000     0.7000000   -0.1150000   1.692561e-03  3.993218e-06
    247    273   2   0.50000     0.7000000    0.1150000   3.510079e-04  2.623353e-07
    250    260   2   0.50000    -0.1150000   -0.1150000   1.172438e-03  2.346713e-06
    250    273   2   0.50000    -0.1150000    0.1150000   2.431434e-04  1.541678e-07
    249    252   2   0.50000    -0.1150000    0.0850000   1.172438e-03  2.346713e-06
    249    267   2   0.50000    -0.1150000    0.1150000   2.431434e-04  1.541678e-07
    266    252   2   0.50000     0.1150000    0.0850000   2.431434e-04  1.541678e-07
    266    267   2   0.50000     0.1150000    0.1150000   5.042375e-05  1.012808e-08
    250    253   2   0.50000    -0.1150000   -0.1700000   9.038862e-04  9.862632e-07
    267    253   2   0.50000     0.1150000   -0.1700000   1.874504e-04  6.479276e-08
    267    260   2   0.50000     0.1150000   -0.1150000   2.431434e-04  1.541678e-07
    251    254   2   0.50000    -0.1150000    0.0850000   1.172438e-03  2.346713e-06
    260    254   2   0.50000    -0.1150000    0.0850000   1.172438e-03  2.346713e-06
    251    272   2   0.50000    -0.1150000    0.1150000   2.431434e-04  1.541678e-07
    253    261   2   0.50000    -0.1700000   -0.1150000   9.038862e-04  9.862632e-07
    253    272   2   0.50000    -0.1700000    0.1150000   1.874504e-04  6.479276e-08
    252    255   2   0.50000     0.0850000   -0.1150000   1.172438e-03  2.346713e-06
    252    259   2   0.50000     0.0850000   -0.1150000   1.172438e-03  2.346713e-06
    253    256   2   0.50000    -0.1700000   -0.1150000   9.038862e-04  9.862632e-07
    253    268   2   0.50000    -0.1700000    0.1150000   1.874504e-04  6.479276e-08
    259    256   2   0.50000    -0.1150000   -0.1150000   1.172438e-03  2.346713e-06
    259    268   2   0.50000    -0.1150000    0.1150000   2.431434e-04  1.541678e-07
    253    258   2   0.50000    -0.1700000   -0.1150000   9.038862e-04  9.862632e-07
    253    271   2   0.50000    -0.1700000    0.1150000   1.874504e-04  6.479276e-08
    255    258   2   0.50000    -0.1150000   -0.1150000   1.172438e-03  2.346713e-06
    255    271   2   0.50000    -0.1150000    0.1150000   2.431434e-04  1.541678e-07
    254    257   2   0.50000     0.0850000    0.0850000   1.172438e-03  2.346713e-06
    254    269   2   0.50000     0.0850000    0.1150000   2.431434e-04  1.541678e-07
    268    257   2   0.50000     0.1150000    0.0850000   2.431434e-04  1.541678e-07
    268    269   2   0.50000     0.1150000    0.1150000   5.042375e-05  1.012808e-08
    255    277   2   0.50000    -0.1150000   -0.1700000   9.038862e-04  9.862632e-07
    269    258   2   0.50000     0.1150000   -0.1150000   2.431434e-04  1.541678e-07
    269    277   2   0.50000     0.1150000   -0.1700000   1.874504e-04  6.479276e-08
    256    270   2   0.50000    -0.1150000    0.1150000   2.431434e-04  1.541678e-07
    277    259   2   0.50000    -0.1700000   -0.1150000   9.038862e-04  9.862632e-07
    277    270   2   0.50000    -0.1700000    0.1150000   1.874504e-04  6.479276e-08
    256    276   2   0.50000    -0.1150000    0.0850000   1.172438e-03  2.346713e-06
    258    276   2   0.50000    -0.1150000    0.0850000   1.172438e-03  2.346713e-06
    257    271   2   0.50000     0.0850000    0.1150000   2.431434e-04  1.541678e-07
    270    254   2   0.50000     0.1150000    0.0850000   2.431434e-04  1.541678e-07
    270    271   2   0.50000     0.1150000    0.1150000   5.042375e-05  1.012808e-08
    252    273   2   0.50000     0.0850000    0.1150000   2.431434e-04  1.541678e-07
    272    249   2   0.50000     0.1150000   -0.1150000   2.431434e-04  1.541678e-07
    272    273   2   0.50000     0.1150000    0.1150000   5.042375e-05  1.012808e-08
    280    276   2   0.50000    -0.1150000    0.0850000   1.172438e-03  2.346713e-06
    280    297   2   0.50000    -0.1150000    0.1150000   2.431434e-04  1.541678e-07
    296    276   2   0.50000     0.1150000    0.0850000   2.431434e-04  1.541678e-07
    296    297   2   0.50000     0.1150000    0.1150000   5.042375e-05  1.012808e-08
    275    279   2   0.50000    -0.1150000   -0.1150000   1.172438e-03  2.346713e-06
    275    281   2   0.50000    -0.1150000    0.7000000   1.692561e-03  3.993218e-06
    296    279   2   0.50000     0.1150000   -0.1150000   2.431434e-04  1.541678e-07
    296    281   2   0.50000     0.1150000    0.7000000   3.510079e-04  2.623353e-07
    274    277   2   0.50000    -0.1150000   -0.1700000   9.038862e-04  9.862632e-07
    274    278   2   0.50000    -0.1150000   -0.1150000   1.172438e-03  2.346713e-06
    297    277   2   0.50000     0.1150000   -0.1700000   1.874504e-04  6.479276e-08
    297    278   2   0.50000     0.1150000   -0.1150000   2.431434e-04  1.541678e-07
    275    257   2   0.50000    -0.1150000    0.0850000   1.172438e-03  2.346713e-06
    278    257   2   0.50000    -0.1150000    0.0850000   1.172438e-03  2.346713e-06
    275    298   2   0.50000    -0.1150000    0.1150000   2.431434e-04  1.541678e-07
    277    279   2   0.50000    -0.1700000   -0.1150000   9.038862e-04  9.862632e-07
    277    298   2   0.50000    -0.1700000    0.1150000   1.874504e-04  6.479276e-08
    276    299   2   0.50000     0.0850000    0.1150000   2.431434e-04  1.541678e-07
    298    280   2   0.50000     0.1150000   -0.1150000   2.431434e-04  1.541678e-07
    298    299   2   0.50000     0.1150000    0.1150000   5.042375e-05  1.012808e-08
    278    281   2   0.50000    -0.1150000    0.7000000   1.692561e-03  3.993218e-06
    299    274   2   0.50000     0.1150000   -0.1150000   2.431434e-04  1.541678e-07
    299    281   2   0.50000     0.1150000    0.7000000   3.510079e-04  2.623353e-07
    274    282   2   0.50000    -0.1150000   -0.4700000   1.177174e-03  1.365843e-06
    274    283   2   0.50000    -0.1150000   -0.1150000   1.172438e-03  2.346713e-06
    279    282   2   0.50000    -0.1150000   -0.4700000   1.177174e-03  1.365843e-06
    279    283   2   0.50000    -0.1150000   -0.1150000   1.172438e-03  2.346713e-06
    280    284   2   0.50000    -0.1150000   -0.1150000   1.172438e-03  2.346713e-06
    280    295   2   0.50000    -0.1150000   -0.1150000   1.172438e-03  2.346713e-06
    282    284   2   0.50000    -0.4700000   -0.1150000   1.177174e-03  1.365843e-06
    282    295   2   0.50000    -0.4700000   -0.1150000   1.177174e-03  1.365843e-06
    281    285   2   0.50000     0.7000000   -0.1150000   1.692561e-03  3.993218e-06
    281    300   2   0.50000     0.7000000    0.1150000   3.510079e-04  2.623353e-07
    295    285   2   0.50000    -0.1150000   -0.1150000   1.172438e-03  2.346713e-06
    295    300   2   0.50000    -0.1150000    0.1150000   2.431434e-04  1.541678e-07
    281    294   2   0.50000     0.7000000   -0.1150000   1.692561e-03  3.993218e-06
    281    307   2   0.50000     0.7000000    0.1150000   3.510079e-04  2.623353e-07
    284    294   2   0.50000    -0.1150000   -0.1150000   1.172438e-03  2.346713e-06
    284    307   2   0.50000    -0.1150000    0.1150000   2.431434e-04  1.541678e-07
    283    286   2   0.50000    -0.1150000    0.0850000   1.172438e-03  2.346713e-06
    283    301   2   0.50000    -0.1150000    0.1150000   2.431434e-04  1.541678e-07
    300    286   2   0.50000     0.1150000    0.0850000   2.431434e-04  1.541678e-07
    300    301   2   0.50000     0.1150000    0.1150000   5.042375e-05  1.012808e-08
    284    287   2   0.50000    -0.1150000   -0.1700000   9.038862e-04  9.862632e-07
    301    287   2   0.50000     0.1150000   -0.1700000   1.874504e-04  6.479276e-08
    301    294   2   0.50000     0.1150000   -0.1150000   2.431434e-04  1.541678e-07
    285    288   2   0.50000    -0.1150000    0.0850000   1.172438e-03  2.346713e-06
    294    288   2   0.50000    -0.1150000    0.0850000   1.172438e-03  2.346713e-06
    285    306   2   0.50000    -0.1150000    0.1150000   2.431434e-04  1.541678e-07
    287    295   2   0.50000    -0.1700000   -0.1150000   9.038862e-04  9.862632e-07
    287    306   2   0.50000    -0.1700000    0.1150000   1.874504e-04  6.479276e-08
    286    289   2   0.50000     0.0850000   -0.1150000   1.172438e-03  2.346713e-06
    286    293   2   0.50000     0.0850000   -0.1150000   1.172438e-03  2.346713e-06
    287    290   2   0.50000    -0.1700000   -0.1150000   9.038862e-04  9.862632e-07
    287    302   2   0.50000    -0.1700000    0.1150000   1.874504e-04  6.479276e-08
    293    290   2   0.50000    -0.1150000   -0.1150000   1.172438e-03  2.346713e-06
    293    302   2   0.50000    -0.1150000    0.1150000   2.431434e-04  1.541678e-07
    287    292   2   0.50000    -0.1700000   -0.1150000   9.038862e-04  9.862632e-07
    287    305   2   0.50000    -0.1700000    0.1150000   1.874504e-04  6.479276e-08
    289    292   2   0.50000    -0.1150000   -0.1150000   1.172438e-03  2.346713e-06
    289    305   2   0.50000    -0.1150000    0.1150000   2.431434e-04  1.541678e-07
    288    291   2   0.50000     0.0850000    0.0850000   1.172438e-03  2.346713e-06
    288    303   2   0.50000     0.0850000    0.1150000   2.431434e-04  1.541678e-07
    302    291   2   0.50000     0.1150000    0.0850000   2.431434e-04  1.541678e-07
    302    303   2   0.50000     0.1150000    0.1150000   5.042375e-05  1.012808e-08
    289    311   2   0.50000    -0.1150000   -0.1700000   9.038862e-04  9.862632e-07
    303    292   2   0.50000     0.1150000   -0.1150000   2.431434e-04  1.541678e-07
    303    311   2   0.50000     0.1150000   -0.1700000   1.874504e-04  6.479276e-08
    290    304   2   0.50000    -0.1150000    0.1150000   2.431434e-04  1.541678e-07
    311    293   2   0.50000    -0.1700000   -0.1150000   9.038862e-04  9.862632e-07
    311    304   2   0.50000    -0.1700000    0.1150000   1.874504e-04  6.479276e-08
    290    310   2   0.50000    -0.1150000    0.0850000   1.172438e-03  2.346713e-06
    292    310   2   0.50000    -0.1150000    0.0850000   1.172438e-03  2.346713e-06
    291    305   2   0.50000     0.0850000    0.1150000   2.431434e-04  1.541678e-07
    304    288   2   0.50000     0.1150000    0.0850000   2.431434e-04  1.541678e-07
    304    305   2   0.50000     0.1150000    0.1150000   5.042375e-05  1.012808e-08
    286    307   2   0.50000     0.0850000    0.1150000   2.431434e-04  1.541678e-07
    306    283   2   0.50000     0.1150000   -0.1150000   2.431434e-04  1.541678e-07
    306    307   2   0.50000     0.1150000    0.1150000   5.042375e-05  1.012808e-08
    314    310   2   0.50000    -0.1150000    0.0850000   1.172438e-03  2.346713e-06
    314    331   2   0.50000    -0.1150000    0.1150000   2.431434e-04  1.541678e-07
    330    310   2   0.50000     0.1150000    0.0850000   2.431434e-04  1.541678e-07
    330    331   2   0.50000     0.1150000    0.1150000   5.042375e-05  1.012808e-08
    309    313   2   0.50000    -0.1150000   -0.1150000   1.172438e-03  2.346713e-06
    309    315   2   0.50000    -0.1150000    0.7000000   1.692561e-03  3.993218e-06
    330    313   2   0.50000     0.1150000   -0.1150000   2.431434e-04  1.541678e-07
    330    315   2   0.50000     0.1150000    0.7000000   3.510079e-04  2.623353e-07
    308    311   2   0.50000    -0.1150000   -0.1700000   9.038862e-04  9.862632e-07
    308    312   2   0.50000    -0.1150000   -0.1150000   1.172438e-03  2.346713e-06
    331    311   2   0.50000     0.1150000   -0.1700000   1.874504e-04  6.479276e-08
    331    312   2   0.50000     0.1150000   -0.1150000   2.431434e-04  1.541678e-07
    309    291   2   0.50000    -0.1150000    0.0850000   1.172438e-03  2.346713e-06
    312    291   2   0.50000    -0.1150000    0.0850000   1.172438e-03  2.346713e-06
    309    332   2   0.50000    -0.1150000    0.1150000   2.431434e-04  1.541678e-07
    311    313   2   0.50000    -0.1700000   -0.1150000   9.038862e-04  9.862632e-07
    311    332   2   0.50000    -0.1700000    0.1150000   1.874504e-04  6.479276e-08
    310    333   2   0.50000     0.0850000    0.1150000   2.431434e-04  1.541678e-07
    332    314   2   0.50000     0.1150000   -0.1150000   2.431434e-04  1.541678e-07
    332    333   2   0.50000     0.1150000    0.1150000   5.042375e-05  1.012808e-08
    312    315   2   0.50000    -0.1150000    0.7000000   1.692561e-03  3.993218e-06
    333    308   2   0.50000     0.1150000   -0.1150000   2.431434e-04  1.541678e-07
    333    315   2   0.50000     0.1150000    0.7000000   3.510079e-04  2.623353e-07
    308    316   2   0.50000    -0.1150000   -0.4700000   1.177174e-03  1.365843e-06
    308    317   2   0.50000    -0.1150000   -0.1150000   1.172438e-03  2.346713e-06
    313    316   2   0.50000    -0.1150000   -0.4700000   1.177174e-03  1.365843e-06
    313    317   2   0.50000    -0.1150000   -0.1150000   1.172438e-03  2.346713e-06
    314    318   2   0.50000    -0.1150000   -0.1150000   1.172438e-03  2.346713e-06
    314    329   2   0.50000    -0.1150000   -0.1150000   1.172438e-03  2.346713e-06
    316    318   2   0.50000    -0.4700000   -0.1150000   1.177174e-03  1.365843e-06
    316    329   2   0.50000    -0.4700000   -0.1150000   1.177174e-03  1.365843e-06
    315    319   2   0.50000     0.7000000   -0.1150000   1.692561e-03  3.993218e-06
    315    334   2   0.50000     0.7000000    0.1150000   3.510079e-04  2.623353e-07
    329    319   2   0.50000    -0.1150000   -0.1150000   1.172438e-03  2.346713e-06
    329    334   2   0.50000    -0.1150000    0.1150000   2.431434e-04  1.541678e-07
    315    328   2   0.50000     0.7000000   -0.1150000   1.692561e-03  3.993218e-06
    315    341   2   0.50000     0.7000000    0.1150000   3.510079e-04  2.623353e-07
    318    328   2   0.50000    -0.1150000   -0.1150000   1.172438e-03  2.346713e-06
    318    341   2   0.50000    -0.1150000    0.1150000   2.431434e-04  1.541678e-07
    317    320   2   0.50000    -0.1150000    0.0850000   1.172438e-03  2.346713e-06
    317    335   2   0.50000    -0.1150000    0.1150000   2.431434e-04  1.541678e-07
    334    320   2   0.50000     0.1150000    0.0850000   2.431434e-04  1.541678e-07
    334    335   2   0.50000     0.1150000    0.1150000   5.042375e-05  1.012808e-08
    318    321   2   0.50000    -0.1150000   -0.1700000   9.038862e-04  9.862632e-07
    335    321   2   0.50000     0.1150000   -0.1700000   1.874504e-04  6.479276e-08
    335    328   2   0.50000     0.1150000   -0.1150000   2.431434e-04  1.541678e-07
    319    322   2   0.50000    -0.1150000    0.0850000   1.172438e-03  2.346713e-06
    328    322   2   0.50000    -0.1150000    0.0850000   1.172438e-03  2.346713e-06
    319    340   2   0.50000    -0.1150000    0.1150000   2.431434e-04  1.541678e-07
    321    329   2   0.50000    -0.1700000   -0.1150000   9.038862e-04  9.862632e-07
    321    340   2   0.50000    -0.1700000    0.1150000   1.874504e-04  6.479276e-08
    320    323   2   0.50000     0.0850000   -0.1150000   1.172438e-03  2.346713e-06
    320    327   2   0.50000     0.0850000   -0.1150000   1.172438e-03  2.346713e-06
    321    324   2   0.50000    -0.1700000   -0.1150000   9.038862e-04  9.862632e-07
    321    336   2   0.50000    -0.1700000    0.1150000   1.874504e-04  6.479276e-08
    327    324   2   0.50000    -0.1150000   -0.1150000   1.172438e-03  2.346713e-06
    327    336   2   0.50000    -0.1150000    0.1150000   2.431434e-04  1.541678e-07
    321    326   2   0.50000    -0.1700000   -0.1150000   9.038862e-04  9.862632e-07
    321    339   2   0.50000    -0.1700000    0.1150000   1.874504e-04  6.479276e-08
    323    326   2   0.50000    -0.1150000   -0.1150000   1.172438e-03  2.346713e-06
    323    339   2   0.50000    -0.1150000    0.1150000   2.431434e-04  1.541678e-07
    322    325   2   0.50000     0.0850000    0.0850000   1.172438e-03  2.346713e-06
    322    337   2   0.50000     0.0850000    0.1150000   2.431434e-04  1.541678e-07
    336    325   2   0.50000     0.1150000    0.0850000   2.431434e-04  1.541678e-07
    336    337   2   0.50000     0.1150000    0.1150000   5.042375e-05  1.012808e-08
    323    345   2   0.50000    -0.1150000   -0.1700000   9.038862e-04  9.862632e-07
    337    326   2   0.50000     0.1150000   -0.1150000   2.431434e-04  1.541678e-07
    337    345   2   0.50000     0.1150000   -0.1700000   1.874504e-04  6.479276e-08
    324    338   2   0.50000    -0.1150000    0.1150000   2.431434e-04  1.541678e-07
    345    327   2   0.50000    -0.1700000   -0.1150000   9.038862e-04  9.862632e-07
    345    338   2   0.50000    -0.1700000    0.1150000   1.874504e-04  6.479276e-08
    324    344   2   0.50000    -0.1150000    0.0850000   1.172438e-03  2.346713e-06
    326    344   2   0.50000    -0.1150000    0.0850000   1.172438e-03  2.346713e-06
    325    339   2   0.50000     0.0850000    0.1150000   2.431434e-04  1.541678e-07
    338    322   2   0.50000     0.1150000    0.0850000   2.431434e-04  1.541678e-07
    338    339   2   0.50000     0.1150000    0.1150000   5.042375e-05  1.012808e-08
    320    341   2   0.50000     0.0850000    0.1150000   2.431434e-04  1.541678e-07
    340    317   2   0.50000     0.1150000   -0.1150000   2.431434e-04  1.541678e-07
    340    341   2   0.50000     0.1150000    0.1150000   5.042375e-05  1.012808e-08
    348    344   2   0.50000    -0.1150000    0.0850000   1.172438e-03  2.346713e-06
    348    365   2   0.50000    -0.1150000    0.1150000   2.431434e-04  1.541678e-07
    364    344   2   0.50000     0.1150000    0.0850000   2.431434e-04  1.541678e-07
    364    365   2   0.50000     0.1150000    0.1150000   5.042375e-05  1.012808e-08
    343    347   2   0.50000    -0.1150000   -0.1150000   1.172438e-03  2.346713e-06
    343    349   2   0.50000    -0.1150000    0.7000000   1.692561e-03  3.993218e-06
    364    347   2   0.50000     0.1150000   -0.1150000   2.431434e-04  1.541678e-07
    364    349   2   0.50000     0.1150000    0.7000000   3.510079e-04  2.623353e-07
    342    345   2   0.50000    -0.1150000   -0.1700000   9.038862e-04  9.862632e-07
    342    346   2   0.50000    -0.1150000   -0.1150000   1.172438e-03  2.346713e-06
    365    345   2   0.50000     0.1150000   -0.1700000   1.874504e-04  6.479276e-08
    365    346   2   0.50000     0.1150000   -0.1150000   2.431434e-04  1.541678e-07
    343    325   2   0.50000    -0.1150000    0.0850000   1.172438e-03  2.346713e-06
    346    325   2   0.50000    -0.1150000    0.0850000   1.172438e-03  2.346713e-06
    343    366   2   0.50000    -0.1150000    0.1150000   2.431434e-04  1.541678e-07
    345    347   2   0.50000    -0.1700000   -0.1150000   9.038862e-04  9.862632e-07
    345    366   2   0.50000    -0.1700000    0.1150000   1.874504e-04  6.479276e-08
    344    367   2   0.50000     0.0850000    0.1150000   2.431434e-04  1.541678e-07
    366    348   2   0.50000     0.1150000   -0.1150000   2.431434e-04  1.541678e-07
    366    367   2   0.50000     0.1150000    0.1150000   5.042375e-05  1.012808e-08
    346    349   2   0.50000    -0.1150000    0.7000000   1.692561e-03  3.993218e-06
    367    342   2   0.50000     0.1150000   -0.1150000   2.431434e-04  1.541678e-07
    367    349   2   0.50000     0.1150000    0.7000000   3.510079e-04  2.623353e-07
    342    350   2   0.50000    -0.1150000   -0.4700000   1.177174e-03  1.365843e-06
    342    351   2   0.50000    -0.1150000   -0.1150000   1.172438e-03  2.346713e-06
    347    350   2   0.50000    -0.1150000   -0.4700000   1.177174e-03  1.365843e-06
    347    351   2   0.50000    -0.1150000   -0.1150000   1.172438e-03  2.346713e-06
    348    352   2   0.50000    -0.1150000   -0.1150000   1.172438e-03  2.346713e-06
    348    363   2   0.50000    -0.1150000   -0.1150000   1.172438e-03  2.346713e-06
    350    352   2   0.50000    -0.4700000   -0.1150000   1.177174e-03  1.365843e-06
    350    363   2   0.50000    -0.4700000   -0.1150000   1.177174e-03  1.365843e-06
    349    353   2   0.50000     0.7000000   -0.1150000   1.692561e-03  3.993218e-06
    349    368   2   0.50000     0.7000000    0.1150000   3.510079e-04  2.623353e-07
    363    353   2   0.50000    -0.1150000   -0.1150000   1.172438e-03  2.346713e-06
    363    368   2   0.50000    -0.1150000    0.1150000   2.431434e-04  1.541678e-07
    349    362   2   0.50000     0.7000000   -0.1150000   1.692561e-03  3.993218e-06
    349    375   2   0.50000     0.7000000    0.1150000   3.510079e-04  2.623353e-07
    352    362   2   0.50000    -0.1150000   -0.1150000   1.172438e-03  2.346713e-06
    352    375   2   0.50000    -0.1150000    0.1150000   2.431434e-04  1.541678e-07
    351    354   2   0.50000    -0.1150000    0.0850000   1.172438e-03  2.346713e-06
    351    369   2   0.50000    -0.1150000    0.1150000   2.431434e-04  1.541678e-07
    368    354   2   0.50000     0.1150000    0.0850000   2.431434e-04  1.541678e-07
    368    369   2   0.50000     0.1150000    0.1150000   5.042375e-05  1.012808e-08
    352    355   2   0.50000    -0.1150000   -0.1700000   9.038862e-04  9.862632e-07
    369    355   2   0.50000     0.1150000   -0.1700000   1.874504e-04  6.479276e-08
    369    362   2   0.50000     0.1150000   -0.1150000   2.431434e-04  1.541678e-07
    353    356   2   0.50000    -0.1150000    0.0850000   1.172438e-03  2.346713e-06
    362    356   2   0.50000    -0.1150000    0.0850000   1.172438e-03  2.346713e-06
    353    374   2   0.50000    -0.1150000    0.1150000   2.431434e-04  1.541678e-07
    355    363   2   0.50000    -0.1700000   -0.1150000   9.038862e-04  9.862632e-07
    355    374   2   0.50000    -0.1700000    0.1150000   1.874504e-04  6.479276e-08
    354    357   2   0.50000     0.0850000   -0.1150000   1.172438e-03  2.346713e-06
    354    361   2   0.50000     0.0850000   -0.1150000   1.172438e-03  2.346713e-06
    355    358   2   0.50000    -0.1700000   -0.1150000   9.038862e-04  9.862632e-07
    355    370   2   0.50000    -0.1700000    0.1150000   1.874504e-04  6.479276e-08
    361    358   2   0.50000    -0.1150000   -0.1150000   1.172438e-03  2.346713e-06
    361    370   2   0.50000    -0.1150000    0.1150000   2.431434e-04  1.541678e-07
    355    360   2   0.50000    -0.1700000   -0.1150000   9.038862e-04  9.862632e-07
    355    373   2   0.50000    -0.1700000    0.1150000   1.874504e-04  6.479276e-08
    357    360   2   0.50000    -0.1150000   -0.1150000   1.172438e-03  2.346713e-06
    357    373   2   0.50000    -0.1150000    0.1150000   2.431434e-04  1.541678e-07
    356    359   2   0.50000     0.0850000    0.0850000   1.172438e-03  2.346713e-06
    356    371   2   0.50000     0.0850000    0.1150000   2.431434e-04  1.541678e-07
    370    359   2   0.50000     0.1150000    0.0850000   2.431434e-04  1.541678e-07
    370    371   2   0.50000     0.1150000    0.1150000   5.042375e-05  1.012808e-08
    357    379   2   0.50000    -0.1150000   -0.1700000   9.038862e-04  9.862632e-07
    371    360   2   0.50000     0.1150000   -0.1150000   2.431434e-04  1.541678e-07
    371    379   2   0.50000     0.1150000   -0.1700000   1.874504e-04  6.479276e-08
    358    372   2   0.50000    -0.1150000    0.1150000   2.431434e-04  1.541678e-07
    379    361   2   0.50000    -0.1700000   -0.1150000   9.038862e-04  9.862632e-07
    379    372   2   0.50000    -0.1700000    0.1150000   1.874504e-04  6.479276e-08
    358    378   2   0.50000    -0.1150000    0.0850000   1.172438e-03  2.346713e-06
    360    378   2   0.50000    -0.1150000    0.0850000   1.172438e-03  2.346713e-06
    359    373   2   0.50000     0.0850000    0.1150000   2.431434e-04  1.541678e-07
    372    356   2   0.50000     0.1150000    0.0850000   2.431434e-04  1.541678e-07
    372    373   2   0.50000     0.1150000    0.1150000   5.042375e-05  1.012808e-08
    354    375   2   0.50000     0.0850000    0.1150000   2.431434e-04  1.541678e-07
    374    351   2   0.50000     0.1150000   -0.1150000   2.431434e-04  1.541678e-07
    374    375   2   0.50000     0.1150000    0.1150000   5.042375e-05  1.012808e-08
    382    378   2   0.50000    -0.1150000    0.0850000   1.172438e-03  2.346713e-06
    382    399   2   0.50000    -0.1150000    0.1150000   2.431434e-04  1.541678e-07
    398    378   2   0.50000     0.1150000    0.0850000   2.431434e-04  1.541678e-07
    398    399   2   0.50000     0.1150000    0.1150000   5.042375e-05  1.012808e-08
    377    381   2   0.50000    -0.1150000   -0.1150000   1.172438e-03  2.346713e-06
    377    383   2   0.50000    -0.1150000    0.7000000   1.692561e-03  3.993218e-06
    398    381   2   0.50000     0.1150000   -0.1150000   2.431434e-04  1.541678e-07
    398    383   2   0.50000     0.1150000    0.7000000   3.510079e-04  2.623353e-07
    376    379   2   0.50000    -0.1150000   -0.1700000   9.038862e-04  9.862632e-07
    376    380   2   0.50000    -0.1150000   -0.1150000   1.172438e-03  2.346713e-06
    399    379   2   0.50000     0.1150000   -0.1700000   1.874504e-04  6.479276e-08
    399    380   2   0.50000     0.1150000   -0.1150000   2.431434e-04  1.541678e-07
    377    359   2   0.50000    -0.1150000    0.0850000   1.172438e-03  2.346713e-06
    380    359   2   0.50000    -0.1150000    0.0850000   1.172438e-03  2.346713e-06
    377    400   2   0.50000    -0.1150000    0.1150000   2.431434e-04  1.541678e-07
    379    381   2   0.50000    -0.1700000   -0.1150000   9.038862e-04  9.862632e-07
    379    400   2   0.50000    -0.1700000    0.1150000   1.874504e-04  6.479276e-08
    378    401   2   0.50000     0.0850000    0.1150000   2.431434e-04  1.541678e-07
    400    382   2   0.50000     0.1150000   -0.1150000   2.431434e-04  1.541678e-07
    400    401   2   0.50000     0.1150000    0.1150000   5.042375e-05  1.012808e-08
    380    383   2   0.50000    -0.1150000    0.7000000   1.692561e-03  3.993218e-06
    401    376   2   0.50000     0.1150000   -0.1150000   2.431434e-04  1.541678e-07
    401    383   2   0.50000     0.1150000    0.7000000   3.510079e-04  2.623353e-07
    376    384   2   0.50000    -0.1150000   -0.4700000   1.177174e-03  1.365843e-06
    376    385   2   0.50000    -0.1150000   -0.1150000   1.172438e-03  2.346713e-06
    381    384   2   0.50000    -0.1150000   -0.4700000   1.177174e-03  1.365843e-06
    381    385   2   0.50000    -0.1150000   -0.1150000   1.172438e-03  2.346713e-06
    382    386   2   0.50000    -0.1150000   -0.1150000   1.172438e-03  2.346713e-06
    382    397   2   0.50000    -0.1150000   -0.1150000   1.172438e-03  2.346713e-06
    384    386   2   0.50000    -0.4700000   -0.1150000   1.177174e-03  1.365843e-06
    384    397   2   0.50000    -0.4700000   -0.1150000   1.177174e-03  1.365843e-06
    383    387   2   0.50000     0.7000000   -0.1150000   1.692561e-03  3.993218e-06
    383    402   2   0.50000     0.7000000    0.1150000   3.510079e-04  2.623353e-07
    397    387   2   0.50000    -0.1150000   -0.1150000   1.172438e-03  2.346713e-06
    397    402   2   0.50000    -0.1150000    0.1150000   2.431434e-04  1.541678e-07
    383    396   2   0.50000     0.7000000   -0.1150000   1.692561e-03  3.993218e-06
    383    409   2   0.50000     0.7000000    0.1150000   3.510079e-04  2.623353e-07
    386    396   2   0.50000    -0.1150000   -0.1150000   1.172438e-03  2.346713e-06
    386    409   2   0.50000    -0.1150000    0.1150000   2.431434e-04  1.541678e-07
    385    388   2   0.50000    -0.1150000    0.0850000   1.172438e-03  2.346713e-06
    385    403   2   0.50000    -0.1150000    0.1150000   2.431434e-04  1.541678e-07
    402    388   2   0.50000     0.1150000    0.0850000   2.431434e-04  1.541678e-07
    402    403   2   0.50000     0.1150000    0.1150000   5.042375e-05  1.012808e-08
    386    389   2   0.50000    -0.1150000   -0.1700000   9.038862e-04  9.862632e-07
    403    389   2   0.50000     0.1150000   -0.1700000   1.874504e-04  6.479276e-08
    403    396   2   0.50000     0.1150000   -0.1150000   2.431434e-04  1.541678e-07
    387    390   2   0.50000    -0.1150000    0.0850000   1.172438e-03  2.346713e-06
    396    390   2   0.50000    -0.1150000    0.0850000   1.172438e-03  2.346713e-06
    387    408   2   0.50000    -0.1150000    0.1150000   2.431434e-04  1.541678e-07
    389    397   2   0.50000    -0.1700000   -0.1150000   9.038862e-04  9.862632e-07
    389    408   2   0.50000    -0.1700000    0.1150000   1.874504e-04  6.479276e-08
    388    391   2   0.50000     0.0850000   -0.1150000   1.172438e-03  2.346713e-06
    388    395   2   0.50000     0.0850000   -0.1150000   1.172438e-03  2.346713e-06
    389    392   2   0.50000    -0.1700000   -0.1150000   9.038862e-04  9.862632e-07
    389    404   2   0.50000    -0.1700000    0.1150000   1.874504e-04  6.479276e-08
    395    392   2   0.50000    -0.1150000   -0.1150000   1.172438e-03  2.346713e-06
    395    404   2   0.50000    -0.1150000    0.1150000   2.431434e-04  1.541678e-07
    389    394   2   0.50000    -0.1700000   -0.1150000   9.038862e-04  9.862632e-07
    389    407   2   0.50000    -0.1700000    0.1150000   1.874504e-04  6.479276e-08
    391    394   2   0.50000    -0.1150000   -0.1150000   1.172438e-03  2.346713e-06
    391    407   2   0.50000    -0.1150000    0.1150000   2.431434e-04  1.541678e-07
    390    393   2   0.50000     0.0850000    0.0850000   1.172438e-03  2.346713e-06
    390    405   2   0.50000     0.0850000    0.1150000   2.431434e-04  1.541678e-07
    404    393   2   0.50000     0.1150000    0.0850000   2.431434e-04  1.541678e-07
    404    405   2   0.50000     0.1150000    0.1150000   5.042375e-05  1.012808e-08
    391    413   2   0.50000    -0.1150000   -0.1700000   9.038862e-04  9.862632e-07
    405    394   2   0.50000     0.1150000   -0.1150000   2.431434e-04  1.541678e-07
    405    413   2   0.50000     0.1150000   -0.1700000   1.874504e-04  6.479276e-08
    392    406   2   0.50000    -0.1150000    0.1150000   2.431434e-04  1.541678e-07
    413    395   2   0.50000    -0.1700000   -0.1150000   9.038862e-04  9.862632e-07
    413    406   2   0.50000    -0.1700000    0.1150000   1.874504e-04  6.479276e-08
    392    412   2   0.50000    -0.1150000    0.0850000   1.172438e-03  2.346713e-06
    394    412   2   0.50000    -0.1150000    0.0850000   1.172438e-03  2.346713e-06
    393    407   2   0.50000     0.0850000    0.1150000   2.431434e-04  1.541678e-07
    406    390   2   0.50000     0.1150000    0.0850000   2.431434e-04  1.541678e-07
    406    407   2   0.50000     0.1150000    0.1150000   5.042375e-05  1.012808e-08
    388    409   2   0.50000     0.0850000    0.1150000   2.431434e-04  1.541678e-07
    408    385   2   0.50000     0.1150000   -0.1150000   2.431434e-04  1.541678e-07
    408    409   2   0.50000     0.1150000    0.1150000   5.042375e-05  1.012808e-08
    416    412   2   0.50000    -0.1150000    0.0850000   1.172438e-03  2.346713e-06
    416    433   2   0.50000    -0.1150000    0.1150000   2.431434e-04  1.541678e-07
    432    412   2   0.50000     0.1150000    0.0850000   2.431434e-04  1.541678e-07
    432    433   2   0.50000     0.1150000    0.1150000   5.042375e-05  1.012808e-08
    411    415   2   0.50000    -0.1150000   -0.1150000   1.172438e-03  2.346713e-06
    411    417   2   0.50000    -0.1150000    0.7000000   1.692561e-03  3.993218e-06
    432    415   2   0.50000     0.1150000   -0.1150000   2.431434e-04  1.541678e-07
    432    417   2   0.50000     0.1150000    0.7000000   3.510079e-04  2.623353e-07
    410    413   2   0.50000    -0.1150000   -0.1700000   9.038862e-04  9.862632e-07
    410    414   2   0.50000    -0.1150000   -0.1150000   1.172438e-03  2.346713e-06
    433    413   2   0.50000     0.1150000   -0.1700000   1.874504e-04  6.479276e-08
    433    414   2   0.50000     0.1150000   -0.1150000   2.431434e-04  1.541678e-07
    411    393   2   0.50000    -0.1150000    0.0850000   1.172438e-03  2.346713e-06
    414    393   2   0.50000    -0.1150000    0.0850000   1.172438e-03  2.346713e-06
    411    434   2   0.50000    -0.1150000    0.1150000   2.431434e-04  1.541678e-07
    413    415   2   0.50000    -0.1700000   -0.1150000   9.038862e-04  9.862632e-07
    413    434   2   0.50000    -0.1700000    0.1150000   1.874504e-04  6.479276e-08
    412    435   2   0.50000     0.0850000    0.1150000   2.431434e-04  1.541678e-07
    434    416   2   0.50000     0.1150000   -0.1150000   2.431434e-04  1.541678e-07
    434    435   2   0.50000     0.1150000    0.1150000   5.042375e-05  1.012808e-08
    414    417   2   0.50000    -0.1150000    0.7000000   1.692561e-03  3.993218e-06
    435    410   2   0.50000     0.1150000   -0.1150000   2.431434e-04  1.541678e-07
    435    417   2   0.50000     0.1150000    0.7000000   3.510079e-04  2.623353e-07
    410    418   2   0.50000    -0.1150000   -0.4700000   1.177174e-03  1.365843e-06
    410    419   2   0.50000    -0.1150000   -0.1150000   1.172438e-03  2.346713e-06
    415    418   2   0.50000    -0.1150000   -0.4700000   1.177174e-03  1.365843e-06
    415    419   2   0.50000    -0.1150000   -0.1150000   1.172438e-03  2.346713e-06
    416    420   2   0.50000    -0.1150000   -0.1150000   1.172438e-03  2.346713e-06
    416    431   2   0.50000    -0.1150000   -0.1150000   1.172438e-03  2.346713e-06
    418    420   2   0.50000    -0.4700000   -0.1150000   1.177174e-03  1.365843e-06
    418    431   2   0.50000    -0.4700000   -0.1150000   1.177174e-03  1.365843e-06
    417    421   2   0.50000     0.7000000   -0.1150000   1.692561e-03  3.993218e-06
    417    436   2   0.50000     0.7000000    0.1150000   3.510079e-04  2.623353e-07
    431    421   2   0.50000    -0.1150000   -0.1150000   1.172438e-03  2.346713e-06
    431    436   2   0.50000    -0.1150000    0.1150000   2.431434e-04  1.541678e-07
    417    430   2   0.50000     0.7000000   -0.1150000   1.692561e-03  3.993218e-06
    417    443   2   0.50000     0.7000000    0.1150000   3.510079e-04  2.623353e-07
    420    430   2   0.50000    -0.1150000   -0.1150000   1.172438e-03  2.346713e-06
    420    443   2   0.50000    -0.1150000    0.1150000   2.431434e-04  1.541678e-07
    419    422   2   0.50000    -0.1150000    0.0850000   1.172438e-03  2.346713e-06
    419    437   2   0.50000    -0.1150000    0.1150000   2.431434e-04  1.541678e-07
    436    422   2   0.50000     0.1150000    0.0850000   2.431434e-04  1.541678e-07
    436    437   2   0.50000     0.1150000    0.1150000   5.042375e-05  1.012808e-08
    420    423   2   0.50000    -0.1150000   -0.1700000   9.038862e-04  9.862632e-07
    437    423   2   0.50000     0.1150000   -0.1700000   1.874504e-04  6.479276e-08
    437    430   2   0.50000     0.1150000   -0.1150000   2.431434e-04  1.541678e-07
    421    424   2   0.50000    -0.1150000    0.0850000   1.172438e-03  2.346713e-06
    430    424   2   0.50000    -0.1150000    0.0850000   1.172438e-03  2.346713e-06
    421    442   2   0.50000    -0.1150000    0.1150000   2.431434e-04  1.541678e-07
    423    431   2   0.50000    -0.1700000   -0.1150000   9.038862e-04  9.862632e-07
    423    442   2   0.50000    -0.1700000    0.1150000   1.874504e-04  6.479276e-08
    422    425   2   0.50000     0.0850000   -0.1150000   1.172438e-03  2.346713e-06
    422    429   2   0.50000     0.0850000   -0.1150000   1.172438e-03  2.346713e-06
    423    426   2   0.50000    -0.1700000   -0.1150000   9.038862e-04  9.862632e-07
    423    438   2   0.50000    -0.1700000    0.1150000   1.874504e-04  6.479276e-08
    429    426   2   0.50000    -0.1150000   -0.1150000   1.172438e-03  2.346713e-06
    429    438   2   0.50000    -0.1150000    0.1150000   2.431434e-04  1.541678e-07
    423    428   2   0.50000    -0.1700000   -0.1150000   9.038862e-04  9.862632e-07
    423    441   2   0.50000    -0.1700000    0.1150000   1.874504e-04  6.479276e-08
    425    428   2   0.50000    -0.1150000   -0.1150000   1.172438e-03  2.346713e-06
    425    441   2   0.50000    -0.1150000    0.1150000   2.431434e-04  1.541678e-07
    424    427   2   0.50000     0.0850000    0.0850000   1.172438e-03  2.346713e-06
    424    439   2   0.50000     0.0850000    0.1150000   2.431434e-04  1.541678e-07
    438    427   2   0.50000     0.1150000    0.0850000   2.431434e-04  1.541678e-07
    438    439   2   0.50000     0.1150000    0.1150000   5.042375e-05  1.012808e-08
    425    447   2   0.50000    -0.1150000   -0.1700000   9.038862e-04  9.862632e-07
    439    428   2   0.50000     0.1150000   -0.1150000   2.431434e-04  1.541678e-07
    439    447   2   0.50000     0.1150000   -0.1700000   1.874504e-04  6.479276e-08
    426    440   2   0.50000    -0.1150000    0.1150000   2.431434e-04  1.541678e-07
    447    429   2   0.50000    -0.1700000   -0.1150000   9.038862e-04  9.862632e-07
    447    440   2   0.50000    -0.1700000    0.1150000   1.874504e-04  6.479276e-08
    426    446   2   0.50000    -0.1150000    0.0850000   1.172438e-03  2.346713e-06
    428    446   2   0.50000    -0.1150000    0.0850000   1.172438e-03  2.346713e-06
    427    441   2   0.50000     0.0850000    0.1150000   2.431434e-04  1.541678e-07
    440    424   2   0.50000     0.1150000    0.0850000   2.431434e-04  1.541678e-07
    440    441   2   0.50000     0.1150000    0.1150000   5.042375e-05  1.012808e-08
    422    443   2   0.50000     0.0850000    0.1150000   2.431434e-04  1.541678e-07
    442    419   2   0.50000     0.1150000   -0.1150000   2.431434e-04  1.541678e-07
    442    443   2   0.50000     0.1150000    0.1150000   5.042375e-05  1.012808e-08
    450    446   2   0.50000    -0.1150000    0.0850000   1.172438e-03  2.346713e-06
    450    467   2   0.50000    -0.1150000    0.1150000   2.431434e-04  1.541678e-07
    466    446   2   0.50000     0.1150000    0.0850000   2.431434e-04  1.541678e-07
    466    467   2   0.50000     0.1150000    0.1150000   5.042375e-05  1.012808e-08
    445    449   2   0.50000    -0.1150000   -0.1150000   1.172438e-03  2.346713e-06
    445    451   2   0.50000    -0.1150000    0.7000000   1.692561e-03  3.993218e-06
    466    449   2   0.50000     0.1150000   -0.1150000   2.431434e-04  1.541678e-07
    466    451   2   0.50000     0.1150000    0.7000000   3.510079e-04  2.623353e-07
    444    447   2   0.50000    -0.1150000   -0.1700000   9.038862e-04  9.862632e-07
    444    448   2   0.50000    -0.1150000   -0.1150000   1.172438e-03  2.346713e-06
    467    447   2   0.50000     0.1150000   -0.1700000   1.874504e-04  6.479276e-08
    467    448   2   0.50000     0.1150000   -0.1150000   2.431434e-04  1.541678e-07
    445    427   2   0.50000    -0.1150000    0.0850000   1.172438e-03  2.346713e-06
    448    427   2   0.50000    -0.1150000    0.0850000   1.172438e-03  2.346713e-06
    445    468   2   0.50000    -0.1150000    0.1150000   2.431434e-04  1.541678e-07
    447    449   2   0.50000    -0.1700000   -0.1150000   9.038862e-04  9.862632e-07
    447    468   2   0.50000    -0.1700000    0.1150000   1.874504e-04  6.479276e-08
    446    469   2   0.50000     0.0850000    0.1150000   2.431434e-04  1.541678e-07
    468    450   2   0.50000     0.1150000   -0.1150000   2.431434e-04  1.541678e-07
    468    469   2   0.50000     0.1150000    0.1150000   5.042375e-05  1.012808e-08
    448    451   2   0.50000    -0.1150000    0.7000000   1.692561e-03  3.993218e-06
    469    444   2   0.50000     0.1150000   -0.1150000   2.431434e-04  1.541678e-07
    469    451   2   0.50000     0.1150000    0.7000000   3.510079e-04  2.623353e-07
    444    452   2   0.50000    -0.1150000   -0.4700000   1.177174e-03  1.365843e-06
    444    453   2   0.50000    -0.1150000   -0.1150000   1.172438e-03  2.346713e-06
    449    452   2   0.50000    -0.1150000   -0.4700000   1.177174e-03  1.365843e-06
    449    453   2   0.50000    -0.1150000   -0.1150000   1.172438e-03  2.346713e-06
    450    454   2   0.50000    -0.1150000   -0.1150000   1.172438e-03  2.346713e-06
    450    465   2   0.50000    -0.1150000   -0.1150000   1.172438e-03  2.346713e-06
    452    454   2   0.50000    -0.4700000   -0.1150000   1.177174e-03  1.365843e-06
    452    465   2   0.50000    -0.4700000   -0.1150000   1.177174e-03  1.365843e-06
    451    455   2   0.50000     0.7000000   -0.1150000   1.692561e-03  3.993218e-06
    451    470   2   0.50000     0.7000000    0.1150000   3.510079e-04  2.623353e-07
    465    455   2   0.50000    -0.1150000   -0.1150000   1.172438e-03  2.346713e-06
    465    470   2   0.50000    -0.1150000    0.1150000   2.431434e-04  1.541678e-07
    451    464   2   0.50000     0.7000000   -0.1150000   1.692561e-03  3.993218e-06
    451    477   2   0.50000     0.7000000    0.1150000   3.510079e-04  2.623353e-07
    454    464   2   0.50000    -0.1150000   -0.1150000   1.172438e-03  2.346713e-06
    454    477   2   0.50000    -0.1150000    0.1150000   2.431434e-04  1.541678e-07
    453    456   2   0.50000    -0.1150000    0.0850000   1.172438e-03  2.346713e-06
    453    471   2   0.50000    -0.1150000    0.1150000   2.431434e-04  1.541678e-07
    470    456   2   0.50000     0.1150000    0.0850000   2.431434e-04  1.541678e-07
    470    471   2   0.50000     0.1150000    0.1150000   5.042375e-05  1.012808e-08
    454    457   2   0.50000    -0.1150000   -0.1700000   9.038862e-04  9.862632e-07
    471    457   2   0.50000     0.1150000   -0.1700000   1.874504e-04  6.479276e-08
    471    464   2   0.50000     0.1150000   -0.1150000   2.431434e-04  1.541678e-07
    455    458   2   0.50000    -0.1150000    0.0850000   1.172438e-03  2.346713e-06
    464    458   2   0.50000    -0.1150000    0.0850000   1.172438e-03  2.346713e-06
    455    476   2   0.50000    -0.1150000    0.1150000   2.431434e-04  1.541678e-07
    457    465   2   0.50000    -0.1700000   -0.1150000   9.038862e-04  9.862632e-07
    457    476   2   0.50000    -0.1700000    0.1150000   1.874504e-04  6.479276e-08
    456    459   2   0.50000     0.0850000   -0.1150000   1.172438e-03  2.346713e-06
    456    463   2   0.50000     0.0850000   -0.1150000   1.172438e-03  2.346713e-06
    457    460   2   0.50000    -0.1700000   -0.1150000   9.038862e-04  9.862632e-07
    457    472   2   0.50000    -0.1700000    0.1150000   1.874504e-04  6.479276e-08
    463    460   2   0.50000    -0.1150000   -0.1150000   1.172438e-03  2.346713e-06
    463    472   2   0.50000    -0.1150000    0.1150000   2.431434e-04  1.541678e-07
    457    462   2   0.50000    -0.1700000   -0.1150000   9.038862e-04  9.862632e-07
    457    475   2   0.50000    -0.1700000    0.1150000   1.874504e-04  6.479276e-08
    459    462   2   0.50000    -0.1150000   -0.1150000   1.172438e-03  2.346713e-06
    459    475   2   0.50000    -0.1150000    0.1150000   2.431434e-04  1.541678e-07
    458    461   2   0.50000     0.0850000    0.0850000   1.172438e-03  2.346713e-06
    458    473   2   0.50000     0.0850000    0.1150000   2.431434e-04  1.541678e-07
    472    461   2   0.50000     0.1150000    0.0850000   2.431434e-04  1.541678e-07
    472    473   2   0.50000     0.1150000    0.1150000   5.042375e-05  1.012808e-08
    459    481   2   0.50000    -0.1150000   -0.1700000   9.038862e-04  9.862632e-07
    473    462   2   0.50000     0.1150000   -0.1150000   2.431434e-04  1.541678e-07
    473    481   2   0.50000     0.1150000   -0.1700000   1.874504e-04  6.479276e-08
    460    474   2   0.50000    -0.1150000    0.1150000   2.431434e-04  1.541678e-07
    481    463   2   0.50000    -0.1700000   -0.1150000   9.038862e-04  9.862632e-07
    481    474   2   0.50000    -0.1700000    0.1150000   1.874504e-04  6.479276e-08
    460    480   2   0.50000    -0.1150000    0.0850000   1.172438e-03  2.346713e-06
    462    480   2   0.50000    -0.1150000    0.0850000   1.172438e-03  2.346713e-06
    461    475   2   0.50000     0.0850000    0.1150000   2.431434e-04  1.541678e-07
    474    458   2   0.50000     0.1150000    0.0850000   2.431434e-04  1.541678e-07
    474    475   2   0.50000     0.1150000    0.1150000   5.042375e-05  1.012808e-08
    456    477   2   0.50000     0.0850000    0.1150000   2.431434e-04  1.541678e-07
    476    453   2   0.50000     0.1150000   -0.1150000   2.431434e-04  1.541678e-07
    476    477   2   0.50000     0.1150000    0.1150000   5.042375e-05  1.012808e-08
    484    480   2   0.50000    -0.1150000    0.0850000   1.172438e-03  2.346713e-06
    484    501   2   0.50000    -0.1150000    0.1150000   2.431434e-04  1.541678e-07
    500    480   2   0.50000     0.1150000    0.0850000   2.431434e-04  1.541678e-07
    500    501   2   0.50000     0.1150000    0.1150000   5.042375e-05  1.012808e-08
    479    483   2   0.50000    -0.1150000   -0.1150000   1.172438e-03  2.346713e-06
    479    485   2   0.50000    -0.1150000    0.7000000   1.692561e-03  3.993218e-06
    500    483   2   0.50000     0.1150000   -0.1150000   2.431434e-04  1.541678e-07
    500    485   2   0.50000     0.1150000    0.7000000   3.510079e-04  2.623353e-07
    478    481   2   0.50000    -0.1150000   -0.1700000   9.038862e-04  9.862632e-07
    478    482   2   0.50000    -0.1150000   -0.1150000   1.172438e-03  2.346713e-06
    501    481   2   0.50000     0.1150000   -0.1700000   1.874504e-04  6.479276e-08
    501    482   2   0.50000     0.1150000   -0.1150000   2.431434e-04  1.541678e-07
    479    461   2   0.50000    -0.1150000    0.0850000   1.172438e-03  2.346713e-06
    482    461   2   0.50000    -0.1150000    0.0850000   1.172438e-03  2.346713e-06
    479    502   2   0.50000    -0.1150000    0.1150000   2.431434e-04  1.541678e-07
    481    483   2   0.50000    -0.1700000   -0.1150000   9.038862e-04  9.862632e-07
    481    502   2   0.50000    -0.1700000    0.1150000   1.874504e-04  6.479276e-08
    480    503   2   0.50000     0.0850000    0.1150000   2.431434e-04  1.541678e-07
    502    484   2   0.50000     0.1150000   -0.1150000   2.431434e-04  1.541678e-07
    502    503   2   0.50000     0.1150000    0.1150000   5.042375e-05  1.012808e-08
    482    485   2   0.50000    -0.1150000    0.7000000   1.692561e-03  3.993218e-06
    503    478   2   0.50000     0.1150000   -0.1150000   2.431434e-04  1.541678e-07
    503    485   2   0.50000     0.1150000    0.7000000   3.510079e-04  2.623353e-07
    478    486   2   0.50000    -0.1150000   -0.4700000   1.177174e-03  1.365843e-06
    478    487   2   0.50000    -0.1150000   -0.1150000   1.172438e-03  2.346713e-06
    483    486   2   0.50000    -0.1150000   -0.4700000   1.177174e-03  1.365843e-06
    483    487   2   0.50000    -0.1150000   -0.1150000   1.172438e-03  2.346713e-06
    484    488   2   0.50000    -0.1150000   -0.1150000   1.172438e-03  2.346713e-06
    484    499   2   0.50000    -0.1150000   -0.1150000   1.172438e-03  2.346713e-06
    486    488   2   0.50000    -0.4700000   -0.1150000   1.177174e-03  1.365843e-06
    486    499   2   0.50000    -0.4700000   -0.1150000   1.177174e-03  1.365843e-06
    485    489   2   0.50000     0.7000000   -0.1150000   1.692561e-03  3.993218e-06
    485    504   2   0.50000     0.7000000    0.1150000   3.510079e-04  2.623353e-07
    499    489   2   0.50000    -0.1150000   -0.1150000   1.172438e-03  2.346713e-06
    499    504   2   0.50000    -0.1150000    0.1150000   2.431434e-04  1.541678e-07
    485    498   2   0.50000     0.7000000   -0.1150000   1.692561e-03  3.993218e-06
    485    511   2   0.50000     0.7000000    0.1150000   3.510079e-04  2.623353e-07
    488    498   2   0.50000    -0.1150000   -0.1150000   1.172438e-03  2.346713e-06
    488    511   2   0.50000    -0.1150000    0.1150000   2.431434e-04  1.541678e-07
    487    490   2   0.50000    -0.1150000    0.0850000   1.172438e-03  2.346713e-06
    487    505   2   0.50000    -0.1150000    0.1150000   2.431434e-04  1.541678e-07
    504    490   2   0.50000     0.1150000    0.0850000   2.431434e-04  1.541678e-07
    504    505   2   0.50000     0.1150000    0.1150000   5.042375e-05  1.012808e-08
    488    491   2   0.50000    -0.1150000   -0.1700000   9.038862e-04  9.862632e-07
    505    491   2   0.50000     0.1150000   -0.1700000   1.874504e-04  6.479276e-08
    505    498   2   0.50000     0.1150000   -0.1150000   2.431434e-04  1.541678e-07
    489    492   2   0.50000    -0.1150000    0.0850000   1.172438e-03  2.346713e-06
    498    492   2   0.50000    -0.1150000    0.0850000   1.172438e-03  2.346713e-06
    489    510   2   0.50000    -0.1150000    0.1150000   2.431434e-04  1.541678e-07
    491    499   2   0.50000    -0.1700000   -0.1150000   9.038862e-04  9.862632e-07
    491    510   2   0.50000    -0.1700000    0.1150000   1.874504e-04  6.479276e-08
    490    493   2   0.50000     0.0850000   -0.1150000   1.172438e-03  2.346713e-06
    490    497   2   0.50000     0.0850000   -0.1150000   1.172438e-03  2.346713e-06
    491    494   2   0.50000    -0.1700000   -0.1150000   9.038862e-04  9.862632e-07
    491    506   2   0.50000    -0.1700000    0.1150000   1.874504e-04  6.479276e-08
    497    494   2   0.50000    -0.1150000   -0.1150000   1.172438e-03  2.346713e-06
    497    506   2   0.50000    -0.1150000    0.1150000   2.431434e-04  1.541678e-07
    491    496   2   0.50000    -0.1700000   -0.1150000   9.038862e-04  9.862632e-07
    491    509   2   0.50000    -0.1700000    0.1150000   1.874504e-04  6.479276e-08
    493    496   2   0.50000    -0.1150000   -0.1150000   1.172438e-03  2.346713e-06
    493    509   2   0.50000    -0.1150000    0.1150000   2.431434e-04  1.541678e-07
    492    495   2   0.50000     0.0850000    0.0850000   1.172438e-03  2.346713e-06
    492    507   2   0.50000     0.0850000    0.1150000   2.431434e-04  1.541678e-07
    506    495   2   0.50000     0.1150000    0.0850000   2.431434e-04  1.541678e-07
    506    507   2   0.50000     0.1150000    0.1150000   5.042375e-05  1.012808e-08
    493    515   2   0.50000    -0.1150000   -0.1700000   9.038862e-04  9.862632e-07
    507    496   2   0.50000     0.1150000   -0.1150000   2.431434e-04  1.541678e-07
    507    515   2   0.50000     0.1150000   -0.1700000   1.874504e-04  6.479276e-08
    494    508   2   0.50000    -0.1150000    0.1150000   2.431434e-04  1.541678e-07
    515    497   2   0.50000    -0.1700000   -0.1150000   9.038862e-04  9.862632e-07
    515    508   2   0.50000    -0.1700000    0.1150000   1.874504e-04  6.479276e-08
    494    514   2   0.50000    -0.1150000    0.0850000   1.172438e-03  2.346713e-06
    496    514   2   0.50000    -0.1150000    0.0850000   1.172438e-03  2.346713e-06
    495    509   2   0.50000     0.0850000    0.1150000   2.431434e-04  1.541678e-07
    508    492   2   0.50000     0.1150000    0.0850000   2.431434e-04  1.541678e-07
    508    509   2   0.50000     0.1150000    0.1150000   5.042375e-05  1.012808e-08
    490    511   2   0.50000     0.0850000    0.1150000   2.431434e-04  1.541678e-07
    510    487   2   0.50000     0.1150000   -0.1150000   2.431434e-04  1.541678e-07
    510    511   2   0.50000     0.1150000    0.1150000   5.042375e-05  1.012808e-08
    518    514   2   0.50000    -0.1150000    0.0850000   1.172438e-03  2.346713e-06
    518    535   2   0.50000    -0.1150000    0.1150000   2.431434e-04  1.541678e-07
    534    514   2   0.50000     0.1150000    0.0850000   2.431434e-04  1.541678e-07
    534    535   2   0.50000     0.1150000    0.1150000   5.042375e-05  1.012808e-08
    513    517   2   0.50000    -0.1150000   -0.1150000   1.172438e-03  2.346713e-06
    513    519   2   0.50000    -0.1150000    0.7000000   1.692561e-03  3.993218e-06
    534    517   2   0.50000     0.1150000   -0.1150000   2.431434e-04  1.541678e-07
    534    519   2   0.50000     0.1150000    0.7000000   3.510079e-04  2.623353e-07
    512    515   2   0.50000    -0.1150000   -0.1700000   9.038862e-04  9.862632e-07
    512    516   2   0.50000    -0.1150000   -0.1150000   1.172438e-03  2.346713e-06
    535    515   2   0.50000     0.1150000   -0.1700000   1.874504e-04  6.479276e-08
    535    516   2   0.50000     0.1150000   -0.1150000   2.431434e-04  1.541678e-07
    513    495   2   0.50000    -0.1150000    0.0850000   1.172438e-03  2.346713e-06
    516    495   2   0.50000    -0.1150000    0.0850000   1.172438e-03  2.346713e-06
    513    536   2   0.50000    -0.1150000    0.1150000   2.431434e-04  1.541678e-07
    515    517   2   0.50000    -0.1700000   -0.1150000   9.038862e-04  9.862632e-07
    515    536   2   0.50000    -0.1700000    0.1150000   1.874504e-04  6.479276e-08
    514    537   2   0.50000     0.0850000    0.1150000   2.431434e-04  1.541678e-07
    536    518   2   0.50000     0.1150000   -0.1150000   2.431434e-04  1.541678e-07
    536    537   2   0.50000     0.1150000    0.1150000   5.042375e-05  1.012808e-08
    516    519   2   0.50000    -0.1150000    0.7000000   1.692561e-03  3.993218e-06
    537    512   2   0.50000     0.1150000   -0.1150000   2.431434e-04  1.541678e-07
    537    519   2   0.50000     0.1150000    0.7000000   3.510079e-04  2.623353e-07
    512    520   2   0.50000    -0.1150000   -0.4700000   1.177174e-03  1.365843e-06
    512    521   2   0.50000    -0.1150000   -0.1150000   1.172438e-03  2.346713e-06
    517    520   2   0.50000    -0.1150000   -0.4700000   1.177174e-03  1.365843e-06
    517    521   2   0.50000    -0.1150000   -0.1150000   1.172438e-03  2.346713e-06
    518    522   2   0.50000    -0.1150000   -0.1150000   1.172438e-03  2.346713e-06
    518    533   2   0.50000    -0.1150000   -0.1150000   1.172438e-03  2.346713e-06
    520    522   2   0.50000    -0.4700000   -0.1150000   1.177174e-03  1.365843e-06
    520    533   2   0.50000    -0.4700000   -0.1150000   1.177174e-03  1.365843e-06
    519    523   2   0.50000     0.7000000   -0.1150000   1.692561e-03  3.993218e-06
    519    538   2   0.50000     0.7000000    0.1150000   3.510079e-04  2.623353e-07
    533    523   2   0.50000    -0.1150000   -0.1150000   1.172438e-03  2.346713e-06
    533    538   2   0.50000    -0.1150000    0.1150000   2.431434e-04  1.541678e-07
    519    532   2   0.50000     0.7000000   -0.1150000   1.692561e-03  3.993218e-06
    519    545   2   0.50000     0.7000000    0.1150000   3.510079e-04  2.623353e-07
    522    532   2   0.50000    -0.1150000   -0.1150000   1.172438e-03  2.346713e-06
    522    545   2   0.50000    -0.1150000    0.1150000   2.431434e-04  1.541678e-07
    521    524   2   0.50000    -0.1150000    0.0850000   1.172438e-03  2.346713e-06
    521    539   2   0.50000    -0.1150000    0.1150000   2.431434e-04  1.541678e-07
    538    524   2   0.50000     0.1150000    0.0850000   2.431434e-04  1.541678e-07
    538    539   2   0.50000     0.1150000    0.1150000   5.042375e-05  1.012808e-08
    522    525   2   0.50000    -0.1150000   -0.1700000   9.038862e-04  9.862632e-07
    539    525   2   0.50000     0.1150000   -0.1700000   1.874504e-04  6.479276e-08
    539    532   2   0.50000     0.1150000   -0.1150000   2.431434e-04  1.541678e-07
    523    526   2   0.50000    -0.1150000    0.0850000   1.172438e-03  2.346713e-06
    532    526   2   0.50000    -0.1150000    0.0850000   1.172438e-03  2.346713e-06
    523    544   2   0.50000    -0.1150000    0.1150000   2.431434e-04  1.541678e-07
    525    533   2   0.50000    -0.1700000   -0.1150000   9.038862e-04  9.862632e-07
    525    544   2   0.50000    -0.1700000    0.1150000   1.874504e-04  6.479276e-08
    524    527   2   0.50000     0.0850000   -0.1150000   1.172438e-03  2.346713e-06
    524    531   2   0.50000     0.0850000   -0.1150000   1.172438e-03  2.346713e-06
    525    528   2   0.50000    -0.1700000   -0.1150000   9.038862e-04  9.862632e-07
    525    540   2   0.50000    -0.1700000    0.1150000   1.874504e-04  6.479276e-08
    531    528   2   0.50000    -0.1150000   -0.1150000   1.172438e-03  2.346713e-06
    531    540   2   0.50000    -0.1150000    0.1150000   2.431434e-04  1.541678e-07
    525    530   2   0.50000    -0.1700000   -0.1150000   9.038862e-04  9.862632e-07
    525    543   2   0.50000    -0.1700000    0.1150000   1.874504e-04  6.479276e-08
    527    530   2   0.50000    -0.1150000   -0.1150000   1.172438e-03  2.346713e-06
    527    543   2   0.50000    -0.1150000    0.1150000   2.431434e-04  1.541678e-07
    526    529   2   0.50000     0.0850000    0.0850000   1.172438e-03  2.346713e-06
    526    541   2   0.50000     0.0850000    0.1150000   2.431434e-04  1.541678e-07
    540    529   2   0.50000     0.1150000    0.0850000   2.431434e-04  1.541678e-07
    540    541   2   0.50000     0.1150000    0.1150000   5.042375e-05  1.012808e-08
    527    549   2   0.50000    -0.1150000   -0.1700000   9.038862e-04  9.862632e-07
    541    530   2   0.50000     0.1150000   -0.1150000   2.431434e-04  1.541678e-07
    541    549   2   0.50000     0.1150000   -0.1700000   1.874504e-04  6.479276e-08
    528    542   2   0.50000    -0.1150000    0.1150000   2.431434e-04  1.541678e-07
    549    531   2   0.50000    -0.1700000   -0.1150000   9.038862e-04  9.862632e-07
    549    542   2   0.50000    -0.1700000    0.1150000   1.874504e-04  6.479276e-08
    528    548   2   0.50000    -0.1150000    0.0850000   1.172438e-03  2.346713e-06
    530    548   2   0.50000    -0.1150000    0.0850000   1.172438e-03  2.346713e-06
    529    543   2   0.50000     0.0850000    0.1150000   2.431434e-04  1.541678e-07
    542    526   2   0.50000     0.1150000    0.0850000   2.431434e-04  1.541678e-07
    542    543   2   0.50000     0.1150000    0.1150000   5.042375e-05  1.012808e-08
    524    545   2   0.50000     0.0850000    0.1150000   2.431434e-04  1.541678e-07
    544    521   2   0.50000     0.1150000   -0.1150000   2.431434e-04  1.541678e-07
    544    545   2   0.50000     0.1150000    0.1150000   5.042375e-05  1.012808e-08
    552    548   2   0.50000    -0.1150000    0.0850000   1.172438e-03  2.346713e-06
    552    569   2   0.50000    -0.1150000    0.1150000   2.431434e-04  1.541678e-07
    568    548   2   0.50000     0.1150000    0.0850000   2.431434e-04  1.541678e-07
    568    569   2   0.50000     0.1150000    0.1150000   5.042375e-05  1.012808e-08
    547    551   2   0.50000    -0.1150000   -0.1150000   1.172438e-03  2.346713e-06
    547    553   2   0.50000    -0.1150000    0.7000000   1.692561e-03  3.993218e-06
    568    551   2   0.50000     0.1150000   -0.1150000   2.431434e-04  1.541678e-07
    568    553   2   0.50000     0.1150000    0.7000000   3.510079e-04  2.623353e-07
    546    549   2   0.50000    -0.1150000   -0.1700000   9.038862e-04  9.862632e-07
    546    550   2   0.50000    -0.1150000   -0.1150000   1.172438e-03  2.346713e-06
    569    549   2   0.50000     0.1150000   -0.1700000   1.874504e-04  6.479276e-08
    569    550   2   0.50000     0.1150000   -0.1150000   2.431434e-04  1.541678e-07
    547    529   2   0.50000    -0.1150000    0.0850000   1.172438e-03  2.346713e-06
    550    529   2   0.50000    -0.1150000    0.0850000   1.172438e-03  2.346713e-06
    547    570   2   0.50000    -0.1150000    0.1150000   2.431434e-04  1.541678e-07
    549    551   2   0.50000    -0.1700000   -0.1150000   9.038862e-04  9.862632e-07
    549    570   2   0.50000    -0.1700000    0.1150000   1.874504e-04  6.479276e-08
    548    571   2   0.50000     0.0850000    0.1150000   2.431434e-04  1.541678e-07
    570    552   2   0.50000     0.1150000   -0.1150000   2.431434e-04  1.541678e-07
    570    571   2   0.50000     0.1150000    0.1150000   5.042375e-05  1.012808e-08
    550    553   2   0.50000    -0.1150000    0.7000000   1.692561e-03  3.993218e-06
    571    546   2   0.50000     0.1150000   -0.1150000   2.431434e-04  1.541678e-07
    571    553   2   0.50000     0.1150000    0.7000000   3.510079e-04  2.623353e-07
    546    554   2   0.50000    -0.1150000   -0.4700000   1.177174e-03  1.365843e-06
    546    555   2   0.50000    -0.1150000   -0.1150000   1.172438e-03  2.346713e-06
    551    554   2   0.50000    -0.1150000   -0.4700000   1.177174e-03  1.365843e-06
    551    555   2   0.50000    -0.1150000   -0.1150000   1.172438e-03  2.346713e-06
    552    556   2   0.50000    -0.1150000   -0.1150000   1.172438e-03  2.346713e-06
    552    567   2   0.50000    -0.1150000   -0.1150000   1.172438e-03  2.346713e-06
    554    556   2   0.50000    -0.4700000   -0.1150000   1.177174e-03  1.365843e-06
    554    567   2   0.50000    -0.4700000   -0.1150000   1.177174e-03  1.365843e-06
    553    557   2   0.50000     0.7000000   -0.1150000   1.692561e-03  3.993218e-06
    553    572   2   0.50000     0.7000000    0.1150000   3.510079e-04  2.623353e-07
    567    557   2   0.50000    -0.1150000   -0.1150000   1.172438e-03  2.346713e-06
    567    572   2   0.50000    -0.1150000    0.1150000   2.431434e-04  1.541678e-07
    553    566   2   0.50000     0.7000000   -0.1150000   1.692561e-03  3.993218e-06
    553    579   2   0.50000     0.7000000    0.1150000   3.510079e-04  2.623353e-07
    556    566   2   0.50000    -0.1150000   -0.1150000   1.172438e-03  2.346713e-06
    556    579   2   0.50000    -0.1150000    0.1150000   2.431434e-04  1.541678e-07
    555    558   2   0.50000    -0.1150000    0.0850000   1.172438e-03  2.346713e-06
    555    573   2   0.50000    -0.1150000    0.1150000   2.431434e-04  1.541678e-07
    572    558   2   0.50000     0.1150000    0.0850000   2.431434e-04  1.541678e-07
    572    573   2   0.50000     0.1150000    0.1150000   5.042375e-05  1.012808e-08
    556    559   2   0.50000    -0.1150000   -0.1700000   9.038862e-04  9.862632e-07
    573    559   2   0.50000     0.1150000   -0.1700000   1.874504e-04  6.479276e-08
    573    566   2   0.50000     0.1150000   -0.1150000   2.431434e-04  1.541678e-07
    557    560   2   0.50000    -0.1150000    0.0850000   1.172438e-03  2.346713e-06
    566    560   2   0.50000    -0.1150000    0.0850000   1.172438e-03  2.346713e-06
    557    578   2   0.50000    -0.1150000    0.1150000   2.431434e-04  1.541678e-07
    559    567   2   0.50000    -0.1700000   -0.1150000   9.038862e-04  9.862632e-07
    559    578   2   0.50000    -0.1700000    0.1150000   1.874504e-04  6.479276e-08
    558    561   2   0.50000     0.0850000   -0.1150000   1.172438e-03  2.346713e-06
    558    565   2   0.50000     0.0850000   -0.1150000   1.172438e-03  2.346713e-06
    559    562   2   0.50000    -0.1700000   -0.1150000   9.038862e-04  9.862632e-07
    559    574   2   0.50000    -0.1700000    0.1150000   1.874504e-04  6.479276e-08
    565    562   2   0.50000    -0.1150000   -0.1150000   1.172438e-03  2.346713e-06
    565    574   2   0.50000    -0.1150000    0.1150000   2.431434e-04  1.541678e-07
    559    564   2   0.50000    -0.1700000   -0.1150000   9.038862e-04  9.862632e-07
    559    577   2   0.50000    -0.1700000    0.1150000   1.874504e-04  6.479276e-08
    561    564   2   0.50000    -0.1150000   -0.1150000   1.172438e-03  2.346713e-06
    561    577   2   0.50000    -0.1150000    0.1150000   2.431434e-04  1.541678e-07
    560    563   2   0.50000     0.0850000    0.0850000   1.172438e-03  2.346713e-06
    560    575   2   0.50000     0.0850000    0.1150000   2.431434e-04  1.541678e-07
    574    563   2   0.50000     0.1150000    0.0850000   2.431434e-04  1.541678e-07
    574    575   2   0.50000     0.1150000    0.1150000   5.042375e-05  1.012808e-08
    561    583   2   0.50000    -0.1150000   -0.1700000   9.038862e-04  9.862632e-07
    575    564   2   0.50000     0.1150000   -0.1150000   2.431434e-04  1.541678e-07
    575    583   2   0.50000     0.1150000   -0.1700000   1.874504e-04  6.479276e-08
    562    576   2   0.50000    -0.1150000    0.1150000   2.431434e-04  1.541678e-07
    583    565   2   0.50000    -0.1700000   -0.1150000   9.038862e-04  9.862632e-07
    583    576   2   0.50000    -0.1700000    0.1150000   1.874504e-04  6.479276e-08
    562    582   2   0.50000    -0.1150000    0.0850000   1.172438e-03  2.346713e-06
    564    582   2   0.50000    -0.1150000    0.0850000   1.172438e-03  2.346713e-06
    563    577   2   0.50000     0.0850000    0.1150000   2.431434e-04  1.541678e-07
    576    560   2   0.50000     0.1150000    0.0850000   2.431434e-04  1.541678e-07
    576    577   2   0.50000     0.1150000    0.1150000   5.042375e-05  1.012808e-08
    558    579   2   0.50000     0.0850000    0.1150000   2.431434e-04  1.541678e-07
    578    555   2   0.50000     0.1150000   -0.1150000   2.431434e-04  1.541678e-07
    578    579   2   0.50000     0.1150000    0.1150000   5.042375e-05  1.012808e-08
    586    582   2   0.50000    -0.1150000    0.0850000   1.172438e-03  2.346713e-06
    586    603   2   0.50000    -0.1150000    0.1150000   2.431434e-04  1.541678e-07
    602    582   2   0.50000     0.1150000    0.0850000   2.431434e-04  1.541678e-07
    602    603   2   0.50000     0.1150000    0.1150000   5.042375e-05  1.012808e-08
    581    585   2   0.50000    -0.1150000   -0.1150000   1.172438e-03  2.346713e-06
    581    587   2   0.50000    -0.1150000    0.7000000   1.692561e-03  3.993218e-06
    602    585   2   0.50000     0.1150000   -0.1150000   2.431434e-04  1.541678e-07
    602    587   2   0.50000     0.1150000    0.7000000   3.510079e-04  2.623353e-07
    580    583   2   0.50000    -0.1150000   -0.1700000   9.038862e-04  9.862632e-07
    580    584   2   0.50000    -0.1150000   -0.1150000   1.172438e-03  2.346713e-06
    603    583   2   0.50000     0.1150000   -0.1700000   1.874504e-04  6.479276e-08
    603    584   2   0.50000     0.1150000   -0.1150000   2.431434e-04  1.541678e-07
    581    563   2   0.50000    -0.1150000    0.0850000   1.172438e-03  2.346713e-06
    584    563   2   0.50000    -0.1150000    0.0850000   1.172438e-03  2.346713e-06
    581    604   2   0.50000    -0.1150000    0.1150000   2.431434e-04  1.541678e-07
    583    585   2   0.50000    -0.1700000   -0.1150000   9.038862e-04  9.862632e-07
    583    604   2   0.50000    -0.1700000    0.1150000   1.874504e-04  6.479276e-08
    582    605   2   0.50000     0.0850000    0.1150000   2.431434e-04  1.541678e-07
    604    586   2   0.50000     0.1150000   -0.1150000   2.431434e-04  1.541678e-07
    604    605   2   0.50000     0.1150000    0.1150000   5.042375e-05  1.012808e-08
    584    587   2   0.50000    -0.1150000    0.7000000   1.692561e-03  3.993218e-06
    605    580   2   0.50000     0.1150000   -0.1150000   2.431434e-04  1.541678e-07
    605    587   2   0.50000     0.1150000    0.7000000   3.510079e-04  2.623353e-07
    580    588   2   0.50000    -0.1150000   -0.4700000   1.177174e-03  1.365843e-06
    580    589   2   0.50000    -0.1150000   -0.1150000   1.172438e-03  2.346713e-06
    585    588   2   0.50000    -0.1150000   -0.4700000   1.177174e-03  1.365843e-06
    585    589   2   0.50000    -0.1150000   -0.1150000   1.172438e-03  2.346713e-06
    586    590   2   0.50000    -0.1150000   -0.1150000   1.172438e-03  2.346713e-06
    586    601   2   0.50000    -0.1150000   -0.1150000   1.172438e-03  2.346713e-06
    588    590   2   0.50000    -0.4700000   -0.1150000   1.177174e-03  1.365843e-06
    588    601   2   0.50000    -0.4700000   -0.1150000   1.177174e-03  1.365843e-06
    587    591   2   0.50000     0.7000000   -0.1150000   1.692561e-03  3.993218e-06
    587    606   2   0.50000     0.7000000    0.1150000   3.510079e-04  2.623353e-07
    601    591   2   0.50000    -0.1150000   -0.1150000   1.172438e-03  2.346713e-06
    601    606   2   0.50000    -0.1150000    0.1150000   2.431434e-04  1.541678e-07
    587    600   2   0.50000     0.7000000   -0.1150000   1.692561e-03  3.993218e-06
    587    613   2   0.50000     0.7000000    0.1150000   3.510079e-04  2.623353e-07
    590    600   2   0.50000    -0.1150000   -0.1150000   1.172438e-03  2.346713e-06
    590    613   2   0.50000    -0.1150000    0.1150000   2.431434e-04  1.541678e-07
    589    592   2   0.50000    -0.1150000    0.0850000   1.172438e-03  2.346713e-06
    589    607   2   0.50000    -0.1150000    0.1150000   2.431434e-04  1.541678e-07
    606    592   2   0.50000     0.1150000    0.0850000   2.431434e-04  1.541678e-07
    606    607   2   0.50000     0.1150000    0.1150000   5.042375e-05  1.012808e-08
    590    593   2   0.50000    -0.1150000   -0.1700000   9.038862e-04  9.862632e-07
    607    593   2   0.50000     0.1150000   -0.1700000   1.874504e-04  6.479276e-08
    607    600   2   0.50000     0.1150000   -0.1150000   2.431434e-04  1.541678e-07
    591    594   2   0.50000    -0.1150000    0.0850000   1.172438e-03  2.346713e-06
    600    594   2   0.50000    -0.1150000    0.0850000   1.172438e-03  2.346713e-06
    591    612   2   0.50000    -0.1150000    0.1150000   2.431434e-04  1.541678e-07
    593    601   2   0.50000    -0.1700000   -0.1150000   9.038862e-04  9.862632e-07
    593    612   2   0.50000    -0.1700000    0.1150000   1.874504e-04  6.479276e-08
    592    595   2   0.50000     0.0850000   -0.1150000   1.172438e-03  2.346713e-06
    592    599   2   0.50000     0.0850000   -0.1150000   1.172438e-03  2.346713e-06
    593    596   2   0.50000    -0.1700000   -0.1150000   9.038862e-04  9.862632e-07
    593    608   2   0.50000    -0.1700000    0.1150000   1.874504e-04  6.479276e-08
    599    596   2   0.50000    -0.1150000   -0.1150000   1.172438e-03  2.346713e-06
    599    608   2   0.50000    -0.1150000    0.1150000   2.431434e-04  1.541678e-07
    593    598   2   0.50000    -0.1700000   -0.1150000   9.038862e-04  9.862632e-07
    593    611   2   0.50000    -0.1700000    0.1150000   1.874504e-04  6.479276e-08
    595    598   2   0.50000    -0.1150000   -0.1150000   1.172438e-03  2.346713e-06
    595    611   2   0.50000    -0.1150000    0.1150000   2.431434e-04  1.541678e-07
    594    597   2   0.50000     0.0850000    0.0850000   1.172438e-03  2.346713e-06
    594    609   2   0.50000     0.0850000    0.1150000   2.431434e-04  1.541678e-07
    608    597   2   0.50000     0.1150000    0.0850000   2.431434e-04  1.541678e-07
    608    609   2   0.50000     0.1150000    0.1150000   5.042375e-05  1.012808e-08
    595    617   2   0.50000    -0.1150000   -0.1700000   9.038862e-04  9.862632e-07
    609    598   2   0.50000     0.1150000   -0.1150000   2.431434e-04  1.541678e-07
    609    617   2   0.50000     0.1150000   -0.1700000   1.874504e-04  6.479276e-08
    596    610   2   0.50000    -0.1150000    0.1150000   2.431434e-04  1.541678e-07
    617    599   2   0.50000    -0.1700000   -0.1150000   9.038862e-04  9.862632e-07
    617    610   2   0.50000    -0.1700000    0.1150000   1.874504e-04  6.479276e-08
    596    616   2   0.50000    -0.1150000    0.0850000   1.172438e-03  2.346713e-06
    598    616   2   0.50000    -0.1150000    0.0850000   1.172438e-03  2.346713e-06
    597    611   2   0.50000     0.0850000    0.1150000   2.431434e-04  1.541678e-07
    610    594   2   0.50000     0.1150000    0.0850000   2.431434e-04  1.541678e-07
    610    611   2   0.50000     0.1150000    0.1150000   5.042375e-05  1.012808e-08
    592    613   2   0.50000     0.0850000    0.1150000   2.431434e-04  1.541678e-07
    612    589   2   0.50000     0.1150000   -0.1150000   2.431434e-04  1.541678e-07
    612    613   2   0.50000     0.1150000    0.1150000   5.042375e-05  1.012808e-08
    620    616   2   0.50000    -0.1150000    0.0850000   1.172438e-03  2.346713e-06
    620    637   2   0.50000    -0.1150000    0.1150000   2.431434e-04  1.541678e-07
    636    616   2   0.50000     0.1150000    0.0850000   2.431434e-04  1.541678e-07
    636    637   2   0.50000     0.1150000    0.1150000   5.042375e-05  1.012808e-08
    615    619   2   0.50000    -0.1150000   -0.1150000   1.172438e-03  2.346713e-06
    615    621   2   0.50000    -0.1150000    0.7000000   1.692561e-03  3.993218e-06
    636    619   2   0.50000     0.1150000   -0.1150000   2.431434e-04  1.541678e-07
    636    621   2   0.50000     0.1150000    0.7000000   3.510079e-04  2.623353e-07
    614    617   2   0.50000    -0.1150000   -0.1700000   9.038862e-04  9.862632e-07
    614    618   2   0.50000    -0.1150000   -0.1150000   1.172438e-03  2.346713e-06
    637    617   2   0.50000     0.1150000   -0.1700000   1.874504e-04  6.479276e-08
    637    618   2   0.50000     0.1150000   -0.1150000   2.431434e-04  1.541678e-07
    615    597   2   0.50000    -0.1150000    0.0850000   1.172438e-03  2.346713e-06
    618    597   2   0.50000    -0.1150000    0.0850000   1.172438e-03  2.346713e-06
    615    638   2   0.50000    -0.1150000    0.1150000   2.431434e-04  1.541678e-07
    617    619   2   0.50000    -0.1700000   -0.1150000   9.038862e-04  9.862632e-07
    617    638   2   0.50000    -0.1700000    0.1150000   1.874504e-04  6.479276e-08
    616    639   2   0.50000     0.0850000    0.1150000   2.431434e-04  1.541678e-07
    638    620   2   0.50000     0.1150000   -0.1150000   2.431434e-04  1.541678e-07
    638    639   2   0.50000     0.1150000    0.1150000   5.042375e-05  1.012808e-08
    618    621   2   0.50000    -0.1150000    0.7000000   1.692561e-03  3.993218e-06
    639    614   2   0.50000     0.1150000   -0.1150000   2.431434e-04  1.541678e-07
    639    621   2   0.50000     0.1150000    0.7000000   3.510079e-04  2.623353e-07
    614    622   2   0.50000    -0.1150000   -0.4700000   1.177174e-03  1.365843e-06
    614    623   2   0.50000    -0.1150000   -0.1150000   1.172438e-03  2.346713e-06
    619    622   2   0.50000    -0.1150000   -0.4700000   1.177174e-03  1.365843e-06
    619    623   2   0.50000    -0.1150000   -0.1150000   1.172438e-03  2.346713e-06
    620    624   2   0.50000    -0.1150000   -0.1150000   1.172438e-03  2.346713e-06
    620    635   2   0.50000    -0.1150000   -0.1150000   1.172438e-03  2.346713e-06
    622    624   2   0.50000    -0.4700000   -0.1150000   1.177174e-03  1.365843e-06
    622    635   2   0.50000    -0.4700000   -0.1150000   1.177174e-03  1.365843e-06
    621    625   2   0.50000     0.7000000   -0.1150000   1.692561e-03  3.993218e-06
    621    640   2   0.50000     0.7000000    0.1150000   3.510079e-04  2.623353e-07
    635    625   2   0.50000    -0.1150000   -0.1150000   1.172438e-03  2.346713e-06
    635    640   2   0.50000    -0.1150000    0.1150000   2.431434e-04  1.541678e-07
    621    634   2   0.50000     0.7000000   -0.1150000   1.692561e-03  3.993218e-06
    621    647   2   0.50000     0.7000000    0.1150000   3.510079e-04  2.623353e-07
    624    634   2   0.50000    -0.1150000   -0.1150000   1.172438e-03  2.346713e-06
    624    647   2   0.50000    -0.1150000    0.1150000   2.431434e-04  1.541678e-07
    623    626   2   0.50000    -0.1150000    0.0850000   1.172438e-03  2.346713e-06
    623    641   2   0.50000    -0.1150000    0.1150000   2.431434e-04  1.541678e-07
    640    626   2   0.50000     0.1150000    0.0850000   2.431434e-04  1.541678e-07
    640    641   2   0.50000     0.1150000    0.1150000   5.042375e-05  1.012808e-08
    624    627   2   0.50000    -0.1150000   -0.1700000   9.038862e-04  9.862632e-07
    641    627   2   0.50000     0.1150000   -0.1700000   1.874504e-04  6.479276e-08
    641    634   2   0.50000     0.1150000   -0.1150000   2.431434e-04  1.541678e-07
    625    628   2   0.50000    -0.1150000    0.0850000   1.172438e-03  2.346713e-06
    634    628   2   0.50000    -0.1150000    0.0850000   1.172438e-03  2.346713e-06
    625    646   2   0.50000    -0.1150000    0.1150000   2.431434e-04  1.541678e-07
    627    635   2   0.50000    -0.1700000   -0.1150000   9.038862e-04  9.862632e-07
    627    646   2   0.50000    -0.1700000    0.1150000   1.874504e-04  6.479276e-08
    626    629   2   0.50000     0.0850000   -0.1150000   1.172438e-03  2.346713e-06
    626    633   2   0.50000     0.0850000   -0.1150000   1.172438e-03  2.346713e-06
    627    630   2   0.50000    -0.1700000   -0.1150000   9.038862e-04  9.862632e-07
    627    642   2   0.50000    -0.1700000    0.1150000   1.874504e-04  6.479276e-08
    633    630   2   0.50000    -0.1150000   -0.1150000   1.172438e-03  2.346713e-06
    633    642   2   0.50000    -0.1150000    0.1150000   2.431434e-04  1.541678e-07
    627    632   2   0.50000    -0.1700000   -0.1150000   9.038862e-04  9.862632e-07
    627    645   2   0.50000    -0.1700000    0.1150000   1.874504e-04  6.479276e-08
    629    632   2   0.50000    -0.1150000   -0.1150000   1.172438e-03  2.346713e-06
    629    645   2   0.50000    -0.1150000    0.1150000   2.431434e-04  1.541678e-07
    628    631   2   0.50000     0.0850000    0.0850000   1.172438e-03  2.346713e-06
    628    643   2   0.50000     0.0850000    0.1150000   2.431434e-04  1.541678e-07
    642    631   2   0.50000     0.1150000    0.0850000   2.431434e-04  1.541678e-07
    642    643   2   0.50000     0.1150000    0.1150000   5.042375e-05  1.012808e-08
    629    651   2   0.50000    -0.1150000   -0.1700000   9.038862e-04  9.862632e-07
    643    632   2   0.50000     0.1150000   -0.1150000   2.431434e-04  1.541678e-07
    643    651   2   0.50000     0.1150000   -0.1700000   1.874504e-04  6.479276e-08
    630    644   2   0.50000    -0.1150000    0.1150000   2.431434e-04  1.541678e-07
    651    633   2   0.50000    -0.1700000   -0.1150000   9.038862e-04  9.862632e-07
    651    644   2   0.50000    -0.1700000    0.1150000   1.874504e-04  6.479276e-08
    630    650   2   0.50000    -0.1150000    0.0850000   1.172438e-03  2.346713e-06
    632    650   2   0.50000    -0.1150000    0.0850000   1.172438e-03  2.346713e-06
    631    645   2   0.50000     0.0850000    0.1150000   2.431434e-04  1.541678e-07
    644    628   2   0.50000     0.1150000    0.0850000   2.431434e-04  1.541678e-07
    644    645   2   0.50000     0.1150000    0.1150000   5.042375e-05  1.012808e-08
    626    647   2   0.50000     0.0850000    0.1150000   2.431434e-04  1.541678e-07
    646    623   2   0.50000     0.1150000   -0.1150000   2.431434e-04  1.541678e-07
    646    647   2   0.50000     0.1150000    0.1150000   5.042375e-05  1.012808e-08
    654    650   2   0.50000    -0.1150000    0.0850000   1.172438e-03  2.346713e-06
    654    671   2   0.50000    -0.1150000    0.1150000   2.431434e-04  1.541678e-07
    670    650   2   0.50000     0.1150000    0.0850000   2.431434e-04  1.541678e-07
    670    671   2   0.50000     0.1150000    0.1150000   5.042375e-05  1.012808e-08
    649    653   2   0.50000    -0.1150000   -0.1150000   1.172438e-03  2.346713e-06
    649    655   2   0.50000    -0.1150000    0.7000000   1.692561e-03  3.993218e-06
    670    653   2   0.50000     0.1150000   -0.1150000   2.431434e-04  1.541678e-07
    670    655   2   0.50000     0.1150000    0.7000000   3.510079e-04  2.623353e-07
    648    651   2   0.50000    -0.1150000   -0.1700000   9.038862e-04  9.862632e-07
    648    652   2   0.50000    -0.1150000   -0.1150000   1.172438e-03  2.346713e-06
    671    651   2   0.50000     0.1150000   -0.1700000   1.874504e-04  6.479276e-08
    671    652   2   0.50000     0.1150000   -0.1150000   2.431434e-04  1.541678e-07
    649    631   2   0.50000    -0.1150000    0.0850000   1.172438e-03  2.346713e-06
    652    631   2   0.50000    -0.1150000    0.0850000   1.172438e-03  2.346713e-06
    649    672   2   0.50000    -0.1150000    0.1150000   2.431434e-04  1.541678e-07
    651    653   2   0.50000    -0.1700000   -0.1150000   9.038862e-04  9.862632e-07
    651    672   2   0.50000    -0.1700000    0.1150000   1.874504e-04  6.479276e-08
    650    673   2   0.50000     0.0850000    0.1150000   2.431434e-04  1.541678e-07
    672    654   2   0.50000     0.1150000   -0.1150000   2.431434e-04  1.541678e-07
    672    673   2   0.50000     0.1150000    0.1150000   5.042375e-05  1.012808e-08
    652    655   2   0.50000    -0.1150000    0.7000000   1.692561e-03  3.993218e-06
    673    648   2   0.50000     0.1150000   -0.1150000   2.431434e-04  1.541678e-07
    673    655   2   0.50000     0.1150000    0.7000000   3.510079e-04  2.623353e-07
    648    656   2   0.50000    -0.1150000   -0.4700000   1.177174e-03  1.365843e-06
    648    657   2   0.50000    -0.1150000   -0.1150000   1.172438e-03  2.346713e-06
    653    656   2   0.50000    -0.1150000   -0.4700000   1.177174e-03  1.365843e-06
    653    657   2   0.50000    -0.1150000   -0.1150000   1.172438e-03  2.346713e-06
    654    658   2   0.50000    -0.1150000   -0.1150000   1.172438e-03  2.346713e-06
    654    669   2   0.50000    -0.1150000   -0.1150000   1.172438e-03  2.346713e-06
    656    658   2   0.50000    -0.4700000   -0.1150000   1.177174e-03  1.365843e-06
    656    669   2   0.50000    -0.4700000   -0.1150000   1.177174e-03  1.365843e-06
    655    659   2   0.50000     0.7000000   -0.1150000   1.692561e-03  3.993218e-06
    655    674   2   0.50000     0.7000000    0.1150000   3.510079e-04  2.623353e-07
    669    659   2   0.50000    -0.1150000   -0.1150000   1.172438e-03  2.346713e-06
    669    674   2   0.50000    -0.1150000    0.1150000   2.431434e-04  1.541678e-07
    655    668   2   0.50000     0.7000000   -0.1150000   1.692561e-03  3.993218e-06
    655    681   2   0.50000     0.7000000    0.1150000   3.510079e-04  2.623353e-07
    658    668   2   0.50000    -0.1150000   -0.1150000   1.172438e-03  2.346713e-06
    658    681   2   0.50000    -0.1150000    0.1150000   2.431434e-04  1.541678e-07
    657    660   2   0.50000    -0.1150000    0.0850000   1.172438e-03  2.346713e-06
    657    675   2   0.50000    -0.1150000    0.1150000   2.431434e-04  1.541678e-07
    674    660   2   0.50000     0.1150000    0.0850000   2.431434e-04  1.541678e-07
    674    675   2   0.50000     0.1150000    0.1150000   5.042375e-05  1.012808e-08
    658    661   2   0.50000    -0.1150000   -0.1700000   9.038862e-04  9.862632e-07
    675    661   2   0.50000     0.1150000   -0.1700000   1.874504e-04  6.479276e-08
    675    668   2   0.50000     0.1150000   -0.1150000   2.431434e-04  1.541678e-07
    659    662   2   0.50000    -0.1150000    0.0850000   1.172438e-03  2.346713e-06
    668    662   2   0.50000    -0.1150000    0.0850000   1.172438e-03  2.346713e-06
    659    680   2   0.50000    -0.1150000    0.1150000   2.431434e-04  1.541678e-07
    661    669   2   0.50000    -0.1700000   -0.1150000   9.038862e-04  9.862632e-07
    661    680   2   0.50000    -0.1700000    0.1150000   1.874504e-04  6.479276e-08
    660    663   2   0.50000     0.0850000   -0.1150000   1.172438e-03  2.346713e-06
    660    667   2   0.50000     0.0850000   -0.1150000   1.172438e-03  2.346713e-06
    661    664   2   0.50000    -0.1700000   -0.1150000   9.038862e-04  9.862632e-07
    661    676   2   0.50000    -0.1700000    0.1150000   1.874504e-04  6.479276e-08
    667    664   2   0.50000    -0.1150000   -0.1150000   1.172438e-03  2.346713e-06
    667    676   2   0.50000    -0.1150000    0.1150000   2.431434e-04  1.541678e-07
    661    666   2   0.50000    -0.1700000   -0.1150000   9.038862e-04  9.862632e-07
    661    679   2   0.50000    -0.1700000    0.1150000   1.874504e-04  6.479276e-08
    663    666   2   0.50000    -0.1150000   -0.1150000   1.172438e-03  2.346713e-06
    663    679   2   0.50000    -0.1150000    0.1150000   2.431434e-04  1.541678e-07
    662    665   2   0.50000     0.0850000   -0.1150000   1.172438e-03  2.346713e-06
    662    677   2   0.50000     0.0850000    0.1150000   2.431434e-04  1.541678e-07
    676    665   2   0.50000     0.1150000   -0.1150000   2.431434e-04  1.541678e-07
    676    677   2   0.50000     0.1150000    0.1150000   5.042375e-05  1.012808e-08
    663    682   2   0.50000    -0.1150000    0.1150000   2.431434e-04  1.541678e-07
    677    666   2   0.50000     0.1150000   -0.1150000   2.431434e-04  1.541678e-07
    677    682   2   0.50000     0.1150000    0.1150000   5.042375e-05  1.012808e-08
    664    678   2   0.50000    -0.1150000    0.1150000   2.431434e-04  1.541678e-07
    682    667   2   0.50000     0.1150000   -0.1150000   2.431434e-04  1.541678e-07
    682    678   2   0.50000     0.1150000    0.1150000   5.042375e-05  1.012808e-08
    665    679   2   0.50000    -0.1150000    0.1150000   2.431434e-04  1.541678e-07
    678    662   2   0.50000     0.1150000    0.0850000   2.431434e-04  1.541678e-07
    678    679   2   0.50000     0.1150000    0.1150000   5.042375e-05  1.012808e-08
    660    681   2   0.50000     0.0850000    0.1150000   2.431434e-04  1.541678e-07
    680    657   2   0.50000     0.1150000   -0.1150000   2.431434e-04  1.541678e-07
    680    681   2   0.50000     0.1150000    0.1150000   5.042375e-05  1.012808e-08

[ angles ]
; ai  aj  ak
      2      1      7   1    120.0000    527.1840
      2      1     23   1    120.0000    292.8800
      7      1     23   1    120.0000    292.8800
      1      2      3   1    120.0000    527.1840
      1      2     24   1    120.0000    292.8800
      3      2     24   1    120.0000    292.8800
      2      3      4   1    120.0000    585.7600
      2      3      5   1    120.0000    527.1840
      4      3      5   1    120.0000    585.7600
      3      4     35   1    113.0000    292.8800
      3      5      6   1    120.0000    527.1840
      3      5     25   1    120.0000    292.8800
      6      5     25   1    120.0000    292.8800
      5      6      7   1    120.0000    527.1840
      5      6     26   1    120.0000    292.8800
      7      6     26   1    120.0000    292.8800
      1      7      6   1    120.0000    527.1840
      1      7      8   1    119.5260    502.0800
      6      7      8   1    119.5260    502.0800
      7      8      9   1    123.7840    627.6000
      7      8     10   1    116.0000    543.9200
      9      8     10   1    123.7840    627.6000
      8     10     11   1    119.5260    502.0800
      8     10     22   1    119.5260    502.0800
     11     10     22   1    120.0000    527.1840
     10     11     12   1    120.0000    527.1840
     10     11     27   1    120.0000    292.8800
     12     11     27   1    120.0000    292.8800
     11     12     13   1    120.0000    527.1840
     11     12     28   1    120.0000    292.8800
     13     12     28   1    120.0000    292.8800
     12     13     14   1    120.0000    585.7600
     12     13     21   1    120.0000    527.1840
     14     13     21   1    120.0000    585.7600
     13     14     15   1    114.7000    711.2800
     14     15     16   1    120.0000    585.7600
     14     15     20   1    120.0000    585.7600
     16     15     20   1    120.0000    527.1840
     15     16     17   1    120.0000    527.1840
     15     16     29   1    120.0000    292.8800
     17     16     29   1    120.0000    292.8800
     16     17     18   1    120.0000    527.1840
     16     17     30   1    120.0000    292.8800
     18     17     30   1    120.0000    292.8800
     17     18     19   1    120.0000    527.1840
     17     18     39   1    120.0000    585.7600
     19     18     39   1    120.0000    585.7600
     18     19     20   1    120.0000    527.1840
     18     19     31   1    120.0000    292.8800
     20     19     31   1    120.0000    292.8800
     15     20     19   1    120.0000    527.1840
     15     20     32   1    120.0000    292.8800
     19     20     32   1    120.0000    292.8800
     13     21     22   1    120.0000    527.1840
     13     21     33   1    120.0000    292.8800
     22     21     33   1    120.0000    292.8800
     10     22     21   1    120.0000    527.1840
     10     22     34   1    120.0000    292.8800
     21     22     34   1    120.0000    292.8800
     37     36     42   1    120.0000    527.1840
     37     36     58   1    120.0000    292.8800
     42     36     58   1    120.0000    292.8800
     36     37     38   1    120.0000    527.1840
     36     37     59   1    120.0000    292.8800
     38     37     59   1    120.0000    292.8800
     37     38     39   1    120.0000    585.7600
     37     38     40   1    120.0000    527.1840
     39     38     40   1    120.0000    585.7600
     18     39     38   1    114.7000    711.2800
     38     40     41   1    120.0000    527.1840
     38     40     60   1    120.0000    292.8800
     41     40     60   1    120.0000    292.8800
     40     41     42   1    120.0000    527.1840
     40     41     61   1    120.0000    292.8800
     42     41     61   1    120.0000    292.8800
     36     42     41   1    120.0000    527.1840
     36     42     43   1    119.5260    502.0800
     41     42     43   1    119.5260    502.0800
     42     43     44   1    123.7840    627.6000
     42     43     45   1    116.0000    543.9200
     44     43     45   1    123.7840    627.6000
     43     45     46   1    119.5260    502.0800
     43     45     57   1    119.5260    502.0800
     46     45     57   1    120.0000    527.1840
     45     46     47   1    120.0000    527.1840
     45     46     62   1    120.0000    292.8800
     47     46     62   1    120.0000    292.8800
     46     47     48   1    120.0000    527.1840
     46     47     63   1    120.0000    292.8800
     48     47     63   1    120.0000    292.8800
     47     48     49   1    120.0000    585.7600
     47     48     56   1    120.0000    527.1840
     49     48     56   1    120.0000    585.7600
     48     49     50   1    114.7000    711.2800
     49     50     51   1    120.0000    585.7600
     49     50     55   1    120.0000    585.7600
     51     50     55   1    120.0000    527.1840
     50     51     52   1    120.0000    527.1840
     50     51     64   1    120.0000    292.8800
     52     51     64   1    120.0000    292.8800
     51     52     53   1    120.0000    527.1840
     51     52     65   1    120.0000    292.8800
     53     52     65   1    120.0000    292.8800
     52     53     54   1    120.0000    527.1840
     52     53     73   1    120.0000    585.7600
     54     53     73   1    120.0000    585.7600
     53     54     55   1    120.0000    527.1840
     53     54     66   1    120.0000    292.8800
     55     54     66   1    120.0000    292.8800
     50     55     54   1    120.0000    527.1840
     50     55     67   1    120.0000    292.8800
     54     55     67   1    120.0000    292.8800
     48     56     57   1    120.0000    527.1840
     48     56     68   1    120.0000    292.8800
     57     56     68   1    120.0000    292.8800
     45     57     56   1    120.0000    527.1840
     45     57     69   1    120.0000    292.8800
     56     57     69   1    120.0000    292.8800
     71     70     76   1    120.0000    527.1840
     71     70     92   1    120.0000    292.8800
     76     70     92   1    120.0000    292.8800
     70     71     72   1    120.0000    527.1840
     70     71     93   1    120.0000    292.8800
     72     71     93   1    120.0000    292.8800
     71     72     73   1    120.0000    585.7600
     71     72     74   1    120.0000    527.1840
     73     72     74   1    120.0000    585.7600
     53     73     72   1    114.7000    711.2800
     72     74     75   1    120.0000    527.1840
     72     74     94   1    120.0000    292.8800
     75     74     94   1    120.0000    292.8800
     74     75     76   1    120.0000    527.1840
     74     75     95   1    120.0000    292.8800
     76     75     95   1    120.0000    292.8800
     70     76     75   1    120.0000    527.1840
     70     76     77   1    119.5260    502.0800
     75     76     77   1    119.5260    502.0800
     76     77     78   1    123.7840    627.6000
     76     77     79   1    116.0000    543.9200
     78     77     79   1    123.7840    627.6000
     77     79     80   1    119.5260    502.0800
     77     79     91   1    119.5260    502.0800
     80     79     91   1    120.0000    527.1840
     79     80     81   1    120.0000    527.1840
     79     80     96   1    120.0000    292.8800
     81     80     96   1    120.0000    292.8800
     80     81     82   1    120.0000    527.1840
     80     81     97   1    120.0000    292.8800
     82     81     97   1    120.0000    292.8800
     81     82     83   1    120.0000    585.7600
     81     82     90   1    120.0000    527.1840
     83     82     90   1    120.0000    585.7600
     82     83     84   1    114.7000    711.2800
     83     84     85   1    120.0000    585.7600
     83     84     89   1    120.0000    585.7600
     85     84     89   1    120.0000    527.1840
     84     85     86   1    120.0000    527.1840
     84     85     98   1    120.0000    292.8800
     86     85     98   1    120.0000    292.8800
     85     86     87   1    120.0000    527.1840
     85     86     99   1    120.0000    292.8800
     87     86     99   1    120.0000    292.8800
     86     87     88   1    120.0000    527.1840
     86     87    107   1    120.0000    585.7600
     88     87    107   1    120.0000    585.7600
     87     88     89   1    120.0000    527.1840
     87     88    100   1    120.0000    292.8800
     89     88    100   1    120.0000    292.8800
     84     89     88   1    120.0000    527.1840
     84     89    101   1    120.0000    292.8800
     88     89    101   1    120.0000    292.8800
     82     90     91   1    120.0000    527.1840
     82     90    102   1    120.0000    292.8800
     91     90    102   1    120.0000    292.8800
     79     91     90   1    120.0000    527.1840
     79     91    103   1    120.0000    292.8800
     90     91    103   1    120.0000    292.8800
    105    104    110   1    120.0000    527.1840
    105    104    126   1    120.0000    292.8800
    110    104    126   1    120.0000    292.8800
    104    105    106   1    120.0000    527.1840
    104    105    127   1    120.0000    292.8800
    106    105    127   1    120.0000    292.8800
    105    106    107   1    120.0000    585.7600
    105    106    108   1    120.0000    527.1840
    107    106    108   1    120.0000    585.7600
     87    107    106   1    114.7000    711.2800
    106    108    109   1    120.0000    527.1840
    106    108    128   1    120.0000    292.8800
    109    108    128   1    120.0000    292.8800
    108    109    110   1    120.0000    527.1840
    108    109    129   1    120.0000    292.8800
    110    109    129   1    120.0000    292.8800
    104    110    109   1    120.0000    527.1840
    104    110    111   1    119.5260    502.0800
    109    110    111   1    119.5260    502.0800
    110    111    112   1    123.7840    627.6000
    110    111    113   1    116.0000    543.9200
    112    111    113   1    123.7840    627.6000
    111    113    114   1    119.5260    502.0800
    111    113    125   1    119.5260    502.0800
    114    113    125   1    120.0000    527.1840
    113    114    115   1    120.0000    527.1840
    113    114    130   1    120.0000    292.8800
    115    114    130   1    120.0000    292.8800
    114    115    116   1    120.0000    527.1840
    114    115    131   1    120.0000    292.8800
    116    115    131   1    120.0000    292.8800
    115    116    117   1    120.0000    585.7600
    115    116    124   1    120.0000    527.1840
    117    116    124   1    120.0000    585.7600
    116    117    118   1    114.7000    711.2800
    117    118    119   1    120.0000    585.7600
    117    118    123   1    120.0000    585.7600
    119    118    123   1    120.0000    527.1840
    118    119    120   1    120.0000    527.1840
    118    119    132   1    120.0000    292.8800
    120    119    132   1    120.0000    292.8800
    119    120    121   1    120.0000    527.1840
    119    120    133   1    120.0000    292.8800
    121    120    133   1    120.0000    292.8800
    120    121    122   1    120.0000    527.1840
    120    121    141   1    120.0000    585.7600
    122    121    141   1    120.0000    585.7600
    121    122    123   1    120.0000    527.1840
    121    122    134   1    120.0000    292.8800
    123    122    134   1    120.0000    292.8800
    118    123    122   1    120.0000    527.1840
    118    123    135   1    120.0000    292.8800
    122    123    135   1    120.0000    292.8800
    116    124    125   1    120.0000    527.1840
    116    124    136   1    120.0000    292.8800
    125    124    136   1    120.0000    292.8800
    113    125    124   1    120.0000    527.1840
    113    125    137   1    120.0000    292.8800
    124    125    137   1    120.0000    292.8800
    139    138    144   1    120.0000    527.1840
    139    138    160   1    120.0000    292.8800
    144    138    160   1    120.0000    292.8800
    138    139    140   1    120.0000    527.1840
    138    139    161   1    120.0000    292.8800
    140    139    161   1    120.0000    292.8800
    139    140    141   1    120.0000    585.7600
    139    140    142   1    120.0000    527.1840
    141    140    142   1    120.0000    585.7600
    121    141    140   1    114.7000    711.2800
    140    142    143   1    120.0000    527.1840
    140    142    162   1    120.0000    292.8800
    143    142    162   1    120.0000    292.8800
    142    143    144   1    120.0000    527.1840
    142    143    163   1    120.0000    292.8800
    144    143    163   1    120.0000    292.8800
    138    144    143   1    120.0000    527.1840
    138    144    145   1    119.5260    502.0800
    143    144    145   1    119.5260    502.0800
    144    145    146   1    123.7840    627.6000
    144    145    147   1    116.0000    543.9200
    146    145    147   1    123.7840    627.6000
    145    147    148   1    119.5260    502.0800
    145    147    159   1    119.5260    502.0800
    148    147    159   1    120.0000    527.1840
    147    148    149   1    120.0000    527.1840
    147    148    164   1    120.0000    292.8800
    149    148    164   1    120.0000    292.8800
    148    149    150   1    120.0000    527.1840
    148    149    165   1    120.0000    292.8800
    150    149    165   1    120.0000    292.8800
    149    150    151   1    120.0000    585.7600
    149    150    158   1    120.0000    527.1840
    151    150    158   1    120.0000    585.7600
    150    151    152   1    114.7000    711.2800
    151    152    153   1    120.0000    585.7600
    151    152    157   1    120.0000    585.7600
    153    152    157   1    120.0000    527.1840
    152    153    154   1    120.0000    527.1840
    152    153    166   1    120.0000    292.8800
    154    153    166   1    120.0000    292.8800
    153    154    155   1    120.0000    527.1840
    153    154    167   1    120.0000    292.8800
    155    154    167   1    120.0000    292.8800
    154    155    156   1    120.0000    527.1840
    154    155    175   1    120.0000    585.7600
    156    155    175   1    120.0000    585.7600
    155    156    157   1    120.0000    527.1840
    155    156    168   1    120.0000    292.8800
    157    156    168   1    120.0000    292.8800
    152    157    156   1    120.0000    527.1840
    152    157    169   1    120.0000    292.8800
    156    157    169   1    120.0000    292.8800
    150    158    159   1    120.0000    527.1840
    150    158    170   1    120.0000    292.8800
    159    158    170   1    120.0000    292.8800
    147    159    158   1    120.0000    527.1840
    147    159    171   1    120.0000    292.8800
    158    159    171   1    120.0000    292.8800
    173    172    178   1    120.0000    527.1840
    173    172    194   1    120.0000    292.8800
    178    172    194   1    120.0000    292.8800
    172    173    174   1    120.0000    527.1840
    172    173    195   1    120.0000    292.8800
    174    173    195   1    120.0000    292.8800
    173    174    175   1    120.0000    585.7600
    173    174    176   1    120.0000    527.1840
    175    174    176   1    120.0000    585.7600
    155    175    174   1    114.7000    711.2800
    174    176    177   1    120.0000    527.1840
    174    176    196   1    120.0000    292.8800
    177    176    196   1    120.0000    292.8800
    176    177    178   1    120.0000    527.1840
    176    177    197   1    120.0000    292.8800
    178    177    197   1    120.0000    292.8800
    172    178    177   1    120.0000    527.1840
    172    178    179   1    119.5260    502.0800
    177    178    179   1    119.5260    502.0800
    178    179    180   1    123.7840    627.6000
    178    179    181   1    116.0000    543.9200
    180    179    181   1    123.7840    627.6000
    179    181    182   1    119.5260    502.0800
    179    181    193   1    119.5260    502.0800
    182    181    193   1    120.0000    527.1840
    181    182    183   1    120.0000    527.1840
    181    182    198   1    120.0000    292.8800
    183    182    198   1    120.0000    292.8800
    182    183    184   1    120.0000    527.1840
    182    183    199   1    120.0000    292.8800
    184    183    199   1    120.0000    292.8800
    183    184    185   1    120.0000    585.7600
    183    184    192   1    120.0000    527.1840
    185    184    192   1    120.0000    585.7600
    184    185    186   1    114.7000    711.2800
    185    186    187   1    120.0000    585.7600
    185    186    191   1    120.0000    585.7600
    187    186    191   1    120.0000    527.1840
    186    187    188   1    120.0000    527.1840
    186    187    200   1    120.0000    292.8800
    188    187    200   1    120.0000    292.8800
    187    188    189   1    120.0000    527.1840
    187    188    201   1    120.0000    292.8800
    189    188    201   1    120.0000    292.8800
    188    189    190   1    120.0000    527.1840
    188    189    209   1    120.0000    585.7600
    190    189    209   1    120.0000    585.7600
    189    190    191   1    120.0000    527.1840
    189    190    202   1    120.0000    292.8800
    191    190    202   1    120.0000    292.8800
    186    191    190   1    120.0000    527.1840
    186    191    203   1    120.0000    292.8800
    190    191    203   1    120.0000    292.8800
    184    192    193   1    120.0000    527.1840
    184    192    204   1    120.0000    292.8800
    193    192    204   1    120.0000    292.8800
    181    193    192   1    120.0000    527.1840
    181    193    205   1    120.0000    292.8800
    192    193    205   1    120.0000    292.8800
    207    206    212   1    120.0000    527.1840
    207    206    228   1    120.0000    292.8800
    212    206    228   1    120.0000    292.8800
    206    207    208   1    120.0000    527.1840
    206    207    229   1    120.0000    292.8800
    208    207    229   1    120.0000    292.8800
    207    208    209   1    120.0000    585.7600
    207    208    210   1    120.0000    527.1840
    209    208    210   1    120.0000    585.7600
    189    209    208   1    114.7000    711.2800
    208    210    211   1    120.0000    527.1840
    208    210    230   1    120.0000    292.8800
    211    210    230   1    120.0000    292.8800
    210    211    212   1    120.0000    527.1840
    210    211    231   1    120.0000    292.8800
    212    211    231   1    120.0000    292.8800
    206    212    211   1    120.0000    527.1840
    206    212    213   1    119.5260    502.0800
    211    212    213   1    119.5260    502.0800
    212    213    214   1    123.7840    627.6000
    212    213    215   1    116.0000    543.9200
    214    213    215   1    123.7840    627.6000
    213    215    216   1    119.5260    502.0800
    213    215    227   1    119.5260    502.0800
    216    215    227   1    120.0000    527.1840
    215    216    217   1    120.0000    527.1840
    215    216    232   1    120.0000    292.8800
    217    216    232   1    120.0000    292.8800
    216    217    218   1    120.0000    527.1840
    216    217    233   1    120.0000    292.8800
    218    217    233   1    120.0000    292.8800
    217    218    219   1    120.0000    585.7600
    217    218    226   1    120.0000    527.1840
    219    218    226   1    120.0000    585.7600
    218    219    220   1    114.7000    711.2800
    219    220    221   1    120.0000    585.7600
    219    220    225   1    120.0000    585.7600
    221    220    225   1    120.0000    527.1840
    220    221    222   1    120.0000    527.1840
    220    221    234   1    120.0000    292.8800
    222    221    234   1    120.0000    292.8800
    221    222    223   1    120.0000    527.1840
    221    222    235   1    120.0000    292.8800
    223    222    235   1    120.0000    292.8800
    222    223    224   1    120.0000    527.1840
    222    223    243   1    120.0000    585.7600
    224    223    243   1    120.0000    585.7600
    223    224    225   1    120.0000    527.1840
    223    224    236   1    120.0000    292.8800
    225    224    236   1    120.0000    292.8800
    220    225    224   1    120.0000    527.1840
    220    225    237   1    120.0000    292.8800
    224    225    237   1    120.0000    292.8800
    218    226    227   1    120.0000    527.1840
    218    226    238   1    120.0000    292.8800
    227    226    238   1    120.0000    292.8800
    215    227    226   1    120.0000    527.1840
    215    227    239   1    120.0000    292.8800
    226    227    239   1    120.0000    292.8800
    241    240    246   1    120.0000    527.1840
    241    240    262   1    120.0000    292.8800
    246    240    262   1    120.0000    292.8800
    240    241    242   1    120.0000    527.1840
    240    241    263   1    120.0000    292.8800
    242    241    263   1    120.0000    292.8800
    241    242    243   1    120.0000    585.7600
    241    242    244   1    120.0000    527.1840
    243    242    244   1    120.0000    585.7600
    223    243    242   1    114.7000    711.2800
    242    244    245   1    120.0000    527.1840
    242    244    264   1    120.0000    292.8800
    245    244    264   1    120.0000    292.8800
    244    245    246   1    120.0000    527.1840
    244    245    265   1    120.0000    292.8800
    246    245    265   1    120.0000    292.8800
    240    246    245   1    120.0000    527.1840
    240    246    247   1    119.5260    502.0800
    245    246    247   1    119.5260    502.0800
    246    247    248   1    123.7840    627.6000
    246    247    249   1    116.0000    543.9200
    248    247    249   1    123.7840    627.6000
    247    249    250   1    119.5260    502.0800
    247    249    261   1    119.5260    502.0800
    250    249    261   1    120.0000    527.1840
    249    250    251   1    120.0000    527.1840
    249    250    266   1    120.0000    292.8800
    251    250    266   1    120.0000    292.8800
    250    251    252   1    120.0000    527.1840
    250    251    267   1    120.0000    292.8800
    252    251    267   1    120.0000    292.8800
    251    252    253   1    120.0000    585.7600
    251    252    260   1    120.0000    527.1840
    253    252    260   1    120.0000    585.7600
    252    253    254   1    114.7000    711.2800
    253    254    255   1    120.0000    585.7600
    253    254    259   1    120.0000    585.7600
    255    254    259   1    120.0000    527.1840
    254    255    256   1    120.0000    527.1840
    254    255    268   1    120.0000    292.8800
    256    255    268   1    120.0000    292.8800
    255    256    257   1    120.0000    527.1840
    255    256    269   1    120.0000    292.8800
    257    256    269   1    120.0000    292.8800
    256    257    258   1    120.0000    527.1840
    256    257    277   1    120.0000    585.7600
    258    257    277   1    120.0000    585.7600
    257    258    259   1    120.0000    527.1840
    257    258    270   1    120.0000    292.8800
    259    258    270   1    120.0000    292.8800
    254    259    258   1    120.0000    527.1840
    254    259    271   1    120.0000    292.8800
    258    259    271   1    120.0000    292.8800
    252    260    261   1    120.0000    527.1840
    252    260    272   1    120.0000    292.8800
    261    260    272   1    120.0000    292.8800
    249    261    260   1    120.0000    527.1840
    249    261    273   1    120.0000    292.8800
    260    261    273   1    120.0000    292.8800
    275    274    280   1    120.0000    527.1840
    275    274    296   1    120.0000    292.8800
    280    274    296   1    120.0000    292.8800
    274    275    276   1    120.0000    527.1840
    274    275    297   1    120.0000    292.8800
    276    275    297   1    120.0000    292.8800
    275    276    277   1    120.0000    585.7600
    275    276    278   1    120.0000    527.1840
    277    276    278   1    120.0000    585.7600
    257    277    276   1    114.7000    711.2800
    276    278    279   1    120.0000    527.1840
    276    278    298   1    120.0000    292.8800
    279    278    298   1    120.0000    292.8800
    278    279    280   1    120.0000    527.1840
    278    279    299   1    120.0000    292.8800
    280    279    299   1    120.0000    292.8800
    274    280    279   1    120.0000    527.1840
    274    280    281   1    119.5260    502.0800
    279    280    281   1    119.5260    502.0800
    280    281    282   1    123.7840    627.6000
    280    281    283   1    116.0000    543.9200
    282    281    283   1    123.7840    627.6000
    281    283    284   1    119.5260    502.0800
    281    283    295   1    119.5260    502.0800
    284    283    295   1    120.0000    527.1840
    283    284    285   1    120.0000    527.1840
    283    284    300   1    120.0000    292.8800
    285    284    300   1    120.0000    292.8800
    284    285    286   1    120.0000    527.1840
    284    285    301   1    120.0000    292.8800
    286    285    301   1    120.0000    292.8800
    285    286    287   1    120.0000    585.7600
    285    286    294   1    120.0000    527.1840
    287    286    294   1    120.0000    585.7600
    286    287    288   1    114.7000    711.2800
    287    288    289   1    120.0000    585.7600
    287    288    293   1    120.0000    585.7600
    289    288    293   1    120.0000    527.1840
    288    289    290   1    120.0000    527.1840
    288    289    302   1    120.0000    292.8800
    290    289    302   1    120.0000    292.8800
    289    290    291   1    120.0000    527.1840
    289    290    303   1    120.0000    292.8800
    291    290    303   1    120.0000    292.8800
    290    291    292   1    120.0000    527.1840
    290    291    311   1    120.0000    585.7600
    292    291    311   1    120.0000    585.7600
    291    292    293   1    120.0000    527.1840
    291    292    304   1    120.0000    292.8800
    293    292    304   1    120.0000    292.8800
    288    293    292   1    120.0000    527.1840
    288    293    305   1    120.0000    292.8800
    292    293    305   1    120.0000    292.8800
    286    294    295   1    120.0000    527.1840
    286    294    306   1    120.0000    292.8800
    295    294    306   1    120.0000    292.8800
    283    295    294   1    120.0000    527.1840
    283    295    307   1    120.0000    292.8800
    294    295    307   1    120.0000    292.8800
    309    308    314   1    120.0000    527.1840
    309    308    330   1    120.0000    292.8800
    314    308    330   1    120.0000    292.8800
    308    309    310   1    120.0000    527.1840
    308    309    331   1    120.0000    292.8800
    310    309    331   1    120.0000    292.8800
    309    310    311   1    120.0000    585.7600
    309    310    312   1    120.0000    527.1840
    311    310    312   1    120.0000    585.7600
    291    311    310   1    114.7000    711.2800
    310    312    313   1    120.0000    527.1840
    310    312    332   1    120.0000    292.8800
    313    312    332   1    120.0000    292.8800
    312    313    314   1    120.0000    527.1840
    312    313    333   1    120.0000    292.8800
    314    313    333   1    120.0000    292.8800
    308    314    313   1    120.0000    527.1840
    308    314    315   1    119.5260    502.0800
    313    314    315   1    119.5260    502.0800
    314    315    316   1    123.7840    627.6000
    314    315    317   1    116.0000    543.9200
    316    315    317   1    123.7840    627.6000
    315    317    318   1    119.5260    502.0800
    315    317    329   1    119.5260    502.0800
    318    317    329   1    120.0000    527.1840
    317    318    319   1    120.0000    527.1840
    317    318    334   1    120.0000    292.8800
    319    318    334   1    120.0000    292.8800
    318    319    320   1    120.0000    527.1840
    318    319    335   1    120.0000    292.8800
    320    319    335   1    120.0000    292.8800
    319    320    321   1    120.0000    585.7600
    319    320    328   1    120.0000    527.1840
    321    320    328   1    120.0000    585.7600
    320    321    322   1    114.7000    711.2800
    321    322    323   1    120.0000    585.7600
    321    322    327   1    120.0000    585.7600
    323    322    327   1    120.0000    527.1840
    322    323    324   1    120.0000    527.1840
    322    323    336   1    120.0000    292.8800
    324    323    336   1    120.0000    292.8800
    323    324    325   1    120.0000    527.1840
    323    324    337   1    120.0000    292.8800
    325    324    337   1    120.0000    292.8800
    324    325    326   1    120.0000    527.1840
    324    325    345   1    120.0000    585.7600
    326    325    345   1    120.0000    585.7600
    325    326    327   1    120.0000    527.1840
    325    326    338   1    120.0000    292.8800
    327    326    338   1    120.0000    292.8800
    322    327    326   1    120.0000    527.1840
    322    327    339   1    120.0000    292.8800
    326    327    339   1    120.0000    292.8800
    320    328    329   1    120.0000    527.1840
    320    328    340   1    120.0000    292.8800
    329    328    340   1    120.0000    292.8800
    317    329    328   1    120.0000    527.1840
    317    329    341   1    120.0000    292.8800
    328    329    341   1    120.0000    292.8800
    343    342    348   1    120.0000    527.1840
    343    342    364   1    120.0000    292.8800
    348    342    364   1    120.0000    292.8800
    342    343    344   1    120.0000    527.1840
    342    343    365   1    120.0000    292.8800
    344    343    365   1    120.0000    292.8800
    343    344    345   1    120.0000    585.7600
    343    344    346   1    120.0000    527.1840
    345    344    346   1    120.0000    585.7600
    325    345    344   1    114.7000    711.2800
    344    346    347   1    120.0000    527.1840
    344    346    366   1    120.0000    292.8800
    347    346    366   1    120.0000    292.8800
    346    347    348   1    120.0000    527.1840
    346    347    367   1    120.0000    292.8800
    348    347    367   1    120.0000    292.8800
    342    348    347   1    120.0000    527.1840
    342    348    349   1    119.5260    502.0800
    347    348    349   1    119.5260    502.0800
    348    349    350   1    123.7840    627.6000
    348    349    351   1    116.0000    543.9200
    350    349    351   1    123.7840    627.6000
    349    351    352   1    119.5260    502.0800
    349    351    363   1    119.5260    502.0800
    352    351    363   1    120.0000    527.1840
    351    352    353   1    120.0000    527.1840
    351    352    368   1    120.0000    292.8800
    353    352    368   1    120.0000    292.8800
    352    353    354   1    120.0000    527.1840
    352    353    369   1    120.0000    292.8800
    354    353    369   1    120.0000    292.8800
    353    354    355   1    120.0000    585.7600
    353    354    362   1    120.0000    527.1840
    355    354    362   1    120.0000    585.7600
    354    355    356   1    114.7000    711.2800
    355    356    357   1    120.0000    585.7600
    355    356    361   1    120.0000    585.7600
    357    356    361   1    120.0000    527.1840
    356    357    358   1    120.0000    527.1840
    356    357    370   1    120.0000    292.8800
    358    357    370   1    120.0000    292.8800
    357    358    359   1    120.0000    527.1840
    357    358    371   1    120.0000    292.8800
    359    358    371   1    120.0000    292.8800
    358    359    360   1    120.0000    527.1840
    358    359    379   1    120.0000    585.7600
    360    359    379   1    120.0000    585.7600
    359    360    361   1    120.0000    527.1840
    359    360    372   1    120.0000    292.8800
    361    360    372   1    120.0000    292.8800
    356    361    360   1    120.0000    527.1840
    356    361    373   1    120.0000    292.8800
    360    361    373   1    120.0000    292.8800
    354    362    363   1    120.0000    527.1840
    354    362    374   1    120.0000    292.8800
    363    362    374   1    120.0000    292.8800
    351    363    362   1    120.0000    527.1840
    351    363    375   1    120.0000    292.8800
    362    363    375   1    120.0000    292.8800
    377    376    382   1    120.0000    527.1840
    377    376    398   1    120.0000    292.8800
    382    376    398   1    120.0000    292.8800
    376    377    378   1    120.0000    527.1840
    376    377    399   1    120.0000    292.8800
    378    377    399   1    120.0000    292.8800
    377    378    379   1    120.0000    585.7600
    377    378    380   1    120.0000    527.1840
    379    378    380   1    120.0000    585.7600
    359    379    378   1    114.7000    711.2800
    378    380    381   1    120.0000    527.1840
    378    380    400   1    120.0000    292.8800
    381    380    400   1    120.0000    292.8800
    380    381    382   1    120.0000    527.1840
    380    381    401   1    120.0000    292.8800
    382    381    401   1    120.0000    292.8800
    376    382    381   1    120.0000    527.1840
    376    382    383   1    119.5260    502.0800
    381    382    383   1    119.5260    502.0800
    382    383    384   1    123.7840    627.6000
    382    383    385   1    116.0000    543.9200
    384    383    385   1    123.7840    627.6000
    383    385    386   1    119.5260    502.0800
    383    385    397   1    119.5260    502.0800
    386    385    397   1    120.0000    527.1840
    385    386    387   1    120.0000    527.1840
    385    386    402   1    120.0000    292.8800
    387    386    402   1    120.0000    292.8800
    386    387    388   1    120.0000    527.1840
    386    387    403   1    120.0000    292.8800
    388    387    403   1    120.0000    292.8800
    387    388    389   1    120.0000    585.7600
    387    388    396   1    120.0000    527.1840
    389    388    396   1    120.0000    585.7600
    388    389    390   1    114.7000    711.2800
    389    390    391   1    120.0000    585.7600
    389    390    395   1    120.0000    585.7600
    391    390    395   1    120.0000    527.1840
    390    391    392   1    120.0000    527.1840
    390    391    404   1    120.0000    292.8800
    392    391    404   1    120.0000    292.8800
    391    392    393   1    120.0000    527.1840
    391    392    405   1    120.0000    292.8800
    393    392    405   1    120.0000    292.8800
    392    393    394   1    120.0000    527.1840
    392    393    413   1    120.0000    585.7600
    394    393    413   1    120.0000    585.7600
    393    394    395   1    120.0000    527.1840
    393    394    406   1    120.0000    292.8800
    395    394    406   1    120.0000    292.8800
    390    395    394   1    120.0000    527.1840
    390    395    407   1    120.0000    292.8800
    394    395    407   1    120.0000    292.8800
    388    396    397   1    120.0000    527.1840
    388    396    408   1    120.0000    292.8800
    397    396    408   1    120.0000    292.8800
    385    397    396   1    120.0000    527.1840
    385    397    409   1    120.0000    292.8800
    396    397    409   1    120.0000    292.8800
    411    410    416   1    120.0000    527.1840
    411    410    432   1    120.0000    292.8800
    416    410    432   1    120.0000    292.8800
    410    411    412   1    120.0000    527.1840
    410    411    433   1    120.0000    292.8800
    412    411    433   1    120.0000    292.8800
    411    412    413   1    120.0000    585.7600
    411    412    414   1    120.0000    527.1840
    413    412    414   1    120.0000    585.7600
    393    413    412   1    114.7000    711.2800
    412    414    415   1    120.0000    527.1840
    412    414    434   1    120.0000    292.8800
    415    414    434   1    120.0000    292.8800
    414    415    416   1    120.0000    527.1840
    414    415    435   1    120.0000    292.8800
    416    415    435   1    120.0000    292.8800
    410    416    415   1    120.0000    527.1840
    410    416    417   1    119.5260    502.0800
    415    416    417   1    119.5260    502.0800
    416    417    418   1    123.7840    627.6000
    416    417    419   1    116.0000    543.9200
    418    417    419   1    123.7840    627.6000
    417    419    420   1    119.5260    502.0800
    417    419    431   1    119.5260    502.0800
    420    419    431   1    120.0000    527.1840
    419    420    421   1    120.0000    527.1840
    419    420    436   1    120.0000    292.8800
    421    420    436   1    120.0000    292.8800
    420    421    422   1    120.0000    527.1840
    420    421    437   1    120.0000    292.8800
    422    421    437   1    120.0000    292.8800
    421    422    423   1    120.0000    585.7600
    421    422    430   1    120.0000    527.1840
    423    422    430   1    120.0000    585.7600
    422    423    424   1    114.7000    711.2800
    423    424    425   1    120.0000    585.7600
    423    424    429   1    120.0000    585.7600
    425    424    429   1    120.0000    527.1840
    424    425    426   1    120.0000    527.1840
    424    425    438   1    120.0000    292.8800
    426    425    438   1    120.0000    292.8800
    425    426    427   1    120.0000    527.1840
    425    426    439   1    120.0000    292.8800
    427    426    439   1    120.0000    292.8800
    426    427    428   1    120.0000    527.1840
    426    427    447   1    120.0000    585.7600
    428    427    447   1    120.0000    585.7600
    427    428    429   1    120.0000    527.1840
    427    428    440   1    120.0000    292.8800
    429    428    440   1    120.0000    292.8800
    424    429    428   1    120.0000    527.1840
    424    429    441   1    120.0000    292.8800
    428    429    441   1    120.0000    292.8800
    422    430    431   1    120.0000    527.1840
    422    430    442   1    120.0000    292.8800
    431    430    442   1    120.0000    292.8800
    419    431    430   1    120.0000    527.1840
    419    431    443   1    120.0000    292.8800
    430    431    443   1    120.0000    292.8800
    445    444    450   1    120.0000    527.1840
    445    444    466   1    120.0000    292.8800
    450    444    466   1    120.0000    292.8800
    444    445    446   1    120.0000    527.1840
    444    445    467   1    120.0000    292.8800
    446    445    467   1    120.0000    292.8800
    445    446    447   1    120.0000    585.7600
    445    446    448   1    120.0000    527.1840
    447    446    448   1    120.0000    585.7600
    427    447    446   1    114.7000    711.2800
    446    448    449   1    120.0000    527.1840
    446    448    468   1    120.0000    292.8800
    449    448    468   1    120.0000    292.8800
    448    449    450   1    120.0000    527.1840
    448    449    469   1    120.0000    292.8800
    450    449    469   1    120.0000    292.8800
    444    450    449   1    120.0000    527.1840
    444    450    451   1    119.5260    502.0800
    449    450    451   1    119.5260    502.0800
    450    451    452   1    123.7840    627.6000
    450    451    453   1    116.0000    543.9200
    452    451    453   1    123.7840    627.6000
    451    453    454   1    119.5260    502.0800
    451    453    465   1    119.5260    502.0800
    454    453    465   1    120.0000    527.1840
    453    454    455   1    120.0000    527.1840
    453    454    470   1    120.0000    292.8800
    455    454    470   1    120.0000    292.8800
    454    455    456   1    120.0000    527.1840
    454    455    471   1    120.0000    292.8800
    456    455    471   1    120.0000    292.8800
    455    456    457   1    120.0000    585.7600
    455    456    464   1    120.0000    527.1840
    457    456    464   1    120.0000    585.7600
    456    457    458   1    114.7000    711.2800
    457    458    459   1    120.0000    585.7600
    457    458    463   1    120.0000    585.7600
    459    458    463   1    120.0000    527.1840
    458    459    460   1    120.0000    527.1840
    458    459    472   1    120.0000    292.8800
    460    459    472   1    120.0000    292.8800
    459    460    461   1    120.0000    527.1840
    459    460    473   1    120.0000    292.8800
    461    460    473   1    120.0000    292.8800
    460    461    462   1    120.0000    527.1840
    460    461    481   1    120.0000    585.7600
    462    461    481   1    120.0000    585.7600
    461    462    463   1    120.0000    527.1840
    461    462    474   1    120.0000    292.8800
    463    462    474   1    120.0000    292.8800
    458    463    462   1    120.0000    527.1840
    458    463    475   1    120.0000    292.8800
    462    463    475   1    120.0000    292.8800
    456    464    465   1    120.0000    527.1840
    456    464    476   1    120.0000    292.8800
    465    464    476   1    120.0000    292.8800
    453    465    464   1    120.0000    527.1840
    453    465    477   1    120.0000    292.8800
    464    465    477   1    120.0000    292.8800
    479    478    484   1    120.0000    527.1840
    479    478    500   1    120.0000    292.8800
    484    478    500   1    120.0000    292.8800
    478    479    480   1    120.0000    527.1840
    478    479    501   1    120.0000    292.8800
    480    479    501   1    120.0000    292.8800
    479    480    481   1    120.0000    585.7600
    479    480    482   1    120.0000    527.1840
    481    480    482   1    120.0000    585.7600
    461    481    480   1    114.7000    711.2800
    480    482    483   1    120.0000    527.1840
    480    482    502   1    120.0000    292.8800
    483    482    502   1    120.0000    292.8800
    482    483    484   1    120.0000    527.1840
    482    483    503   1    120.0000    292.8800
    484    483    503   1    120.0000    292.8800
    478    484    483   1    120.0000    527.1840
    478    484    485   1    119.5260    502.0800
    483    484    485   1    119.5260    502.0800
    484    485    486   1    123.7840    627.6000
    484    485    487   1    116.0000    543.9200
    486    485    487   1    123.7840    627.6000
    485    487    488   1    119.5260    502.0800
    485    487    499   1    119.5260    502.0800
    488    487    499   1    120.0000    527.1840
    487    488    489   1    120.0000    527.1840
    487    488    504   1    120.0000    292.8800
    489    488    504   1    120.0000    292.8800
    488    489    490   1    120.0000    527.1840
    488    489    505   1    120.0000    292.8800
    490    489    505   1    120.0000    292.8800
    489    490    491   1    120.0000    585.7600
    489    490    498   1    120.0000    527.1840
    491    490    498   1    120.0000    585.7600
    490    491    492   1    114.7000    711.2800
    491    492    493   1    120.0000    585.7600
    491    492    497   1    120.0000    585.7600
    493    492    497   1    120.0000    527.1840
    492    493    494   1    120.0000    527.1840
    492    493    506   1    120.0000    292.8800
    494    493    506   1    120.0000    292.8800
    493    494    495   1    120.0000    527.1840
    493    494    507   1    120.0000    292.8800
    495    494    507   1    120.0000    292.8800
    494    495    496   1    120.0000    527.1840
    494    495    515   1    120.0000    585.7600
    496    495    515   1    120.0000    585.7600
    495    496    497   1    120.0000    527.1840
    495    496    508   1    120.0000    292.8800
    497    496    508   1    120.0000    292.8800
    492    497    496   1    120.0000    527.1840
    492    497    509   1    120.0000    292.8800
    496    497    509   1    120.0000    292.8800
    490    498    499   1    120.0000    527.1840
    490    498    510   1    120.0000    292.8800
    499    498    510   1    120.0000    292.8800
    487    499    498   1    120.0000    527.1840
    487    499    511   1    120.0000    292.8800
    498    499    511   1    120.0000    292.8800
    513    512    518   1    120.0000    527.1840
    513    512    534   1    120.0000    292.8800
    518    512    534   1    120.0000    292.8800
    512    513    514   1    120.0000    527.1840
    512    513    535   1    120.0000    292.8800
    514    513    535   1    120.0000    292.8800
    513    514    515   1    120.0000    585.7600
    513    514    516   1    120.0000    527.1840
    515    514    516   1    120.0000    585.7600
    495    515    514   1    114.7000    711.2800
    514    516    517   1    120.0000    527.1840
    514    516    536   1    120.0000    292.8800
    517    516    536   1    120.0000    292.8800
    516    517    518   1    120.0000    527.1840
    516    517    537   1    120.0000    292.8800
    518    517    537   1    120.0000    292.8800
    512    518    517   1    120.0000    527.1840
    512    518    519   1    119.5260    502.0800
    517    518    519   1    119.5260    502.0800
    518    519    520   1    123.7840    627.6000
    518    519    521   1    116.0000    543.9200
    520    519    521   1    123.7840    627.6000
    519    521    522   1    119.5260    502.0800
    519    521    533   1    119.5260    502.0800
    522    521    533   1    120.0000    527.1840
    521    522    523   1    120.0000    527.1840
    521    522    538   1    120.0000    292.8800
    523    522    538   1    120.0000    292.8800
    522    523    524   1    120.0000    527.1840
    522    523    539   1    120.0000    292.8800
    524    523    539   1    120.0000    292.8800
    523    524    525   1    120.0000    585.7600
    523    524    532   1    120.0000    527.1840
    525    524    532   1    120.0000    585.7600
    524    525    526   1    114.7000    711.2800
    525    526    527   1    120.0000    585.7600
    525    526    531   1    120.0000    585.7600
    527    526    531   1    120.0000    527.1840
    526    527    528   1    120.0000    527.1840
    526    527    540   1    120.0000    292.8800
    528    527    540   1    120.0000    292.8800
    527    528    529   1    120.0000    527.1840
    527    528    541   1    120.0000    292.8800
    529    528    541   1    120.0000    292.8800
    528    529    530   1    120.0000    527.1840
    528    529    549   1    120.0000    585.7600
    530    529    549   1    120.0000    585.7600
    529    530    531   1    120.0000    527.1840
    529    530    542   1    120.0000    292.8800
    531    530    542   1    120.0000    292.8800
    526    531    530   1    120.0000    527.1840
    526    531    543   1    120.0000    292.8800
    530    531    543   1    120.0000    292.8800
    524    532    533   1    120.0000    527.1840
    524    532    544   1    120.0000    292.8800
    533    532    544   1    120.0000    292.8800
    521    533    532   1    120.0000    527.1840
    521    533    545   1    120.0000    292.8800
    532    533    545   1    120.0000    292.8800
    547    546    552   1    120.0000    527.1840
    547    546    568   1    120.0000    292.8800
    552    546    568   1    120.0000    292.8800
    546    547    548   1    120.0000    527.1840
    546    547    569   1    120.0000    292.8800
    548    547    569   1    120.0000    292.8800
    547    548    549   1    120.0000    585.7600
    547    548    550   1    120.0000    527.1840
    549    548    550   1    120.0000    585.7600
    529    549    548   1    114.7000    711.2800
    548    550    551   1    120.0000    527.1840
    548    550    570   1    120.0000    292.8800
    551    550    570   1    120.0000    292.8800
    550    551    552   1    120.0000    527.1840
    550    551    571   1    120.0000    292.8800
    552    551    571   1    120.0000    292.8800
    546    552    551   1    120.0000    527.1840
    546    552    553   1    119.5260    502.0800
    551    552    553   1    119.5260    502.0800
    552    553    554   1    123.7840    627.6000
    552    553    555   1    116.0000    543.9200
    554    553    555   1    123.7840    627.6000
    553    555    556   1    119.5260    502.0800
    553    555    567   1    119.5260    502.0800
    556    555    567   1    120.0000    527.1840
    555    556    557   1    120.0000    527.1840
    555    556    572   1    120.0000    292.8800
    557    556    572   1    120.0000    292.8800
    556    557    558   1    120.0000    527.1840
    556    557    573   1    120.0000    292.8800
    558    557    573   1    120.0000    292.8800
    557    558    559   1    120.0000    585.7600
    557    558    566   1    120.0000    527.1840
    559    558    566   1    120.0000    585.7600
    558    559    560   1    114.7000    711.2800
    559    560    561   1    120.0000    585.7600
    559    560    565   1    120.0000    585.7600
    561    560    565   1    120.0000    527.1840
    560    561    562   1    120.0000    527.1840
    560    561    574   1    120.0000    292.8800
    562    561    574   1    120.0000    292.8800
    561    562    563   1    120.0000    527.1840
    561    562    575   1    120.0000    292.8800
    563    562    575   1    120.0000    292.8800
    562    563    564   1    120.0000    527.1840
    562    563    583   1    120.0000    585.7600
    564    563    583   1    120.0000    585.7600
    563    564    565   1    120.0000    527.1840
    563    564    576   1    120.0000    292.8800
    565    564    576   1    120.0000    292.8800
    560    565    564   1    120.0000    527.1840
    560    565    577   1    120.0000    292.8800
    564    565    577   1    120.0000    292.8800
    558    566    567   1    120.0000    527.1840
    558    566    578   1    120.0000    292.8800
    567    566    578   1    120.0000    292.8800
    555    567    566   1    120.0000    527.1840
    555    567    579   1    120.0000    292.8800
    566    567    579   1    120.0000    292.8800
    581    580    586   1    120.0000    527.1840
    581    580    602   1    120.0000    292.8800
    586    580    602   1    120.0000    292.8800
    580    581    582   1    120.0000    527.1840
    580    581    603   1    120.0000    292.8800
    582    581    603   1    120.0000    292.8800
    581    582    583   1    120.0000    585.7600
    581    582    584   1    120.0000    527.1840
    583    582    584   1    120.0000    585.7600
    563    583    582   1    114.7000    711.2800
    582    584    585   1    120.0000    527.1840
    582    584    604   1    120.0000    292.8800
    585    584    604   1    120.0000    292.8800
    584    585    586   1    120.0000    527.1840
    584    585    605   1    120.0000    292.8800
    586    585    605   1    120.0000    292.8800
    580    586    585   1    120.0000    527.1840
    580    586    587   1    119.5260    502.0800
    585    586    587   1    119.5260    502.0800
    586    587    588   1    123.7840    627.6000
    586    587    589   1    116.0000    543.9200
    588    587    589   1    123.7840    627.6000
    587    589    590   1    119.5260    502.0800
    587    589    601   1    119.5260    502.0800
    590    589    601   1    120.0000    527.1840
    589    590    591   1    120.0000    527.1840
    589    590    606   1    120.0000    292.8800
    591    590    606   1    120.0000    292.8800
    590    591    592   1    120.0000    527.1840
    590    591    607   1    120.0000    292.8800
    592    591    607   1    120.0000    292.8800
    591    592    593   1    120.0000    585.7600
    591    592    600   1    120.0000    527.1840
    593    592    600   1    120.0000    585.7600
    592    593    594   1    114.7000    711.2800
    593    594    595   1    120.0000    585.7600
    593    594    599   1    120.0000    585.7600
    595    594    599   1    120.0000    527.1840
    594    595    596   1    120.0000    527.1840
    594    595    608   1    120.0000    292.8800
    596    595    608   1    120.0000    292.8800
    595    596    597   1    120.0000    527.1840
    595    596    609   1    120.0000    292.8800
    597    596    609   1    120.0000    292.8800
    596    597    598   1    120.0000    527.1840
    596    597    617   1    120.0000    585.7600
    598    597    617   1    120.0000    585.7600
    597    598    599   1    120.0000    527.1840
    597    598    610   1    120.0000    292.8800
    599    598    610   1    120.0000    292.8800
    594    599    598   1    120.0000    527.1840
    594    599    611   1    120.0000    292.8800
    598    599    611   1    120.0000    292.8800
    592    600    601   1    120.0000    527.1840
    592    600    612   1    120.0000    292.8800
    601    600    612   1    120.0000    292.8800
    589    601    600   1    120.0000    527.1840
    589    601    613   1    120.0000    292.8800
    600    601    613   1    120.0000    292.8800
    615    614    620   1    120.0000    527.1840
    615    614    636   1    120.0000    292.8800
    620    614    636   1    120.0000    292.8800
    614    615    616   1    120.0000    527.1840
    614    615    637   1    120.0000    292.8800
    616    615    637   1    120.0000    292.8800
    615    616    617   1    120.0000    585.7600
    615    616    618   1    120.0000    527.1840
    617    616    618   1    120.0000    585.7600
    597    617    616   1    114.7000    711.2800
    616    618    619   1    120.0000    527.1840
    616    618    638   1    120.0000    292.8800
    619    618    638   1    120.0000    292.8800
    618    619    620   1    120.0000    527.1840
    618    619    639   1    120.0000    292.8800
    620    619    639   1    120.0000    292.8800
    614    620    619   1    120.0000    527.1840
    614    620    621   1    119.5260    502.0800
    619    620    621   1    119.5260    502.0800
    620    621    622   1    123.7840    627.6000
    620    621    623   1    116.0000    543.9200
    622    621    623   1    123.7840    627.6000
    621    623    624   1    119.5260    502.0800
    621    623    635   1    119.5260    502.0800
    624    623    635   1    120.0000    527.1840
    623    624    625   1    120.0000    527.1840
    623    624    640   1    120.0000    292.8800
    625    624    640   1    120.0000    292.8800
    624    625    626   1    120.0000    527.1840
    624    625    641   1    120.0000    292.8800
    626    625    641   1    120.0000    292.8800
    625    626    627   1    120.0000    585.7600
    625    626    634   1    120.0000    527.1840
    627    626    634   1    120.0000    585.7600
    626    627    628   1    114.7000    711.2800
    627    628    629   1    120.0000    585.7600
    627    628    633   1    120.0000    585.7600
    629    628    633   1    120.0000    527.1840
    628    629    630   1    120.0000    527.1840
    628    629    642   1    120.0000    292.8800
    630    629    642   1    120.0000    292.8800
    629    630    631   1    120.0000    527.1840
    629    630    643   1    120.0000    292.8800
    631    630    643   1    120.0000    292.8800
    630    631    632   1    120.0000    527.1840
    630    631    651   1    120.0000    585.7600
    632    631    651   1    120.0000    585.7600
    631    632    633   1    120.0000    527.1840
    631    632    644   1    120.0000    292.8800
    633    632    644   1    120.0000    292.8800
    628    633    632   1    120.0000    527.1840
    628    633    645   1    120.0000    292.8800
    632    633    645   1    120.0000    292.8800
    626    634    635   1    120.0000    527.1840
    626    634    646   1    120.0000    292.8800
    635    634    646   1    120.0000    292.8800
    623    635    634   1    120.0000    527.1840
    623    635    647   1    120.0000    292.8800
    634    635    647   1    120.0000    292.8800
    649    648    654   1    120.0000    527.1840
    649    648    670   1    120.0000    292.8800
    654    648    670   1    120.0000    292.8800
    648    649    650   1    120.0000    527.1840
    648    649    671   1    120.0000    292.8800
    650    649    671   1    120.0000    292.8800
    649    650    651   1    120.0000    585.7600
    649    650    652   1    120.0000    527.1840
    651    650    652   1    120.0000    585.7600
    631    651    650   1    114.7000    711.2800
    650    652    653   1    120.0000    527.1840
    650    652    672   1    120.0000    292.8800
    653    652    672   1    120.0000    292.8800
    652    653    654   1    120.0000    527.1840
    652    653    673   1    120.0000    292.8800
    654    653    673   1    120.0000    292.8800
    648    654    653   1    120.0000    527.1840
    648    654    655   1    119.5260    502.0800
    653    654    655   1    119.5260    502.0800
    654    655    656   1    123.7840    627.6000
    654    655    657   1    116.0000    543.9200
    656    655    657   1    123.7840    627.6000
    655    657    658   1    119.5260    502.0800
    655    657    669   1    119.5260    502.0800
    658    657    669   1    120.0000    527.1840
    657    658    659   1    120.0000    527.1840
    657    658    674   1    120.0000    292.8800
    659    658    674   1    120.0000    292.8800
    658    659    660   1    120.0000    527.1840
    658    659    675   1    120.0000    292.8800
    660    659    675   1    120.0000    292.8800
    659    660    661   1    120.0000    585.7600
    659    660    668   1    120.0000    527.1840
    661    660    668   1    120.0000    585.7600
    660    661    662   1    114.7000    711.2800
    661    662    663   1    120.0000    585.7600
    661    662    667   1    120.0000    585.7600
    663    662    667   1    120.0000    527.1840
    662    663    664   1    120.0000    527.1840
    662    663    676   1    120.0000    292.8800
    664    663    676   1    120.0000    292.8800
    663    664    665   1    120.0000    527.1840
    663    664    677   1    120.0000    292.8800
    665    664    677   1    120.0000    292.8800
    664    665    666   1    120.0000    527.1840
    664    665    682   1    120.0000    292.8800
    666    665    682   1    120.0000    292.8800
    665    666    667   1    120.0000    527.1840
    665    666    678   1    120.0000    292.8800
    667    666    678   1    120.0000    292.8800
    662    667    666   1    120.0000    527.1840
    662    667    679   1    120.0000    292.8800
    666    667    679   1    120.0000    292.8800
    660    668    669   1    120.0000    527.1840
    660    668    680   1    120.0000    292.8800
    669    668    680   1    120.0000    292.8800
    657    669    668   1    120.0000    527.1840
    657    669    681   1    120.0000    292.8800
    668    669    681   1    120.0000    292.8800

[ dihedrals ]
; Proper dihedrals
      7      1      2      3   5     0.00000    30.33400     0.00000  0.0
      7      1      2     24   5     0.00000    30.33400     0.00000  0.0
     23      1      2      3   5     0.00000    30.33400     0.00000  0.0
     23      1      2     24   5     0.00000    30.33400     0.00000  0.0
      2      1      7      6   5     0.00000    30.33400     0.00000  0.0
      2      1      7      8   5     0.00000    30.33400     0.00000  0.0
     23      1      7      6   5     0.00000    30.33400     0.00000  0.0
     23      1      7      8   5     0.00000    30.33400     0.00000  0.0
      1      2      3      4   5     0.00000    30.33400     0.00000  0.0
      1      2      3      5   5     0.00000    30.33400     0.00000  0.0
     24      2      3      4   5     0.00000    30.33400     0.00000  0.0
     24      2      3      5   5     0.00000    30.33400     0.00000  0.0
      2      3      4     35   5     0.00000     7.03749     0.00000  0.0
      5      3      4     35   5     0.00000     7.03749     0.00000  0.0
      2      3      5      6   5     0.00000    30.33400     0.00000  0.0
      2      3      5     25   5     0.00000    30.33400     0.00000  0.0
      4      3      5      6   5     0.00000    30.33400     0.00000  0.0
      4      3      5     25   5     0.00000    30.33400     0.00000  0.0
      3      5      6      7   5     0.00000    30.33400     0.00000  0.0
      3      5      6     26   5     0.00000    30.33400     0.00000  0.0
     25      5      6      7   5     0.00000    30.33400     0.00000  0.0
     25      5      6     26   5     0.00000    30.33400     0.00000  0.0
      5      6      7      1   5     0.00000    30.33400     0.00000  0.0
      5      6      7      8   5     0.00000    30.33400     0.00000  0.0
     26      6      7      1   5     0.00000    30.33400     0.00000  0.0
     26      6      7      8   5     0.00000    30.33400     0.00000  0.0
      1      7      8      9   5     0.00000     8.78640     0.00000  0.0
      1      7      8     10   5     0.00000     4.73629     0.00000  0.0
      6      7      8      9   5     0.00000     8.78640     0.00000  0.0
      6      7      8     10   5     0.00000     4.73629     0.00000  0.0
      7      8     10     11   5     0.00000     4.73629     0.00000  0.0
      7      8     10     22   5     0.00000     4.73629     0.00000  0.0
      9      8     10     11   5     0.00000     8.78640     0.00000  0.0
      9      8     10     22   5     0.00000     8.78640     0.00000  0.0
      8     10     11     12   5     0.00000    30.33400     0.00000  0.0
      8     10     11     27   5     0.00000    30.33400     0.00000  0.0
     22     10     11     12   5     0.00000    30.33400     0.00000  0.0
     22     10     11     27   5     0.00000    30.33400     0.00000  0.0
      8     10     22     21   5     0.00000    30.33400     0.00000  0.0
      8     10     22     34   5     0.00000    30.33400     0.00000  0.0
     11     10     22     21   5     0.00000    30.33400     0.00000  0.0
     11     10     22     34   5     0.00000    30.33400     0.00000  0.0
     10     11     12     13   5     0.00000    30.33400     0.00000  0.0
     10     11     12     28   5     0.00000    30.33400     0.00000  0.0
     27     11     12     13   5     0.00000    30.33400     0.00000  0.0
     27     11     12     28   5     0.00000    30.33400     0.00000  0.0
     11     12     13     14   5     0.00000    30.33400     0.00000  0.0
     11     12     13     21   5     0.00000    30.33400     0.00000  0.0
     28     12     13     14   5     0.00000    30.33400     0.00000  0.0
     28     12     13     21   5     0.00000    30.33400     0.00000  0.0
     12     13     14     15   5     0.00000     3.94551     0.00000  0.0
     21     13     14     15   5     0.00000     3.94551     0.00000  0.0
     12     13     21     22   5     0.00000    30.33400     0.00000  0.0
     12     13     21     33   5     0.00000    30.33400     0.00000  0.0
     14     13     21     22   5     0.00000    30.33400     0.00000  0.0
     14     13     21     33   5     0.00000    30.33400     0.00000  0.0
     13     14     15     16   5     0.00000     3.94551     0.00000  0.0
     13     14     15     20   5     0.00000     3.94551     0.00000  0.0
     14     15     16     17   5     0.00000    30.33400     0.00000  0.0
     14     15     16     29   5     0.00000    30.33400     0.00000  0.0
     20     15     16     17   5     0.00000    30.33400     0.00000  0.0
     20     15     16     29   5     0.00000    30.33400     0.00000  0.0
     14     15     20     19   5     0.00000    30.33400     0.00000  0.0
     14     15     20     32   5     0.00000    30.33400     0.00000  0.0
     16     15     20     19   5     0.00000    30.33400     0.00000  0.0
     16     15     20     32   5     0.00000    30.33400     0.00000  0.0
     15     16     17     18   5     0.00000    30.33400     0.00000  0.0
     15     16     17     30   5     0.00000    30.33400     0.00000  0.0
     29     16     17     18   5     0.00000    30.33400     0.00000  0.0
     29     16     17     30   5     0.00000    30.33400     0.00000  0.0
     16     17     18     19   5     0.00000    30.33400     0.00000  0.0
     16     17     18     39   5     0.00000    30.33400     0.00000  0.0
     30     17     18     19   5     0.00000    30.33400     0.00000  0.0
     30     17     18     39   5     0.00000    30.33400     0.00000  0.0
     17     18     19     20   5     0.00000    30.33400     0.00000  0.0
     17     18     19     31   5     0.00000    30.33400     0.00000  0.0
     39     18     19     20   5     0.00000    30.33400     0.00000  0.0
     39     18     19     31   5     0.00000    30.33400     0.00000  0.0
     17     18     39     38   5     0.00000     3.94551     0.00000  0.0
     19     18     39     38   5     0.00000     3.94551     0.00000  0.0
     18     19     20     15   5     0.00000    30.33400     0.00000  0.0
     18     19     20     32   5     0.00000    30.33400     0.00000  0.0
     31     19     20     15   5     0.00000    30.33400     0.00000  0.0
     31     19     20     32   5     0.00000    30.33400     0.00000  0.0
     13     21     22     10   5     0.00000    30.33400     0.00000  0.0
     13     21     22     34   5     0.00000    30.33400     0.00000  0.0
     33     21     22     10   5     0.00000    30.33400     0.00000  0.0
     33     21     22     34   5     0.00000    30.33400     0.00000  0.0
     42     36     37     38   5     0.00000    30.33400     0.00000  0.0
     42     36     37     59   5     0.00000    30.33400     0.00000  0.0
     58     36     37     38   5     0.00000    30.33400     0.00000  0.0
     58     36     37     59   5     0.00000    30.33400     0.00000  0.0
     37     36     42     41   5     0.00000    30.33400     0.00000  0.0
     37     36     42     43   5     0.00000    30.33400     0.00000  0.0
     58     36     42     41   5     0.00000    30.33400     0.00000  0.0
     58     36     42     43   5     0.00000    30.33400     0.00000  0.0
     36     37     38     39   5     0.00000    30.33400     0.00000  0.0
     36     37     38     40   5     0.00000    30.33400     0.00000  0.0
     59     37     38     39   5     0.00000    30.33400     0.00000  0.0
     59     37     38     40   5     0.00000    30.33400     0.00000  0.0
     37     38     39     18   5     0.00000     3.94551     0.00000  0.0
     40     38     39     18   5     0.00000     3.94551     0.00000  0.0
     37     38     40     41   5     0.00000    30.33400     0.00000  0.0
     37     38     40     60   5     0.00000    30.33400     0.00000  0.0
     39     38     40     41   5     0.00000    30.33400     0.00000  0.0
     39     38     40     60   5     0.00000    30.33400     0.00000  0.0
     38     40     41     42   5     0.00000    30.33400     0.00000  0.0
     38     40     41     61   5     0.00000    30.33400     0.00000  0.0
     60     40     41     42   5     0.00000    30.33400     0.00000  0.0
     60     40     41     61   5     0.00000    30.33400     0.00000  0.0
     40     41     42     36   5     0.00000    30.33400     0.00000  0.0
     40     41     42     43   5     0.00000    30.33400     0.00000  0.0
     61     41     42     36   5     0.00000    30.33400     0.00000  0.0
     61     41     42     43   5     0.00000    30.33400     0.00000  0.0
     36     42     43     44   5     0.00000     8.78640     0.00000  0.0
     36     42     43     45   5     0.00000     4.73629     0.00000  0.0
     41     42     43     44   5     0.00000     8.78640     0.00000  0.0
     41     42     43     45   5     0.00000     4.73629     0.00000  0.0
     42     43     45     46   5     0.00000     4.73629     0.00000  0.0
     42     43     45     57   5     0.00000     4.73629     0.00000  0.0
     44     43     45     46   5     0.00000     8.78640     0.00000  0.0
     44     43     45     57   5     0.00000     8.78640     0.00000  0.0
     43     45     46     47   5     0.00000    30.33400     0.00000  0.0
     43     45     46     62   5     0.00000    30.33400     0.00000  0.0
     57     45     46     47   5     0.00000    30.33400     0.00000  0.0
     57     45     46     62   5     0.00000    30.33400     0.00000  0.0
     43     45     57     56   5     0.00000    30.33400     0.00000  0.0
     43     45     57     69   5     0.00000    30.33400     0.00000  0.0
     46     45     57     56   5     0.00000    30.33400     0.00000  0.0
     46     45     57     69   5     0.00000    30.33400     0.00000  0.0
     45     46     47     48   5     0.00000    30.33400     0.00000  0.0
     45     46     47     63   5     0.00000    30.33400     0.00000  0.0
     62     46     47     48   5     0.00000    30.33400     0.00000  0.0
     62     46     47     63   5     0.00000    30.33400     0.00000  0.0
     46     47     48     49   5     0.00000    30.33400     0.00000  0.0
     46     47     48     56   5     0.00000    30.33400     0.00000  0.0
     63     47     48     49   5     0.00000    30.33400     0.00000  0.0
     63     47     48     56   5     0.00000    30.33400     0.00000  0.0
     47     48     49     50   5     0.00000     3.94551     0.00000  0.0
     56     48     49     50   5     0.00000     3.94551     0.00000  0.0
     47     48     56     57   5     0.00000    30.33400     0.00000  0.0
     47     48     56     68   5     0.00000    30.33400     0.00000  0.0
     49     48     56     57   5     0.00000    30.33400     0.00000  0.0
     49     48     56     68   5     0.00000    30.33400     0.00000  0.0
     48     49     50     51   5     0.00000     3.94551     0.00000  0.0
     48     49     50     55   5     0.00000     3.94551     0.00000  0.0
     49     50     51     52   5     0.00000    30.33400     0.00000  0.0
     49     50     51     64   5     0.00000    30.33400     0.00000  0.0
     55     50     51     52   5     0.00000    30.33400     0.00000  0.0
     55     50     51     64   5     0.00000    30.33400     0.00000  0.0
     49     50     55     54   5     0.00000    30.33400     0.00000  0.0
     49     50     55     67   5     0.00000    30.33400     0.00000  0.0
     51     50     55     54   5     0.00000    30.33400     0.00000  0.0
     51     50     55     67   5     0.00000    30.33400     0.00000  0.0
     50     51     52     53   5     0.00000    30.33400     0.00000  0.0
     50     51     52     65   5     0.00000    30.33400     0.00000  0.0
     64     51     52     53   5     0.00000    30.33400     0.00000  0.0
     64     51     52     65   5     0.00000    30.33400     0.00000  0.0
     51     52     53     54   5     0.00000    30.33400     0.00000  0.0
     51     52     53     73   5     0.00000    30.33400     0.00000  0.0
     65     52     53     54   5     0.00000    30.33400     0.00000  0.0
     65     52     53     73   5     0.00000    30.33400     0.00000  0.0
     52     53     54     55   5     0.00000    30.33400     0.00000  0.0
     52     53     54     66   5     0.00000    30.33400     0.00000  0.0
     73     53     54     55   5     0.00000    30.33400     0.00000  0.0
     73     53     54     66   5     0.00000    30.33400     0.00000  0.0
     52     53     73     72   5     0.00000     3.94551     0.00000  0.0
     54     53     73     72   5     0.00000     3.94551     0.00000  0.0
     53     54     55     50   5     0.00000    30.33400     0.00000  0.0
     53     54     55     67   5     0.00000    30.33400     0.00000  0.0
     66     54     55     50   5     0.00000    30.33400     0.00000  0.0
     66     54     55     67   5     0.00000    30.33400     0.00000  0.0
     48     56     57     45   5     0.00000    30.33400     0.00000  0.0
     48     56     57     69   5     0.00000    30.33400     0.00000  0.0
     68     56     57     45   5     0.00000    30.33400     0.00000  0.0
     68     56     57     69   5     0.00000    30.33400     0.00000  0.0
     76     70     71     72   5     0.00000    30.33400     0.00000  0.0
     76     70     71     93   5     0.00000    30.33400     0.00000  0.0
     92     70     71     72   5     0.00000    30.33400     0.00000  0.0
     92     70     71     93   5     0.00000    30.33400     0.00000  0.0
     71     70     76     75   5     0.00000    30.33400     0.00000  0.0
     71     70     76     77   5     0.00000    30.33400     0.00000  0.0
     92     70     76     75   5     0.00000    30.33400     0.00000  0.0
     92     70     76     77   5     0.00000    30.33400     0.00000  0.0
     70     71     72     73   5     0.00000    30.33400     0.00000  0.0
     70     71     72     74   5     0.00000    30.33400     0.00000  0.0
     93     71     72     73   5     0.00000    30.33400     0.00000  0.0
     93     71     72     74   5     0.00000    30.33400     0.00000  0.0
     71     72     73     53   5     0.00000     3.94551     0.00000  0.0
     74     72     73     53   5     0.00000     3.94551     0.00000  0.0
     71     72     74     75   5     0.00000    30.33400     0.00000  0.0
     71     72     74     94   5     0.00000    30.33400     0.00000  0.0
     73     72     74     75   5     0.00000    30.33400     0.00000  0.0
     73     72     74     94   5     0.00000    30.33400     0.00000  0.0
     72     74     75     76   5     0.00000    30.33400     0.00000  0.0
     72     74     75     95   5     0.00000    30.33400     0.00000  0.0
     94     74     75     76   5     0.00000    30.33400     0.00000  0.0
     94     74     75     95   5     0.00000    30.33400     0.00000  0.0
     74     75     76     70   5     0.00000    30.33400     0.00000  0.0
     74     75     76     77   5     0.00000    30.33400     0.00000  0.0
     95     75     76     70   5     0.00000    30.33400     0.00000  0.0
     95     75     76     77   5     0.00000    30.33400     0.00000  0.0
     70     76     77     78   5     0.00000     8.78640     0.00000  0.0
     70     76     77     79   5     0.00000     4.73629     0.00000  0.0
     75     76     77     78   5     0.00000     8.78640     0.00000  0.0
     75     76     77     79   5     0.00000     4.73629     0.00000  0.0
     76     77     79     80   5     0.00000     4.73629     0.00000  0.0
     76     77     79     91   5     0.00000     4.73629     0.00000  0.0
     78     77     79     80   5     0.00000     8.78640     0.00000  0.0
     78     77     79     91   5     0.00000     8.78640     0.00000  0.0
     77     79     80     81   5     0.00000    30.33400     0.00000  0.0
     77     79     80     96   5     0.00000    30.33400     0.00000  0.0
     91     79     80     81   5     0.00000    30.33400     0.00000  0.0
     91     79     80     96   5     0.00000    30.33400     0.00000  0.0
     77     79     91     90   5     0.00000    30.33400     0.00000  0.0
     77     79     91    103   5     0.00000    30.33400     0.00000  0.0
     80     79     91     90   5     0.00000    30.33400     0.00000  0.0
     80     79     91    103   5     0.00000    30.33400     0.00000  0.0
     79     80     81     82   5     0.00000    30.33400     0.00000  0.0
     79     80     81     97   5     0.00000    30.33400     0.00000  0.0
     96     80     81     82   5     0.00000    30.33400     0.00000  0.0
     96     80     81     97   5     0.00000    30.33400     0.00000  0.0
     80     81     82     83   5     0.00000    30.33400     0.00000  0.0
     80     81     82     90   5     0.00000    30.33400     0.00000  0.0
     97     81     82     83   5     0.00000    30.33400     0.00000  0.0
     97     81     82     90   5     0.00000    30.33400     0.00000  0.0
     81     82     83     84   5     0.00000     3.94551     0.00000  0.0
     90     82     83     84   5     0.00000     3.94551     0.00000  0.0
     81     82     90     91   5     0.00000    30.33400     0.00000  0.0
     81     82     90    102   5     0.00000    30.33400     0.00000  0.0
     83     82     90     91   5     0.00000    30.33400     0.00000  0.0
     83     82     90    102   5     0.00000    30.33400     0.00000  0.0
     82     83     84     85   5     0.00000     3.94551     0.00000  0.0
     82     83     84     89   5     0.00000     3.94551     0.00000  0.0
     83     84     85     86   5     0.00000    30.33400     0.00000  0.0
     83     84     85     98   5     0.00000    30.33400     0.00000  0.0
     89     84     85     86   5     0.00000    30.33400     0.00000  0.0
     89     84     85     98   5     0.00000    30.33400     0.00000  0.0
     83     84     89     88   5     0.00000    30.33400     0.00000  0.0
     83     84     89    101   5     0.00000    30.33400     0.00000  0.0
     85     84     89     88   5     0.00000    30.33400     0.00000  0.0
     85     84     89    101   5     0.00000    30.33400     0.00000  0.0
     84     85     86     87   5     0.00000    30.33400     0.00000  0.0
     84     85     86     99   5     0.00000    30.33400     0.00000  0.0
     98     85     86     87   5     0.00000    30.33400     0.00000  0.0
     98     85     86     99   5     0.00000    30.33400     0.00000  0.0
     85     86     87     88   5     0.00000    30.33400     0.00000  0.0
     85     86     87    107   5     0.00000    30.33400     0.00000  0.0
     99     86     87     88   5     0.00000    30.33400     0.00000  0.0
     99     86     87    107   5     0.00000    30.33400     0.00000  0.0
     86     87     88     89   5     0.00000    30.33400     0.00000  0.0
     86     87     88    100   5     0.00000    30.33400     0.00000  0.0
    107     87     88     89   5     0.00000    30.33400     0.00000  0.0
    107     87     88    100   5     0.00000    30.33400     0.00000  0.0
     86     87    107    106   5     0.00000     3.94551     0.00000  0.0
     88     87    107    106   5     0.00000     3.94551     0.00000  0.0
     87     88     89     84   5     0.00000    30.33400     0.00000  0.0
     87     88     89    101   5     0.00000    30.33400     0.00000  0.0
    100     88     89     84   5     0.00000    30.33400     0.00000  0.0
    100     88     89    101   5     0.00000    30.33400     0.00000  0.0
     82     90     91     79   5     0.00000    30.33400     0.00000  0.0
     82     90     91    103   5     0.00000    30.33400     0.00000  0.0
    102     90     91     79   5     0.00000    30.33400     0.00000  0.0
    102     90     91    103   5     0.00000    30.33400     0.00000  0.0
    110    104    105    106   5     0.00000    30.33400     0.00000  0.0
    110    104    105    127   5     0.00000    30.33400     0.00000  0.0
    126    104    105    106   5     0.00000    30.33400     0.00000  0.0
    126    104    105    127   5     0.00000    30.33400     0.00000  0.0
    105    104    110    109   5     0.00000    30.33400     0.00000  0.0
    105    104    110    111   5     0.00000    30.33400     0.00000  0.0
    126    104    110    109   5     0.00000    30.33400     0.00000  0.0
    126    104    110    111   5     0.00000    30.33400     0.00000  0.0
    104    105    106    107   5     0.00000    30.33400     0.00000  0.0
    104    105    106    108   5     0.00000    30.33400     0.00000  0.0
    127    105    106    107   5     0.00000    30.33400     0.00000  0.0
    127    105    106    108   5     0.00000    30.33400     0.00000  0.0
    105    106    107     87   5     0.00000     3.94551     0.00000  0.0
    108    106    107     87   5     0.00000     3.94551     0.00000  0.0
    105    106    108    109   5     0.00000    30.33400     0.00000  0.0
    105    106    108    128   5     0.00000    30.33400     0.00000  0.0
    107    106    108    109   5     0.00000    30.33400     0.00000  0.0
    107    106    108    128   5     0.00000    30.33400     0.00000  0.0
    106    108    109    110   5     0.00000    30.33400     0.00000  0.0
    106    108    109    129   5     0.00000    30.33400     0.00000  0.0
    128    108    109    110   5     0.00000    30.33400     0.00000  0.0
    128    108    109    129   5     0.00000    30.33400     0.00000  0.0
    108    109    110    104   5     0.00000    30.33400     0.00000  0.0
    108    109    110    111   5     0.00000    30.33400     0.00000  0.0
    129    109    110    104   5     0.00000    30.33400     0.00000  0.0
    129    109    110    111   5     0.00000    30.33400     0.00000  0.0
    104    110    111    112   5     0.00000     8.78640     0.00000  0.0
    104    110    111    113   5     0.00000     4.73629     0.00000  0.0
    109    110    111    112   5     0.00000     8.78640     0.00000  0.0
    109    110    111    113   5     0.00000     4.73629     0.00000  0.0
    110    111    113    114   5     0.00000     4.73629     0.00000  0.0
    110    111    113    125   5     0.00000     4.73629     0.00000  0.0
    112    111    113    114   5     0.00000     8.78640     0.00000  0.0
    112    111    113    125   5     0.00000     8.78640     0.00000  0.0
    111    113    114    115   5     0.00000    30.33400     0.00000  0.0
    111    113    114    130   5     0.00000    30.33400     0.00000  0.0
    125    113    114    115   5     0.00000    30.33400     0.00000  0.0
    125    113    114    130   5     0.00000    30.33400     0.00000  0.0
    111    113    125    124   5     0.00000    30.33400     0.00000  0.0
    111    113    125    137   5     0.00000    30.33400     0.00000  0.0
    114    113    125    124   5     0.00000    30.33400     0.00000  0.0
    114    113    125    137   5     0.00000    30.33400     0.00000  0.0
    113    114    115    116   5     0.00000    30.33400     0.00000  0.0
    113    114    115    131   5     0.00000    30.33400     0.00000  0.0
    130    114    115    116   5     0.00000    30.33400     0.00000  0.0
    130    114    115    131   5     0.00000    30.33400     0.00000  0.0
    114    115    116    117   5     0.00000    30.33400     0.00000  0.0
    114    115    116    124   5     0.00000    30.33400     0.00000  0.0
    131    115    116    117   5     0.00000    30.33400     0.00000  0.0
    131    115    116    124   5     0.00000    30.33400     0.00000  0.0
    115    116    117    118   5     0.00000     3.94551     0.00000  0.0
    124    116    117    118   5     0.00000     3.94551     0.00000  0.0
    115    116    124    125   5     0.00000    30.33400     0.00000  0.0
    115    116    124    136   5     0.00000    30.33400     0.00000  0.0
    117    116    124    125   5     0.00000    30.33400     0.00000  0.0
    117    116    124    136   5     0.00000    30.33400     0.00000  0.0
    116    117    118    119   5     0.00000     3.94551     0.00000  0.0
    116    117    118    123   5     0.00000     3.94551     0.00000  0.0
    117    118    119    120   5     0.00000    30.33400     0.00000  0.0
    117    118    119    132   5     0.00000    30.33400     0.00000  0.0
    123    118    119    120   5     0.00000    30.33400     0.00000  0.0
    123    118    119    132   5     0.00000    30.33400     0.00000  0.0
    117    118    123    122   5     0.00000    30.33400     0.00000  0.0
    117    118    123    135   5     0.00000    30.33400     0.00000  0.0
    119    118    123    122   5     0.00000    30.33400     0.00000  0.0
    119    118    123    135   5     0.00000    30.33400     0.00000  0.0
    118    119    120    121   5     0.00000    30.33400     0.00000  0.0
    118    119    120    133   5     0.00000    30.33400     0.00000  0.0
    132    119    120    121   5     0.00000    30.33400     0.00000  0.0
    132    119    120    133   5     0.00000    30.33400     0.00000  0.0
    119    120    121    122   5     0.00000    30.33400     0.00000  0.0
    119    120    121    141   5     0.00000    30.33400     0.00000  0.0
    133    120    121    122   5     0.00000    30.33400     0.00000  0.0
    133    120    121    141   5     0.00000    30.33400     0.00000  0.0
    120    121    122    123   5     0.00000    30.33400     0.00000  0.0
    120    121    122    134   5     0.00000    30.33400     0.00000  0.0
    141    121    122    123   5     0.00000    30.33400     0.00000  0.0
    141    121    122    134   5     0.00000    30.33400     0.00000  0.0
    120    121    141    140   5     0.00000     3.94551     0.00000  0.0
    122    121    141    140   5     0.00000     3.94551     0.00000  0.0
    121    122    123    118   5     0.00000    30.33400     0.00000  0.0
    121    122    123    135   5     0.00000    30.33400     0.00000  0.0
    134    122    123    118   5     0.00000    30.33400     0.00000  0.0
    134    122    123    135   5     0.00000    30.33400     0.00000  0.0
    116    124    125    113   5     0.00000    30.33400     0.00000  0.0
    116    124    125    137   5     0.00000    30.33400     0.00000  0.0
    136    124    125    113   5     0.00000    30.33400     0.00000  0.0
    136    124    125    137   5     0.00000    30.33400     0.00000  0.0
    144    138    139    140   5     0.00000    30.33400     0.00000  0.0
    144    138    139    161   5     0.00000    30.33400     0.00000  0.0
    160    138    139    140   5     0.00000    30.33400     0.00000  0.0
    160    138    139    161   5     0.00000    30.33400     0.00000  0.0
    139    138    144    143   5     0.00000    30.33400     0.00000  0.0
    139    138    144    145   5     0.00000    30.33400     0.00000  0.0
    160    138    144    143   5     0.00000    30.33400     0.00000  0.0
    160    138    144    145   5     0.00000    30.33400     0.00000  0.0
    138    139    140    141   5     0.00000    30.33400     0.00000  0.0
    138    139    140    142   5     0.00000    30.33400     0.00000  0.0
    161    139    140    141   5     0.00000    30.33400     0.00000  0.0
    161    139    140    142   5     0.00000    30.33400     0.00000  0.0
    139    140    141    121   5     0.00000     3.94551     0.00000  0.0
    142    140    141    121   5     0.00000     3.94551     0.00000  0.0
    139    140    142    143   5     0.00000    30.33400     0.00000  0.0
    139    140    142    162   5     0.00000    30.33400     0.00000  0.0
    141    140    142    143   5     0.00000    30.33400     0.00000  0.0
    141    140    142    162   5     0.00000    30.33400     0.00000  0.0
    140    142    143    144   5     0.00000    30.33400     0.00000  0.0
    140    142    143    163   5     0.00000    30.33400     0.00000  0.0
    162    142    143    144   5     0.00000    30.33400     0.00000  0.0
    162    142    143    163   5     0.00000    30.33400     0.00000  0.0
    142    143    144    138   5     0.00000    30.33400     0.00000  0.0
    142    143    144    145   5     0.00000    30.33400     0.00000  0.0
    163    143    144    138   5     0.00000    30.33400     0.00000  0.0
    163    143    144    145   5     0.00000    30.33400     0.00000  0.0
    138    144    145    146   5     0.00000     8.78640     0.00000  0.0
    138    144    145    147   5     0.00000     4.73629     0.00000  0.0
    143    144    145    146   5     0.00000     8.78640     0.00000  0.0
    143    144    145    147   5     0.00000     4.73629     0.00000  0.0
    144    145    147    148   5     0.00000     4.73629     0.00000  0.0
    144    145    147    159   5     0.00000     4.73629     0.00000  0.0
    146    145    147    148   5     0.00000     8.78640     0.00000  0.0
    146    145    147    159   5     0.00000     8.78640     0.00000  0.0
    145    147    148    149   5     0.00000    30.33400     0.00000  0.0
    145    147    148    164   5     0.00000    30.33400     0.00000  0.0
    159    147    148    149   5     0.00000    30.33400     0.00000  0.0
    159    147    148    164   5     0.00000    30.33400     0.00000  0.0
    145    147    159    158   5     0.00000    30.33400     0.00000  0.0
    145    147    159    171   5     0.00000    30.33400     0.00000  0.0
    148    147    159    158   5     0.00000    30.33400     0.00000  0.0
    148    147    159    171   5     0.00000    30.33400     0.00000  0.0
    147    148    149    150   5     0.00000    30.33400     0.00000  0.0
    147    148    149    165   5     0.00000    30.33400     0.00000  0.0
    164    148    149    150   5     0.00000    30.33400     0.00000  0.0
    164    148    149    165   5     0.00000    30.33400     0.00000  0.0
    148    149    150    151   5     0.00000    30.33400     0.00000  0.0
    148    149    150    158   5     0.00000    30.33400     0.00000  0.0
    165    149    150    151   5     0.00000    30.33400     0.00000  0.0
    165    149    150    158   5     0.00000    30.33400     0.00000  0.0
    149    150    151    152   5     0.00000     3.94551     0.00000  0.0
    158    150    151    152   5     0.00000     3.94551     0.00000  0.0
    149    150    158    159   5     0.00000    30.33400     0.00000  0.0
    149    150    158    170   5     0.00000    30.33400     0.00000  0.0
    151    150    158    159   5     0.00000    30.33400     0.00000  0.0
    151    150    158    170   5     0.00000    30.33400     0.00000  0.0
    150    151    152    153   5     0.00000     3.94551     0.00000  0.0
    150    151    152    157   5     0.00000     3.94551     0.00000  0.0
    151    152    153    154   5     0.00000    30.33400     0.00000  0.0
    151    152    153    166   5     0.00000    30.33400     0.00000  0.0
    157    152    153    154   5     0.00000    30.33400     0.00000  0.0
    157    152    153    166   5     0.00000    30.33400     0.00000  0.0
    151    152    157    156   5     0.00000    30.33400     0.00000  0.0
    151    152    157    169   5     0.00000    30.33400     0.00000  0.0
    153    152    157    156   5     0.00000    30.33400     0.00000  0.0
    153    152    157    169   5     0.00000    30.33400     0.00000  0.0
    152    153    154    155   5     0.00000    30.33400     0.00000  0.0
    152    153    154    167   5     0.00000    30.33400     0.00000  0.0
    166    153    154    155   5     0.00000    30.33400     0.00000  0.0
    166    153    154    167   5     0.00000    30.33400     0.00000  0.0
    153    154    155    156   5     0.00000    30.33400     0.00000  0.0
    153    154    155    175   5     0.00000    30.33400     0.00000  0.0
    167    154    155    156   5     0.00000    30.33400     0.00000  0.0
    167    154    155    175   5     0.00000    30.33400     0.00000  0.0
    154    155    156    157   5     0.00000    30.33400     0.00000  0.0
    154    155    156    168   5     0.00000    30.33400     0.00000  0.0
    175    155    156    157   5     0.00000    30.33400     0.00000  0.0
    175    155    156    168   5     0.00000    30.33400     0.00000  0.0
    154    155    175    174   5     0.00000     3.94551     0.00000  0.0
    156    155    175    174   5     0.00000     3.94551     0.00000  0.0
    155    156    157    152   5     0.00000    30.33400     0.00000  0.0
    155    156    157    169   5     0.00000    30.33400     0.00000  0.0
    168    156    157    152   5     0.00000    30.33400     0.00000  0.0
    168    156    157    169   5     0.00000    30.33400     0.00000  0.0
    150    158    159    147   5     0.00000    30.33400     0.00000  0.0
    150    158    159    171   5     0.00000    30.33400     0.00000  0.0
    170    158    159    147   5     0.00000    30.33400     0.00000  0.0
    170    158    159    171   5     0.00000    30.33400     0.00000  0.0
    178    172    173    174   5     0.00000    30.33400     0.00000  0.0
    178    172    173    195   5     0.00000    30.33400     0.00000  0.0
    194    172    173    174   5     0.00000    30.33400     0.00000  0.0
    194    172    173    195   5     0.00000    30.33400     0.00000  0.0
    173    172    178    177   5     0.00000    30.33400     0.00000  0.0
    173    172    178    179   5     0.00000    30.33400     0.00000  0.0
    194    172    178    177   5     0.00000    30.33400     0.00000  0.0
    194    172    178    179   5     0.00000    30.33400     0.00000  0.0
    172    173    174    175   5     0.00000    30.33400     0.00000  0.0
    172    173    174    176   5     0.00000    30.33400     0.00000  0.0
    195    173    174    175   5     0.00000    30.33400     0.00000  0.0
    195    173    174    176   5     0.00000    30.33400     0.00000  0.0
    173    174    175    155   5     0.00000     3.94551     0.00000  0.0
    176    174    175    155   5     0.00000     3.94551     0.00000  0.0
    173    174    176    177   5     0.00000    30.33400     0.00000  0.0
    173    174    176    196   5     0.00000    30.33400     0.00000  0.0
    175    174    176    177   5     0.00000    30.33400     0.00000  0.0
    175    174    176    196   5     0.00000    30.33400     0.00000  0.0
    174    176    177    178   5     0.00000    30.33400     0.00000  0.0
    174    176    177    197   5     0.00000    30.33400     0.00000  0.0
    196    176    177    178   5     0.00000    30.33400     0.00000  0.0
    196    176    177    197   5     0.00000    30.33400     0.00000  0.0
    176    177    178    172   5     0.00000    30.33400     0.00000  0.0
    176    177    178    179   5     0.00000    30.33400     0.00000  0.0
    197    177    178    172   5     0.00000    30.33400     0.00000  0.0
    197    177    178    179   5     0.00000    30.33400     0.00000  0.0
    172    178    179    180   5     0.00000     8.78640     0.00000  0.0
    172    178    179    181   5     0.00000     4.73629     0.00000  0.0
    177    178    179    180   5     0.00000     8.78640     0.00000  0.0
    177    178    179    181   5     0.00000     4.73629     0.00000  0.0
    178    179    181    182   5     0.00000     4.73629     0.00000  0.0
    178    179    181    193   5     0.00000     4.73629     0.00000  0.0
    180    179    181    182   5     0.00000     8.78640     0.00000  0.0
    180    179    181    193   5     0.00000     8.78640     0.00000  0.0
    179    181    182    183   5     0.00000    30.33400     0.00000  0.0
    179    181    182    198   5     0.00000    30.33400     0.00000  0.0
    193    181    182    183   5     0.00000    30.33400     0.00000  0.0
    193    181    182    198   5     0.00000    30.33400     0.00000  0.0
    179    181    193    192   5     0.00000    30.33400     0.00000  0.0
    179    181    193    205   5     0.00000    30.33400     0.00000  0.0
    182    181    193    192   5     0.00000    30.33400     0.00000  0.0
    182    181    193    205   5     0.00000    30.33400     0.00000  0.0
    181    182    183    184   5     0.00000    30.33400     0.00000  0.0
    181    182    183    199   5     0.00000    30.33400     0.00000  0.0
    198    182    183    184   5     0.00000    30.33400     0.00000  0.0
    198    182    183    199   5     0.00000    30.33400     0.00000  0.0
    182    183    184    185   5     0.00000    30.33400     0.00000  0.0
    182    183    184    192   5     0.00000    30.33400     0.00000  0.0
    199    183    184    185   5     0.00000    30.33400     0.00000  0.0
    199    183    184    192   5     0.00000    30.33400     0.00000  0.0
    183    184    185    186   5     0.00000     3.94551     0.00000  0.0
    192    184    185    186   5     0.00000     3.94551     0.00000  0.0
    183    184    192    193   5     0.00000    30.33400     0.00000  0.0
    183    184    192    204   5     0.00000    30.33400     0.00000  0.0
    185    184    192    193   5     0.00000    30.33400     0.00000  0.0
    185    184    192    204   5     0.00000    30.33400     0.00000  0.0
    184    185    186    187   5     0.00000     3.94551     0.00000  0.0
    184    185    186    191   5     0.00000     3.94551     0.00000  0.0
    185    186    187    188   5     0.00000    30.33400     0.00000  0.0
    185    186    187    200   5     0.00000    30.33400     0.00000  0.0
    191    186    187    188   5     0.00000    30.33400     0.00000  0.0
    191    186    187    200   5     0.00000    30.33400     0.00000  0.0
    185    186    191    190   5     0.00000    30.33400     0.00000  0.0
    185    186    191    203   5     0.00000    30.33400     0.00000  0.0
    187    186    191    190   5     0.00000    30.33400     0.00000  0.0
    187    186    191    203   5     0.00000    30.33400     0.00000  0.0
    186    187    188    189   5     0.00000    30.33400     0.00000  0.0
    186    187    188    201   5     0.00000    30.33400     0.00000  0.0
    200    187    188    189   5     0.00000    30.33400     0.00000  0.0
    200    187    188    201   5     0.00000    30.33400     0.00000  0.0
    187    188    189    190   5     0.00000    30.33400     0.00000  0.0
    187    188    189    209   5     0.00000    30.33400     0.00000  0.0
    201    188    189    190   5     0.00000    30.33400     0.00000  0.0
    201    188    189    209   5     0.00000    30.33400     0.00000  0.0
    188    189    190    191   5     0.00000    30.33400     0.00000  0.0
    188    189    190    202   5     0.00000    30.33400     0.00000  0.0
    209    189    190    191   5     0.00000    30.33400     0.00000  0.0
    209    189    190    202   5     0.00000    30.33400     0.00000  0.0
    188    189    209    208   5     0.00000     3.94551     0.00000  0.0
    190    189    209    208   5     0.00000     3.94551     0.00000  0.0
    189    190    191    186   5     0.00000    30.33400     0.00000  0.0
    189    190    191    203   5     0.00000    30.33400     0.00000  0.0
    202    190    191    186   5     0.00000    30.33400     0.00000  0.0
    202    190    191    203   5     0.00000    30.33400     0.00000  0.0
    184    192    193    181   5     0.00000    30.33400     0.00000  0.0
    184    192    193    205   5     0.00000    30.33400     0.00000  0.0
    204    192    193    181   5     0.00000    30.33400     0.00000  0.0
    204    192    193    205   5     0.00000    30.33400     0.00000  0.0
    212    206    207    208   5     0.00000    30.33400     0.00000  0.0
    212    206    207    229   5     0.00000    30.33400     0.00000  0.0
    228    206    207    208   5     0.00000    30.33400     0.00000  0.0
    228    206    207    229   5     0.00000    30.33400     0.00000  0.0
    207    206    212    211   5     0.00000    30.33400     0.00000  0.0
    207    206    212    213   5     0.00000    30.33400     0.00000  0.0
    228    206    212    211   5     0.00000    30.33400     0.00000  0.0
    228    206    212    213   5     0.00000    30.33400     0.00000  0.0
    206    207    208    209   5     0.00000    30.33400     0.00000  0.0
    206    207    208    210   5     0.00000    30.33400     0.00000  0.0
    229    207    208    209   5     0.00000    30.33400     0.00000  0.0
    229    207    208    210   5     0.00000    30.33400     0.00000  0.0
    207    208    209    189   5     0.00000     3.94551     0.00000  0.0
    210    208    209    189   5     0.00000     3.94551     0.00000  0.0
    207    208    210    211   5     0.00000    30.33400     0.00000  0.0
    207    208    210    230   5     0.00000    30.33400     0.00000  0.0
    209    208    210    211   5     0.00000    30.33400     0.00000  0.0
    209    208    210    230   5     0.00000    30.33400     0.00000  0.0
    208    210    211    212   5     0.00000    30.33400     0.00000  0.0
    208    210    211    231   5     0.00000    30.33400     0.00000  0.0
    230    210    211    212   5     0.00000    30.33400     0.00000  0.0
    230    210    211    231   5     0.00000    30.33400     0.00000  0.0
    210    211    212    206   5     0.00000    30.33400     0.00000  0.0
    210    211    212    213   5     0.00000    30.33400     0.00000  0.0
    231    211    212    206   5     0.00000    30.33400     0.00000  0.0
    231    211    212    213   5     0.00000    30.33400     0.00000  0.0
    206    212    213    214   5     0.00000     8.78640     0.00000  0.0
    206    212    213    215   5     0.00000     4.73629     0.00000  0.0
    211    212    213    214   5     0.00000     8.78640     0.00000  0.0
    211    212    213    215   5     0.00000     4.73629     0.00000  0.0
    212    213    215    216   5     0.00000     4.73629     0.00000  0.0
    212    213    215    227   5     0.00000     4.73629     0.00000  0.0
    214    213    215    216   5     0.00000     8.78640     0.00000  0.0
    214    213    215    227   5     0.00000     8.78640     0.00000  0.0
    213    215    216    217   5     0.00000    30.33400     0.00000  0.0
    213    215    216    232   5     0.00000    30.33400     0.00000  0.0
    227    215    216    217   5     0.00000    30.33400     0.00000  0.0
    227    215    216    232   5     0.00000    30.33400     0.00000  0.0
    213    215    227    226   5     0.00000    30.33400     0.00000  0.0
    213    215    227    239   5     0.00000    30.33400     0.00000  0.0
    216    215    227    226   5     0.00000    30.33400     0.00000  0.0
    216    215    227    239   5     0.00000    30.33400     0.00000  0.0
    215    216    217    218   5     0.00000    30.33400     0.00000  0.0
    215    216    217    233   5     0.00000    30.33400     0.00000  0.0
    232    216    217    218   5     0.00000    30.33400     0.00000  0.0
    232    216    217    233   5     0.00000    30.33400     0.00000  0.0
    216    217    218    219   5     0.00000    30.33400     0.00000  0.0
    216    217    218    226   5     0.00000    30.33400     0.00000  0.0
    233    217    218    219   5     0.00000    30.33400     0.00000  0.0
    233    217    218    226   5     0.00000    30.33400     0.00000  0.0
    217    218    219    220   5     0.00000     3.94551     0.00000  0.0
    226    218    219    220   5     0.00000     3.94551     0.00000  0.0
    217    218    226    227   5     0.00000    30.33400     0.00000  0.0
    217    218    226    238   5     0.00000    30.33400     0.00000  0.0
    219    218    226    227   5     0.00000    30.33400     0.00000  0.0
    219    218    226    238   5     0.00000    30.33400     0.00000  0.0
    218    219    220    221   5     0.00000     3.94551     0.00000  0.0
    218    219    220    225   5     0.00000     3.94551     0.00000  0.0
    219    220    221    222   5     0.00000    30.33400     0.00000  0.0
    219    220    221    234   5     0.00000    30.33400     0.00000  0.0
    225    220    221    222   5     0.00000    30.33400     0.00000  0.0
    225    220    221    234   5     0.00000    30.33400     0.00000  0.0
    219    220    225    224   5     0.00000    30.33400     0.00000  0.0
    219    220    225    237   5     0.00000    30.33400     0.00000  0.0
    221    220    225    224   5     0.00000    30.33400     0.00000  0.0
    221    220    225    237   5     0.00000    30.33400     0.00000  0.0
    220    221    222    223   5     0.00000    30.33400     0.00000  0.0
    220    221    222    235   5     0.00000    30.33400     0.00000  0.0
    234    221    222    223   5     0.00000    30.33400     0.00000  0.0
    234    221    222    235   5     0.00000    30.33400     0.00000  0.0
    221    222    223    224   5     0.00000    30.33400     0.00000  0.0
    221    222    223    243   5     0.00000    30.33400     0.00000  0.0
    235    222    223    224   5     0.00000    30.33400     0.00000  0.0
    235    222    223    243   5     0.00000    30.33400     0.00000  0.0
    222    223    224    225   5     0.00000    30.33400     0.00000  0.0
    222    223    224    236   5     0.00000    30.33400     0.00000  0.0
    243    223    224    225   5     0.00000    30.33400     0.00000  0.0
    243    223    224    236   5     0.00000    30.33400     0.00000  0.0
    222    223    243    242   5     0.00000     3.94551     0.00000  0.0
    224    223    243    242   5     0.00000     3.94551     0.00000  0.0
    223    224    225    220   5     0.00000    30.33400     0.00000  0.0
    223    224    225    237   5     0.00000    30.33400     0.00000  0.0
    236    224    225    220   5     0.00000    30.33400     0.00000  0.0
    236    224    225    237   5     0.00000    30.33400     0.00000  0.0
    218    226    227    215   5     0.00000    30.33400     0.00000  0.0
    218    226    227    239   5     0.00000    30.33400     0.00000  0.0
    238    226    227    215   5     0.00000    30.33400     0.00000  0.0
    238    226    227    239   5     0.00000    30.33400     0.00000  0.0
    246    240    241    242   5     0.00000    30.33400     0.00000  0.0
    246    240    241    263   5     0.00000    30.33400     0.00000  0.0
    262    240    241    242   5     0.00000    30.33400     0.00000  0.0
    262    240    241    263   5     0.00000    30.33400     0.00000  0.0
    241    240    246    245   5     0.00000    30.33400     0.00000  0.0
    241    240    246    247   5     0.00000    30.33400     0.00000  0.0
    262    240    246    245   5     0.00000    30.33400     0.00000  0.0
    262    240    246    247   5     0.00000    30.33400     0.00000  0.0
    240    241    242    243   5     0.00000    30.33400     0.00000  0.0
    240    241    242    244   5     0.00000    30.33400     0.00000  0.0
    263    241    242    243   5     0.00000    30.33400     0.00000  0.0
    263    241    242    244   5     0.00000    30.33400     0.00000  0.0
    241    242    243    223   5     0.00000     3.94551     0.00000  0.0
    244    242    243    223   5     0.00000     3.94551     0.00000  0.0
    241    242    244    245   5     0.00000    30.33400     0.00000  0.0
    241    242    244    264   5     0.00000    30.33400     0.00000  0.0
    243    242    244    245   5     0.00000    30.33400     0.00000  0.0
    243    242    244    264   5     0.00000    30.33400     0.00000  0.0
    242    244    245    246   5     0.00000    30.33400     0.00000  0.0
    242    244    245    265   5     0.00000    30.33400     0.00000  0.0
    264    244    245    246   5     0.00000    30.33400     0.00000  0.0
    264    244    245    265   5     0.00000    30.33400     0.00000  0.0
    244    245    246    240   5     0.00000    30.33400     0.00000  0.0
    244    245    246    247   5     0.00000    30.33400     0.00000  0.0
    265    245    246    240   5     0.00000    30.33400     0.00000  0.0
    265    245    246    247   5     0.00000    30.33400     0.00000  0.0
    240    246    247    248   5     0.00000     8.78640     0.00000  0.0
    240    246    247    249   5     0.00000     4.73629     0.00000  0.0
    245    246    247    248   5     0.00000     8.78640     0.00000  0.0
    245    246    247    249   5     0.00000     4.73629     0.00000  0.0
    246    247    249    250   5     0.00000     4.73629     0.00000  0.0
    246    247    249    261   5     0.00000     4.73629     0.00000  0.0
    248    247    249    250   5     0.00000     8.78640     0.00000  0.0
    248    247    249    261   5     0.00000     8.78640     0.00000  0.0
    247    249    250    251   5     0.00000    30.33400     0.00000  0.0
    247    249    250    266   5     0.00000    30.33400     0.00000  0.0
    261    249    250    251   5     0.00000    30.33400     0.00000  0.0
    261    249    250    266   5     0.00000    30.33400     0.00000  0.0
    247    249    261    260   5     0.00000    30.33400     0.00000  0.0
    247    249    261    273   5     0.00000    30.33400     0.00000  0.0
    250    249    261    260   5     0.00000    30.33400     0.00000  0.0
    250    249    261    273   5     0.00000    30.33400     0.00000  0.0
    249    250    251    252   5     0.00000    30.33400     0.00000  0.0
    249    250    251    267   5     0.00000    30.33400     0.00000  0.0
    266    250    251    252   5     0.00000    30.33400     0.00000  0.0
    266    250    251    267   5     0.00000    30.33400     0.00000  0.0
    250    251    252    253   5     0.00000    30.33400     0.00000  0.0
    250    251    252    260   5     0.00000    30.33400     0.00000  0.0
    267    251    252    253   5     0.00000    30.33400     0.00000  0.0
    267    251    252    260   5     0.00000    30.33400     0.00000  0.0
    251    252    253    254   5     0.00000     3.94551     0.00000  0.0
    260    252    253    254   5     0.00000     3.94551     0.00000  0.0
    251    252    260    261   5     0.00000    30.33400     0.00000  0.0
    251    252    260    272   5     0.00000    30.33400     0.00000  0.0
    253    252    260    261   5     0.00000    30.33400     0.00000  0.0
    253    252    260    272   5     0.00000    30.33400     0.00000  0.0
    252    253    254    255   5     0.00000     3.94551     0.00000  0.0
    252    253    254    259   5     0.00000     3.94551     0.00000  0.0
    253    254    255    256   5     0.00000    30.33400     0.00000  0.0
    253    254    255    268   5     0.00000    30.33400     0.00000  0.0
    259    254    255    256   5     0.00000    30.33400     0.00000  0.0
    259    254    255    268   5     0.00000    30.33400     0.00000  0.0
    253    254    259    258   5     0.00000    30.33400     0.00000  0.0
    253    254    259    271   5     0.00000    30.33400     0.00000  0.0
    255    254    259    258   5     0.00000    30.33400     0.00000  0.0
    255    254    259    271   5     0.00000    30.33400     0.00000  0.0
    254    255    256    257   5     0.00000    30.33400     0.00000  0.0
    254    255    256    269   5     0.00000    30.33400     0.00000  0.0
    268    255    256    257   5     0.00000    30.33400     0.00000  0.0
    268    255    256    269   5     0.00000    30.33400     0.00000  0.0
    255    256    257    258   5     0.00000    30.33400     0.00000  0.0
    255    256    257    277   5     0.00000    30.33400     0.00000  0.0
    269    256    257    258   5     0.00000    30.33400     0.00000  0.0
    269    256    257    277   5     0.00000    30.33400     0.00000  0.0
    256    257    258    259   5     0.00000    30.33400     0.00000  0.0
    256    257    258    270   5     0.00000    30.33400     0.00000  0.0
    277    257    258    259   5     0.00000    30.33400     0.00000  0.0
    277    257    258    270   5     0.00000    30.33400     0.00000  0.0
    256    257    277    276   5     0.00000     3.94551     0.00000  0.0
    258    257    277    276   5     0.00000     3.94551     0.00000  0.0
    257    258    259    254   5     0.00000    30.33400     0.00000  0.0
    257    258    259    271   5     0.00000    30.33400     0.00000  0.0
    270    258    259    254   5     0.00000    30.33400     0.00000  0.0
    270    258    259    271   5     0.00000    30.33400     0.00000  0.0
    252    260    261    249   5     0.00000    30.33400     0.00000  0.0
    252    260    261    273   5     0.00000    30.33400     0.00000  0.0
    272    260    261    249   5     0.00000    30.33400     0.00000  0.0
    272    260    261    273   5     0.00000    30.33400     0.00000  0.0
    280    274    275    276   5     0.00000    30.33400     0.00000  0.0
    280    274    275    297   5     0.00000    30.33400     0.00000  0.0
    296    274    275    276   5     0.00000    30.33400     0.00000  0.0
    296    274    275    297   5     0.00000    30.33400     0.00000  0.0
    275    274    280    279   5     0.00000    30.33400     0.00000  0.0
    275    274    280    281   5     0.00000    30.33400     0.00000  0.0
    296    274    280    279   5     0.00000    30.33400     0.00000  0.0
    296    274    280    281   5     0.00000    30.33400     0.00000  0.0
    274    275    276    277   5     0.00000    30.33400     0.00000  0.0
    274    275    276    278   5     0.00000    30.33400     0.00000  0.0
    297    275    276    277   5     0.00000    30.33400     0.00000  0.0
    297    275    276    278   5     0.00000    30.33400     0.00000  0.0
    275    276    277    257   5     0.00000     3.94551     0.00000  0.0
    278    276    277    257   5     0.00000     3.94551     0.00000  0.0
    275    276    278    279   5     0.00000    30.33400     0.00000  0.0
    275    276    278    298   5     0.00000    30.33400     0.00000  0.0
    277    276    278    279   5     0.00000    30.33400     0.00000  0.0
    277    276    278    298   5     0.00000    30.33400     0.00000  0.0
    276    278    279    280   5     0.00000    30.33400     0.00000  0.0
    276    278    279    299   5     0.00000    30.33400     0.00000  0.0
    298    278    279    280   5     0.00000    30.33400     0.00000  0.0
    298    278    279    299   5     0.00000    30.33400     0.00000  0.0
    278    279    280    274   5     0.00000    30.33400     0.00000  0.0
    278    279    280    281   5     0.00000    30.33400     0.00000  0.0
    299    279    280    274   5     0.00000    30.33400     0.00000  0.0
    299    279    280    281   5     0.00000    30.33400     0.00000  0.0
    274    280    281    282   5     0.00000     8.78640     0.00000  0.0
    274    280    281    283   5     0.00000     4.73629     0.00000  0.0
    279    280    281    282   5     0.00000     8.78640     0.00000  0.0
    279    280    281    283   5     0.00000     4.73629     0.00000  0.0
    280    281    283    284   5     0.00000     4.73629     0.00000  0.0
    280    281    283    295   5     0.00000     4.73629     0.00000  0.0
    282    281    283    284   5     0.00000     8.78640     0.00000  0.0
    282    281    283    295   5     0.00000     8.78640     0.00000  0.0
    281    283    284    285   5     0.00000    30.33400     0.00000  0.0
    281    283    284    300   5     0.00000    30.33400     0.00000  0.0
    295    283    284    285   5     0.00000    30.33400     0.00000  0.0
    295    283    284    300   5     0.00000    30.33400     0.00000  0.0
    281    283    295    294   5     0.00000    30.33400     0.00000  0.0
    281    283    295    307   5     0.00000    30.33400     0.00000  0.0
    284    283    295    294   5     0.00000    30.33400     0.00000  0.0
    284    283    295    307   5     0.00000    30.33400     0.00000  0.0
    283    284    285    286   5     0.00000    30.33400     0.00000  0.0
    283    284    285    301   5     0.00000    30.33400     0.00000  0.0
    300    284    285    286   5     0.00000    30.33400     0.00000  0.0
    300    284    285    301   5     0.00000    30.33400     0.00000  0.0
    284    285    286    287   5     0.00000    30.33400     0.00000  0.0
    284    285    286    294   5     0.00000    30.33400     0.00000  0.0
    301    285    286    287   5     0.00000    30.33400     0.00000  0.0
    301    285    286    294   5     0.00000    30.33400     0.00000  0.0
    285    286    287    288   5     0.00000     3.94551     0.00000  0.0
    294    286    287    288   5     0.00000     3.94551     0.00000  0.0
    285    286    294    295   5     0.00000    30.33400     0.00000  0.0
    285    286    294    306   5     0.00000    30.33400     0.00000  0.0
    287    286    294    295   5     0.00000    30.33400     0.00000  0.0
    287    286    294    306   5     0.00000    30.33400     0.00000  0.0
    286    287    288    289   5     0.00000     3.94551     0.00000  0.0
    286    287    288    293   5     0.00000     3.94551     0.00000  0.0
    287    288    289    290   5     0.00000    30.33400     0.00000  0.0
    287    288    289    302   5     0.00000    30.33400     0.00000  0.0
    293    288    289    290   5     0.00000    30.33400     0.00000  0.0
    293    288    289    302   5     0.00000    30.33400     0.00000  0.0
    287    288    293    292   5     0.00000    30.33400     0.00000  0.0
    287    288    293    305   5     0.00000    30.33400     0.00000  0.0
    289    288    293    292   5     0.00000    30.33400     0.00000  0.0
    289    288    293    305   5     0.00000    30.33400     0.00000  0.0
    288    289    290    291   5     0.00000    30.33400     0.00000  0.0
    288    289    290    303   5     0.00000    30.33400     0.00000  0.0
    302    289    290    291   5     0.00000    30.33400     0.00000  0.0
    302    289    290    303   5     0.00000    30.33400     0.00000  0.0
    289    290    291    292   5     0.00000    30.33400     0.00000  0.0
    289    290    291    311   5     0.00000    30.33400     0.00000  0.0
    303    290    291    292   5     0.00000    30.33400     0.00000  0.0
    303    290    291    311   5     0.00000    30.33400     0.00000  0.0
    290    291    292    293   5     0.00000    30.33400     0.00000  0.0
    290    291    292    304   5     0.00000    30.33400     0.00000  0.0
    311    291    292    293   5     0.00000    30.33400     0.00000  0.0
    311    291    292    304   5     0.00000    30.33400     0.00000  0.0
    290    291    311    310   5     0.00000     3.94551     0.00000  0.0
    292    291    311    310   5     0.00000     3.94551     0.00000  0.0
    291    292    293    288   5     0.00000    30.33400     0.00000  0.0
    291    292    293    305   5     0.00000    30.33400     0.00000  0.0
    304    292    293    288   5     0.00000    30.33400     0.00000  0.0
    304    292    293    305   5     0.00000    30.33400     0.00000  0.0
    286    294    295    283   5     0.00000    30.33400     0.00000  0.0
    286    294    295    307   5     0.00000    30.33400     0.00000  0.0
    306    294    295    283   5     0.00000    30.33400     0.00000  0.0
    306    294    295    307   5     0.00000    30.33400     0.00000  0.0
    314    308    309    310   5     0.00000    30.33400     0.00000  0.0
    314    308    309    331   5     0.00000    30.33400     0.00000  0.0
    330    308    309    310   5     0.00000    30.33400     0.00000  0.0
    330    308    309    331   5     0.00000    30.33400     0.00000  0.0
    309    308    314    313   5     0.00000    30.33400     0.00000  0.0
    309    308    314    315   5     0.00000    30.33400     0.00000  0.0
    330    308    314    313   5     0.00000    30.33400     0.00000  0.0
    330    308    314    315   5     0.00000    30.33400     0.00000  0.0
    308    309    310    311   5     0.00000    30.33400     0.00000  0.0
    308    309    310    312   5     0.00000    30.33400     0.00000  0.0
    331    309    310    311   5     0.00000    30.33400     0.00000  0.0
    331    309    310    312   5     0.00000    30.33400     0.00000  0.0
    309    310    311    291   5     0.00000     3.94551     0.00000  0.0
    312    310    311    291   5     0.00000     3.94551     0.00000  0.0
    309    310    312    313   5     0.00000    30.33400     0.00000  0.0
    309    310    312    332   5     0.00000    30.33400     0.00000  0.0
    311    310    312    313   5     0.00000    30.33400     0.00000  0.0
    311    310    312    332   5     0.00000    30.33400     0.00000  0.0
    310    312    313    314   5     0.00000    30.33400     0.00000  0.0
    310    312    313    333   5     0.00000    30.33400     0.00000  0.0
    332    312    313    314   5     0.00000    30.33400     0.00000  0.0
    332    312    313    333   5     0.00000    30.33400     0.00000  0.0
    312    313    314    308   5     0.00000    30.33400     0.00000  0.0
    312    313    314    315   5     0.00000    30.33400     0.00000  0.0
    333    313    314    308   5     0.00000    30.33400     0.00000  0.0
    333    313    314    315   5     0.00000    30.33400     0.00000  0.0
    308    314    315    316   5     0.00000     8.78640     0.00000  0.0
    308    314    315    317   5     0.00000     4.73629     0.00000  0.0
    313    314    315    316   5     0.00000     8.78640     0.00000  0.0
    313    314    315    317   5     0.00000     4.73629     0.00000  0.0
    314    315    317    318   5     0.00000     4.73629     0.00000  0.0
    314    315    317    329   5     0.00000     4.73629     0.00000  0.0
    316    315    317    318   5     0.00000     8.78640     0.00000  0.0
    316    315    317    329   5     0.00000     8.78640     0.00000  0.0
    315    317    318    319   5     0.00000    30.33400     0.00000  0.0
    315    317    318    334   5     0.00000    30.33400     0.00000  0.0
    329    317    318    319   5     0.00000    30.33400     0.00000  0.0
    329    317    318    334   5     0.00000    30.33400     0.00000  0.0
    315    317    329    328   5     0.00000    30.33400     0.00000  0.0
    315    317    329    341   5     0.00000    30.33400     0.00000  0.0
    318    317    329    328   5     0.00000    30.33400     0.00000  0.0
    318    317    329    341   5     0.00000    30.33400     0.00000  0.0
    317    318    319    320   5     0.00000    30.33400     0.00000  0.0
    317    318    319    335   5     0.00000    30.33400     0.00000  0.0
    334    318    319    320   5     0.00000    30.33400     0.00000  0.0
    334    318    319    335   5     0.00000    30.33400     0.00000  0.0
    318    319    320    321   5     0.00000    30.33400     0.00000  0.0
    318    319    320    328   5     0.00000    30.33400     0.00000  0.0
    335    319    320    321   5     0.00000    30.33400     0.00000  0.0
    335    319    320    328   5     0.00000    30.33400     0.00000  0.0
    319    320    321    322   5     0.00000     3.94551     0.00000  0.0
    328    320    321    322   5     0.00000     3.94551     0.00000  0.0
    319    320    328    329   5     0.00000    30.33400     0.00000  0.0
    319    320    328    340   5     0.00000    30.33400     0.00000  0.0
    321    320    328    329   5     0.00000    30.33400     0.00000  0.0
    321    320    328    340   5     0.00000    30.33400     0.00000  0.0
    320    321    322    323   5     0.00000     3.94551     0.00000  0.0
    320    321    322    327   5     0.00000     3.94551     0.00000  0.0
    321    322    323    324   5     0.00000    30.33400     0.00000  0.0
    321    322    323    336   5     0.00000    30.33400     0.00000  0.0
    327    322    323    324   5     0.00000    30.33400     0.00000  0.0
    327    322    323    336   5     0.00000    30.33400     0.00000  0.0
    321    322    327    326   5     0.00000    30.33400     0.00000  0.0
    321    322    327    339   5     0.00000    30.33400     0.00000  0.0
    323    322    327    326   5     0.00000    30.33400     0.00000  0.0
    323    322    327    339   5     0.00000    30.33400     0.00000  0.0
    322    323    324    325   5     0.00000    30.33400     0.00000  0.0
    322    323    324    337   5     0.00000    30.33400     0.00000  0.0
    336    323    324    325   5     0.00000    30.33400     0.00000  0.0
    336    323    324    337   5     0.00000    30.33400     0.00000  0.0
    323    324    325    326   5     0.00000    30.33400     0.00000  0.0
    323    324    325    345   5     0.00000    30.33400     0.00000  0.0
    337    324    325    326   5     0.00000    30.33400     0.00000  0.0
    337    324    325    345   5     0.00000    30.33400     0.00000  0.0
    324    325    326    327   5     0.00000    30.33400     0.00000  0.0
    324    325    326    338   5     0.00000    30.33400     0.00000  0.0
    345    325    326    327   5     0.00000    30.33400     0.00000  0.0
    345    325    326    338   5     0.00000    30.33400     0.00000  0.0
    324    325    345    344   5     0.00000     3.94551     0.00000  0.0
    326    325    345    344   5     0.00000     3.94551     0.00000  0.0
    325    326    327    322   5     0.00000    30.33400     0.00000  0.0
    325    326    327    339   5     0.00000    30.33400     0.00000  0.0
    338    326    327    322   5     0.00000    30.33400     0.00000  0.0
    338    326    327    339   5     0.00000    30.33400     0.00000  0.0
    320    328    329    317   5     0.00000    30.33400     0.00000  0.0
    320    328    329    341   5     0.00000    30.33400     0.00000  0.0
    340    328    329    317   5     0.00000    30.33400     0.00000  0.0
    340    328    329    341   5     0.00000    30.33400     0.00000  0.0
    348    342    343    344   5     0.00000    30.33400     0.00000  0.0
    348    342    343    365   5     0.00000    30.33400     0.00000  0.0
    364    342    343    344   5     0.00000    30.33400     0.00000  0.0
    364    342    343    365   5     0.00000    30.33400     0.00000  0.0
    343    342    348    347   5     0.00000    30.33400     0.00000  0.0
    343    342    348    349   5     0.00000    30.33400     0.00000  0.0
    364    342    348    347   5     0.00000    30.33400     0.00000  0.0
    364    342    348    349   5     0.00000    30.33400     0.00000  0.0
    342    343    344    345   5     0.00000    30.33400     0.00000  0.0
    342    343    344    346   5     0.00000    30.33400     0.00000  0.0
    365    343    344    345   5     0.00000    30.33400     0.00000  0.0
    365    343    344    346   5     0.00000    30.33400     0.00000  0.0
    343    344    345    325   5     0.00000     3.94551     0.00000  0.0
    346    344    345    325   5     0.00000     3.94551     0.00000  0.0
    343    344    346    347   5     0.00000    30.33400     0.00000  0.0
    343    344    346    366   5     0.00000    30.33400     0.00000  0.0
    345    344    346    347   5     0.00000    30.33400     0.00000  0.0
    345    344    346    366   5     0.00000    30.33400     0.00000  0.0
    344    346    347    348   5     0.00000    30.33400     0.00000  0.0
    344    346    347    367   5     0.00000    30.33400     0.00000  0.0
    366    346    347    348   5     0.00000    30.33400     0.00000  0.0
    366    346    347    367   5     0.00000    30.33400     0.00000  0.0
    346    347    348    342   5     0.00000    30.33400     0.00000  0.0
    346    347    348    349   5     0.00000    30.33400     0.00000  0.0
    367    347    348    342   5     0.00000    30.33400     0.00000  0.0
    367    347    348    349   5     0.00000    30.33400     0.00000  0.0
    342    348    349    350   5     0.00000     8.78640     0.00000  0.0
    342    348    349    351   5     0.00000     4.73629     0.00000  0.0
    347    348    349    350   5     0.00000     8.78640     0.00000  0.0
    347    348    349    351   5     0.00000     4.73629     0.00000  0.0
    348    349    351    352   5     0.00000     4.73629     0.00000  0.0
    348    349    351    363   5     0.00000     4.73629     0.00000  0.0
    350    349    351    352   5     0.00000     8.78640     0.00000  0.0
    350    349    351    363   5     0.00000     8.78640     0.00000  0.0
    349    351    352    353   5     0.00000    30.33400     0.00000  0.0
    349    351    352    368   5     0.00000    30.33400     0.00000  0.0
    363    351    352    353   5     0.00000    30.33400     0.00000  0.0
    363    351    352    368   5     0.00000    30.33400     0.00000  0.0
    349    351    363    362   5     0.00000    30.33400     0.00000  0.0
    349    351    363    375   5     0.00000    30.33400     0.00000  0.0
    352    351    363    362   5     0.00000    30.33400     0.00000  0.0
    352    351    363    375   5     0.00000    30.33400     0.00000  0.0
    351    352    353    354   5     0.00000    30.33400     0.00000  0.0
    351    352    353    369   5     0.00000    30.33400     0.00000  0.0
    368    352    353    354   5     0.00000    30.33400     0.00000  0.0
    368    352    353    369   5     0.00000    30.33400     0.00000  0.0
    352    353    354    355   5     0.00000    30.33400     0.00000  0.0
    352    353    354    362   5     0.00000    30.33400     0.00000  0.0
    369    353    354    355   5     0.00000    30.33400     0.00000  0.0
    369    353    354    362   5     0.00000    30.33400     0.00000  0.0
    353    354    355    356   5     0.00000     3.94551     0.00000  0.0
    362    354    355    356   5     0.00000     3.94551     0.00000  0.0
    353    354    362    363   5     0.00000    30.33400     0.00000  0.0
    353    354    362    374   5     0.00000    30.33400     0.00000  0.0
    355    354    362    363   5     0.00000    30.33400     0.00000  0.0
    355    354    362    374   5     0.00000    30.33400     0.00000  0.0
    354    355    356    357   5     0.00000     3.94551     0.00000  0.0
    354    355    356    361   5     0.00000     3.94551     0.00000  0.0
    355    356    357    358   5     0.00000    30.33400     0.00000  0.0
    355    356    357    370   5     0.00000    30.33400     0.00000  0.0
    361    356    357    358   5     0.00000    30.33400     0.00000  0.0
    361    356    357    370   5     0.00000    30.33400     0.00000  0.0
    355    356    361    360   5     0.00000    30.33400     0.00000  0.0
    355    356    361    373   5     0.00000    30.33400     0.00000  0.0
    357    356    361    360   5     0.00000    30.33400     0.00000  0.0
    357    356    361    373   5     0.00000    30.33400     0.00000  0.0
    356    357    358    359   5     0.00000    30.33400     0.00000  0.0
    356    357    358    371   5     0.00000    30.33400     0.00000  0.0
    370    357    358    359   5     0.00000    30.33400     0.00000  0.0
    370    357    358    371   5     0.00000    30.33400     0.00000  0.0
    357    358    359    360   5     0.00000    30.33400     0.00000  0.0
    357    358    359    379   5     0.00000    30.33400     0.00000  0.0
    371    358    359    360   5     0.00000    30.33400     0.00000  0.0
    371    358    359    379   5     0.00000    30.33400     0.00000  0.0
    358    359    360    361   5     0.00000    30.33400     0.00000  0.0
    358    359    360    372   5     0.00000    30.33400     0.00000  0.0
    379    359    360    361   5     0.00000    30.33400     0.00000  0.0
    379    359    360    372   5     0.00000    30.33400     0.00000  0.0
    358    359    379    378   5     0.00000     3.94551     0.00000  0.0
    360    359    379    378   5     0.00000     3.94551     0.00000  0.0
    359    360    361    356   5     0.00000    30.33400     0.00000  0.0
    359    360    361    373   5     0.00000    30.33400     0.00000  0.0
    372    360    361    356   5     0.00000    30.33400     0.00000  0.0
    372    360    361    373   5     0.00000    30.33400     0.00000  0.0
    354    362    363    351   5     0.00000    30.33400     0.00000  0.0
    354    362    363    375   5     0.00000    30.33400     0.00000  0.0
    374    362    363    351   5     0.00000    30.33400     0.00000  0.0
    374    362    363    375   5     0.00000    30.33400     0.00000  0.0
    382    376    377    378   5     0.00000    30.33400     0.00000  0.0
    382    376    377    399   5     0.00000    30.33400     0.00000  0.0
    398    376    377    378   5     0.00000    30.33400     0.00000  0.0
    398    376    377    399   5     0.00000    30.33400     0.00000  0.0
    377    376    382    381   5     0.00000    30.33400     0.00000  0.0
    377    376    382    383   5     0.00000    30.33400     0.00000  0.0
    398    376    382    381   5     0.00000    30.33400     0.00000  0.0
    398    376    382    383   5     0.00000    30.33400     0.00000  0.0
    376    377    378    379   5     0.00000    30.33400     0.00000  0.0
    376    377    378    380   5     0.00000    30.33400     0.00000  0.0
    399    377    378    379   5     0.00000    30.33400     0.00000  0.0
    399    377    378    380   5     0.00000    30.33400     0.00000  0.0
    377    378    379    359   5     0.00000     3.94551     0.00000  0.0
    380    378    379    359   5     0.00000     3.94551     0.00000  0.0
    377    378    380    381   5     0.00000    30.33400     0.00000  0.0
    377    378    380    400   5     0.00000    30.33400     0.00000  0.0
    379    378    380    381   5     0.00000    30.33400     0.00000  0.0
    379    378    380    400   5     0.00000    30.33400     0.00000  0.0
    378    380    381    382   5     0.00000    30.33400     0.00000  0.0
    378    380    381    401   5     0.00000    30.33400     0.00000  0.0
    400    380    381    382   5     0.00000    30.33400     0.00000  0.0
    400    380    381    401   5     0.00000    30.33400     0.00000  0.0
    380    381    382    376   5     0.00000    30.33400     0.00000  0.0
    380    381    382    383   5     0.00000    30.33400     0.00000  0.0
    401    381    382    376   5     0.00000    30.33400     0.00000  0.0
    401    381    382    383   5     0.00000    30.33400     0.00000  0.0
    376    382    383    384   5     0.00000     8.78640     0.00000  0.0
    376    382    383    385   5     0.00000     4.73629     0.00000  0.0
    381    382    383    384   5     0.00000     8.78640     0.00000  0.0
    381    382    383    385   5     0.00000     4.73629     0.00000  0.0
    382    383    385    386   5     0.00000     4.73629     0.00000  0.0
    382    383    385    397   5     0.00000     4.73629     0.00000  0.0
    384    383    385    386   5     0.00000     8.78640     0.00000  0.0
    384    383    385    397   5     0.00000     8.78640     0.00000  0.0
    383    385    386    387   5     0.00000    30.33400     0.00000  0.0
    383    385    386    402   5     0.00000    30.33400     0.00000  0.0
    397    385    386    387   5     0.00000    30.33400     0.00000  0.0
    397    385    386    402   5     0.00000    30.33400     0.00000  0.0
    383    385    397    396   5     0.00000    30.33400     0.00000  0.0
    383    385    397    409   5     0.00000    30.33400     0.00000  0.0
    386    385    397    396   5     0.00000    30.33400     0.00000  0.0
    386    385    397    409   5     0.00000    30.33400     0.00000  0.0
    385    386    387    388   5     0.00000    30.33400     0.00000  0.0
    385    386    387    403   5     0.00000    30.33400     0.00000  0.0
    402    386    387    388   5     0.00000    30.33400     0.00000  0.0
    402    386    387    403   5     0.00000    30.33400     0.00000  0.0
    386    387    388    389   5     0.00000    30.33400     0.00000  0.0
    386    387    388    396   5     0.00000    30.33400     0.00000  0.0
    403    387    388    389   5     0.00000    30.33400     0.00000  0.0
    403    387    388    396   5     0.00000    30.33400     0.00000  0.0
    387    388    389    390   5     0.00000     3.94551     0.00000  0.0
    396    388    389    390   5     0.00000     3.94551     0.00000  0.0
    387    388    396    397   5     0.00000    30.33400     0.00000  0.0
    387    388    396    408   5     0.00000    30.33400     0.00000  0.0
    389    388    396    397   5     0.00000    30.33400     0.00000  0.0
    389    388    396    408   5     0.00000    30.33400     0.00000  0.0
    388    389    390    391   5     0.00000     3.94551     0.00000  0.0
    388    389    390    395   5     0.00000     3.94551     0.00000  0.0
    389    390    391    392   5     0.00000    30.33400     0.00000  0.0
    389    390    391    404   5     0.00000    30.33400     0.00000  0.0
    395    390    391    392   5     0.00000    30.33400     0.00000  0.0
    395    390    391    404   5     0.00000    30.33400     0.00000  0.0
    389    390    395    394   5     0.00000    30.33400     0.00000  0.0
    389    390    395    407   5     0.00000    30.33400     0.00000  0.0
    391    390    395    394   5     0.00000    30.33400     0.00000  0.0
    391    390    395    407   5     0.00000    30.33400     0.00000  0.0
    390    391    392    393   5     0.00000    30.33400     0.00000  0.0
    390    391    392    405   5     0.00000    30.33400     0.00000  0.0
    404    391    392    393   5     0.00000    30.33400     0.00000  0.0
    404    391    392    405   5     0.00000    30.33400     0.00000  0.0
    391    392    393    394   5     0.00000    30.33400     0.00000  0.0
    391    392    393    413   5     0.00000    30.33400     0.00000  0.0
    405    392    393    394   5     0.00000    30.33400     0.00000  0.0
    405    392    393    413   5     0.00000    30.33400     0.00000  0.0
    392    393    394    395   5     0.00000    30.33400     0.00000  0.0
    392    393    394    406   5     0.00000    30.33400     0.00000  0.0
    413    393    394    395   5     0.00000    30.33400     0.00000  0.0
    413    393    394    406   5     0.00000    30.33400     0.00000  0.0
    392    393    413    412   5     0.00000     3.94551     0.00000  0.0
    394    393    413    412   5     0.00000     3.94551     0.00000  0.0
    393    394    395    390   5     0.00000    30.33400     0.00000  0.0
    393    394    395    407   5     0.00000    30.33400     0.00000  0.0
    406    394    395    390   5     0.00000    30.33400     0.00000  0.0
    406    394    395    407   5     0.00000    30.33400     0.00000  0.0
    388    396    397    385   5     0.00000    30.33400     0.00000  0.0
    388    396    397    409   5     0.00000    30.33400     0.00000  0.0
    408    396    397    385   5     0.00000    30.33400     0.00000  0.0
    408    396    397    409   5     0.00000    30.33400     0.00000  0.0
    416    410    411    412   5     0.00000    30.33400     0.00000  0.0
    416    410    411    433   5     0.00000    30.33400     0.00000  0.0
    432    410    411    412   5     0.00000    30.33400     0.00000  0.0
    432    410    411    433   5     0.00000    30.33400     0.00000  0.0
    411    410    416    415   5     0.00000    30.33400     0.00000  0.0
    411    410    416    417   5     0.00000    30.33400     0.00000  0.0
    432    410    416    415   5     0.00000    30.33400     0.00000  0.0
    432    410    416    417   5     0.00000    30.33400     0.00000  0.0
    410    411    412    413   5     0.00000    30.33400     0.00000  0.0
    410    411    412    414   5     0.00000    30.33400     0.00000  0.0
    433    411    412    413   5     0.00000    30.33400     0.00000  0.0
    433    411    412    414   5     0.00000    30.33400     0.00000  0.0
    411    412    413    393   5     0.00000     3.94551     0.00000  0.0
    414    412    413    393   5     0.00000     3.94551     0.00000  0.0
    411    412    414    415   5     0.00000    30.33400     0.00000  0.0
    411    412    414    434   5     0.00000    30.33400     0.00000  0.0
    413    412    414    415   5     0.00000    30.33400     0.00000  0.0
    413    412    414    434   5     0.00000    30.33400     0.00000  0.0
    412    414    415    416   5     0.00000    30.33400     0.00000  0.0
    412    414    415    435   5     0.00000    30.33400     0.00000  0.0
    434    414    415    416   5     0.00000    30.33400     0.00000  0.0
    434    414    415    435   5     0.00000    30.33400     0.00000  0.0
    414    415    416    410   5     0.00000    30.33400     0.00000  0.0
    414    415    416    417   5     0.00000    30.33400     0.00000  0.0
    435    415    416    410   5     0.00000    30.33400     0.00000  0.0
    435    415    416    417   5     0.00000    30.33400     0.00000  0.0
    410    416    417    418   5     0.00000     8.78640     0.00000  0.0
    410    416    417    419   5     0.00000     4.73629     0.00000  0.0
    415    416    417    418   5     0.00000     8.78640     0.00000  0.0
    415    416    417    419   5     0.00000     4.73629     0.00000  0.0
    416    417    419    420   5     0.00000     4.73629     0.00000  0.0
    416    417    419    431   5     0.00000     4.73629     0.00000  0.0
    418    417    419    420   5     0.00000     8.78640     0.00000  0.0
    418    417    419    431   5     0.00000     8.78640     0.00000  0.0
    417    419    420    421   5     0.00000    30.33400     0.00000  0.0
    417    419    420    436   5     0.00000    30.33400     0.00000  0.0
    431    419    420    421   5     0.00000    30.33400     0.00000  0.0
    431    419    420    436   5     0.00000    30.33400     0.00000  0.0
    417    419    431    430   5     0.00000    30.33400     0.00000  0.0
    417    419    431    443   5     0.00000    30.33400     0.00000  0.0
    420    419    431    430   5     0.00000    30.33400     0.00000  0.0
    420    419    431    443   5     0.00000    30.33400     0.00000  0.0
    419    420    421    422   5     0.00000    30.33400     0.00000  0.0
    419    420    421    437   5     0.00000    30.33400     0.00000  0.0
    436    420    421    422   5     0.00000    30.33400     0.00000  0.0
    436    420    421    437   5     0.00000    30.33400     0.00000  0.0
    420    421    422    423   5     0.00000    30.33400     0.00000  0.0
    420    421    422    430   5     0.00000    30.33400     0.00000  0.0
    437    421    422    423   5     0.00000    30.33400     0.00000  0.0
    437    421    422    430   5     0.00000    30.33400     0.00000  0.0
    421    422    423    424   5     0.00000     3.94551     0.00000  0.0
    430    422    423    424   5     0.00000     3.94551     0.00000  0.0
    421    422    430    431   5     0.00000    30.33400     0.00000  0.0
    421    422    430    442   5     0.00000    30.33400     0.00000  0.0
    423    422    430    431   5     0.00000    30.33400     0.00000  0.0
    423    422    430    442   5     0.00000    30.33400     0.00000  0.0
    422    423    424    425   5     0.00000     3.94551     0.00000  0.0
    422    423    424    429   5     0.00000     3.94551     0.00000  0.0
    423    424    425    426   5     0.00000    30.33400     0.00000  0.0
    423    424    425    438   5     0.00000    30.33400     0.00000  0.0
    429    424    425    426   5     0.00000    30.33400     0.00000  0.0
    429    424    425    438   5     0.00000    30.33400     0.00000  0.0
    423    424    429    428   5     0.00000    30.33400     0.00000  0.0
    423    424    429    441   5     0.00000    30.33400     0.00000  0.0
    425    424    429    428   5     0.00000    30.33400     0.00000  0.0
    425    424    429    441   5     0.00000    30.33400     0.00000  0.0
    424    425    426    427   5     0.00000    30.33400     0.00000  0.0
    424    425    426    439   5     0.00000    30.33400     0.00000  0.0
    438    425    426    427   5     0.00000    30.33400     0.00000  0.0
    438    425    426    439   5     0.00000    30.33400     0.00000  0.0
    425    426    427    428   5     0.00000    30.33400     0.00000  0.0
    425    426    427    447   5     0.00000    30.33400     0.00000  0.0
    439    426    427    428   5     0.00000    30.33400     0.00000  0.0
    439    426    427    447   5     0.00000    30.33400     0.00000  0.0
    426    427    428    429   5     0.00000    30.33400     0.00000  0.0
    426    427    428    440   5     0.00000    30.33400     0.00000  0.0
    447    427    428    429   5     0.00000    30.33400     0.00000  0.0
    447    427    428    440   5     0.00000    30.33400     0.00000  0.0
    426    427    447    446   5     0.00000     3.94551     0.00000  0.0
    428    427    447    446   5     0.00000     3.94551     0.00000  0.0
    427    428    429    424   5     0.00000    30.33400     0.00000  0.0
    427    428    429    441   5     0.00000    30.33400     0.00000  0.0
    440    428    429    424   5     0.00000    30.33400     0.00000  0.0
    440    428    429    441   5     0.00000    30.33400     0.00000  0.0
    422    430    431    419   5     0.00000    30.33400     0.00000  0.0
    422    430    431    443   5     0.00000    30.33400     0.00000  0.0
    442    430    431    419   5     0.00000    30.33400     0.00000  0.0
    442    430    431    443   5     0.00000    30.33400     0.00000  0.0
    450    444    445    446   5     0.00000    30.33400     0.00000  0.0
    450    444    445    467   5     0.00000    30.33400     0.00000  0.0
    466    444    445    446   5     0.00000    30.33400     0.00000  0.0
    466    444    445    467   5     0.00000    30.33400     0.00000  0.0
    445    444    450    449   5     0.00000    30.33400     0.00000  0.0
    445    444    450    451   5     0.00000    30.33400     0.00000  0.0
    466    444    450    449   5     0.00000    30.33400     0.00000  0.0
    466    444    450    451   5     0.00000    30.33400     0.00000  0.0
    444    445    446    447   5     0.00000    30.33400     0.00000  0.0
    444    445    446    448   5     0.00000    30.33400     0.00000  0.0
    467    445    446    447   5     0.00000    30.33400     0.00000  0.0
    467    445    446    448   5     0.00000    30.33400     0.00000  0.0
    445    446    447    427   5     0.00000     3.94551     0.00000  0.0
    448    446    447    427   5     0.00000     3.94551     0.00000  0.0
    445    446    448    449   5     0.00000    30.33400     0.00000  0.0
    445    446    448    468   5     0.00000    30.33400     0.00000  0.0
    447    446    448    449   5     0.00000    30.33400     0.00000  0.0
    447    446    448    468   5     0.00000    30.33400     0.00000  0.0
    446    448    449    450   5     0.00000    30.33400     0.00000  0.0
    446    448    449    469   5     0.00000    30.33400     0.00000  0.0
    468    448    449    450   5     0.00000    30.33400     0.00000  0.0
    468    448    449    469   5     0.00000    30.33400     0.00000  0.0
    448    449    450    444   5     0.00000    30.33400     0.00000  0.0
    448    449    450    451   5     0.00000    30.33400     0.00000  0.0
    469    449    450    444   5     0.00000    30.33400     0.00000  0.0
    469    449    450    451   5     0.00000    30.33400     0.00000  0.0
    444    450    451    452   5     0.00000     8.78640     0.00000  0.0
    444    450    451    453   5     0.00000     4.73629     0.00000  0.0
    449    450    451    452   5     0.00000     8.78640     0.00000  0.0
    449    450    451    453   5     0.00000     4.73629     0.00000  0.0
    450    451    453    454   5     0.00000     4.73629     0.00000  0.0
    450    451    453    465   5     0.00000     4.73629     0.00000  0.0
    452    451    453    454   5     0.00000     8.78640     0.00000  0.0
    452    451    453    465   5     0.00000     8.78640     0.00000  0.0
    451    453    454    455   5     0.00000    30.33400     0.00000  0.0
    451    453    454    470   5     0.00000    30.33400     0.00000  0.0
    465    453    454    455   5     0.00000    30.33400     0.00000  0.0
    465    453    454    470   5     0.00000    30.33400     0.00000  0.0
    451    453    465    464   5     0.00000    30.33400     0.00000  0.0
    451    453    465    477   5     0.00000    30.33400     0.00000  0.0
    454    453    465    464   5     0.00000    30.33400     0.00000  0.0
    454    453    465    477   5     0.00000    30.33400     0.00000  0.0
    453    454    455    456   5     0.00000    30.33400     0.00000  0.0
    453    454    455    471   5     0.00000    30.33400     0.00000  0.0
    470    454    455    456   5     0.00000    30.33400     0.00000  0.0
    470    454    455    471   5     0.00000    30.33400     0.00000  0.0
    454    455    456    457   5     0.00000    30.33400     0.00000  0.0
    454    455    456    464   5     0.00000    30.33400     0.00000  0.0
    471    455    456    457   5     0.00000    30.33400     0.00000  0.0
    471    455    456    464   5     0.00000    30.33400     0.00000  0.0
    455    456    457    458   5     0.00000     3.94551     0.00000  0.0
    464    456    457    458   5     0.00000     3.94551     0.00000  0.0
    455    456    464    465   5     0.00000    30.33400     0.00000  0.0
    455    456    464    476   5     0.00000    30.33400     0.00000  0.0
    457    456    464    465   5     0.00000    30.33400     0.00000  0.0
    457    456    464    476   5     0.00000    30.33400     0.00000  0.0
    456    457    458    459   5     0.00000     3.94551     0.00000  0.0
    456    457    458    463   5     0.00000     3.94551     0.00000  0.0
    457    458    459    460   5     0.00000    30.33400     0.00000  0.0
    457    458    459    472   5     0.00000    30.33400     0.00000  0.0
    463    458    459    460   5     0.00000    30.33400     0.00000  0.0
    463    458    459    472   5     0.00000    30.33400     0.00000  0.0
    457    458    463    462   5     0.00000    30.33400     0.00000  0.0
    457    458    463    475   5     0.00000    30.33400     0.00000  0.0
    459    458    463    462   5     0.00000    30.33400     0.00000  0.0
    459    458    463    475   5     0.00000    30.33400     0.00000  0.0
    458    459    460    461   5     0.00000    30.33400     0.00000  0.0
    458    459    460    473   5     0.00000    30.33400     0.00000  0.0
    472    459    460    461   5     0.00000    30.33400     0.00000  0.0
    472    459    460    473   5     0.00000    30.33400     0.00000  0.0
    459    460    461    462   5     0.00000    30.33400     0.00000  0.0
    459    460    461    481   5     0.00000    30.33400     0.00000  0.0
    473    460    461    462   5     0.00000    30.33400     0.00000  0.0
    473    460    461    481   5     0.00000    30.33400     0.00000  0.0
    460    461    462    463   5     0.00000    30.33400     0.00000  0.0
    460    461    462    474   5     0.00000    30.33400     0.00000  0.0
    481    461    462    463   5     0.00000    30.33400     0.00000  0.0
    481    461    462    474   5     0.00000    30.33400     0.00000  0.0
    460    461    481    480   5     0.00000     3.94551     0.00000  0.0
    462    461    481    480   5     0.00000     3.94551     0.00000  0.0
    461    462    463    458   5     0.00000    30.33400     0.00000  0.0
    461    462    463    475   5     0.00000    30.33400     0.00000  0.0
    474    462    463    458   5     0.00000    30.33400     0.00000  0.0
    474    462    463    475   5     0.00000    30.33400     0.00000  0.0
    456    464    465    453   5     0.00000    30.33400     0.00000  0.0
    456    464    465    477   5     0.00000    30.33400     0.00000  0.0
    476    464    465    453   5     0.00000    30.33400     0.00000  0.0
    476    464    465    477   5     0.00000    30.33400     0.00000  0.0
    484    478    479    480   5     0.00000    30.33400     0.00000  0.0
    484    478    479    501   5     0.00000    30.33400     0.00000  0.0
    500    478    479    480   5     0.00000    30.33400     0.00000  0.0
    500    478    479    501   5     0.00000    30.33400     0.00000  0.0
    479    478    484    483   5     0.00000    30.33400     0.00000  0.0
    479    478    484    485   5     0.00000    30.33400     0.00000  0.0
    500    478    484    483   5     0.00000    30.33400     0.00000  0.0
    500    478    484    485   5     0.00000    30.33400     0.00000  0.0
    478    479    480    481   5     0.00000    30.33400     0.00000  0.0
    478    479    480    482   5     0.00000    30.33400     0.00000  0.0
    501    479    480    481   5     0.00000    30.33400     0.00000  0.0
    501    479    480    482   5     0.00000    30.33400     0.00000  0.0
    479    480    481    461   5     0.00000     3.94551     0.00000  0.0
    482    480    481    461   5     0.00000     3.94551     0.00000  0.0
    479    480    482    483   5     0.00000    30.33400     0.00000  0.0
    479    480    482    502   5     0.00000    30.33400     0.00000  0.0
    481    480    482    483   5     0.00000    30.33400     0.00000  0.0
    481    480    482    502   5     0.00000    30.33400     0.00000  0.0
    480    482    483    484   5     0.00000    30.33400     0.00000  0.0
    480    482    483    503   5     0.00000    30.33400     0.00000  0.0
    502    482    483    484   5     0.00000    30.33400     0.00000  0.0
    502    482    483    503   5     0.00000    30.33400     0.00000  0.0
    482    483    484    478   5     0.00000    30.33400     0.00000  0.0
    482    483    484    485   5     0.00000    30.33400     0.00000  0.0
    503    483    484    478   5     0.00000    30.33400     0.00000  0.0
    503    483    484    485   5     0.00000    30.33400     0.00000  0.0
    478    484    485    486   5     0.00000     8.78640     0.00000  0.0
    478    484    485    487   5     0.00000     4.73629     0.00000  0.0
    483    484    485    486   5     0.00000     8.78640     0.00000  0.0
    483    484    485    487   5     0.00000     4.73629     0.00000  0.0
    484    485    487    488   5     0.00000     4.73629     0.00000  0.0
    484    485    487    499   5     0.00000     4.73629     0.00000  0.0
    486    485    487    488   5     0.00000     8.78640     0.00000  0.0
    486    485    487    499   5     0.00000     8.78640     0.00000  0.0
    485    487    488    489   5     0.00000    30.33400     0.00000  0.0
    485    487    488    504   5     0.00000    30.33400     0.00000  0.0
    499    487    488    489   5     0.00000    30.33400     0.00000  0.0
    499    487    488    504   5     0.00000    30.33400     0.00000  0.0
    485    487    499    498   5     0.00000    30.33400     0.00000  0.0
    485    487    499    511   5     0.00000    30.33400     0.00000  0.0
    488    487    499    498   5     0.00000    30.33400     0.00000  0.0
    488    487    499    511   5     0.00000    30.33400     0.00000  0.0
    487    488    489    490   5     0.00000    30.33400     0.00000  0.0
    487    488    489    505   5     0.00000    30.33400     0.00000  0.0
    504    488    489    490   5     0.00000    30.33400     0.00000  0.0
    504    488    489    505   5     0.00000    30.33400     0.00000  0.0
    488    489    490    491   5     0.00000    30.33400     0.00000  0.0
    488    489    490    498   5     0.00000    30.33400     0.00000  0.0
    505    489    490    491   5     0.00000    30.33400     0.00000  0.0
    505    489    490    498   5     0.00000    30.33400     0.00000  0.0
    489    490    491    492   5     0.00000     3.94551     0.00000  0.0
    498    490    491    492   5     0.00000     3.94551     0.00000  0.0
    489    490    498    499   5     0.00000    30.33400     0.00000  0.0
    489    490    498    510   5     0.00000    30.33400     0.00000  0.0
    491    490    498    499   5     0.00000    30.33400     0.00000  0.0
    491    490    498    510   5     0.00000    30.33400     0.00000  0.0
    490    491    492    493   5     0.00000     3.94551     0.00000  0.0
    490    491    492    497   5     0.00000     3.94551     0.00000  0.0
    491    492    493    494   5     0.00000    30.33400     0.00000  0.0
    491    492    493    506   5     0.00000    30.33400     0.00000  0.0
    497    492    493    494   5     0.00000    30.33400     0.00000  0.0
    497    492    493    506   5     0.00000    30.33400     0.00000  0.0
    491    492    497    496   5     0.00000    30.33400     0.00000  0.0
    491    492    497    509   5     0.00000    30.33400     0.00000  0.0
    493    492    497    496   5     0.00000    30.33400     0.00000  0.0
    493    492    497    509   5     0.00000    30.33400     0.00000  0.0
    492    493    494    495   5     0.00000    30.33400     0.00000  0.0
    492    493    494    507   5     0.00000    30.33400     0.00000  0.0
    506    493    494    495   5     0.00000    30.33400     0.00000  0.0
    506    493    494    507   5     0.00000    30.33400     0.00000  0.0
    493    494    495    496   5     0.00000    30.33400     0.00000  0.0
    493    494    495    515   5     0.00000    30.33400     0.00000  0.0
    507    494    495    496   5     0.00000    30.33400     0.00000  0.0
    507    494    495    515   5     0.00000    30.33400     0.00000  0.0
    494    495    496    497   5     0.00000    30.33400     0.00000  0.0
    494    495    496    508   5     0.00000    30.33400     0.00000  0.0
    515    495    496    497   5     0.00000    30.33400     0.00000  0.0
    515    495    496    508   5     0.00000    30.33400     0.00000  0.0
    494    495    515    514   5     0.00000     3.94551     0.00000  0.0
    496    495    515    514   5     0.00000     3.94551     0.00000  0.0
    495    496    497    492   5     0.00000    30.33400     0.00000  0.0
    495    496    497    509   5     0.00000    30.33400     0.00000  0.0
    508    496    497    492   5     0.00000    30.33400     0.00000  0.0
    508    496    497    509   5     0.00000    30.33400     0.00000  0.0
    490    498    499    487   5     0.00000    30.33400     0.00000  0.0
    490    498    499    511   5     0.00000    30.33400     0.00000  0.0
    510    498    499    487   5     0.00000    30.33400     0.00000  0.0
    510    498    499    511   5     0.00000    30.33400     0.00000  0.0
    518    512    513    514   5     0.00000    30.33400     0.00000  0.0
    518    512    513    535   5     0.00000    30.33400     0.00000  0.0
    534    512    513    514   5     0.00000    30.33400     0.00000  0.0
    534    512    513    535   5     0.00000    30.33400     0.00000  0.0
    513    512    518    517   5     0.00000    30.33400     0.00000  0.0
    513    512    518    519   5     0.00000    30.33400     0.00000  0.0
    534    512    518    517   5     0.00000    30.33400     0.00000  0.0
    534    512    518    519   5     0.00000    30.33400     0.00000  0.0
    512    513    514    515   5     0.00000    30.33400     0.00000  0.0
    512    513    514    516   5     0.00000    30.33400     0.00000  0.0
    535    513    514    515   5     0.00000    30.33400     0.00000  0.0
    535    513    514    516   5     0.00000    30.33400     0.00000  0.0
    513    514    515    495   5     0.00000     3.94551     0.00000  0.0
    516    514    515    495   5     0.00000     3.94551     0.00000  0.0
    513    514    516    517   5     0.00000    30.33400     0.00000  0.0
    513    514    516    536   5     0.00000    30.33400     0.00000  0.0
    515    514    516    517   5     0.00000    30.33400     0.00000  0.0
    515    514    516    536   5     0.00000    30.33400     0.00000  0.0
    514    516    517    518   5     0.00000    30.33400     0.00000  0.0
    514    516    517    537   5     0.00000    30.33400     0.00000  0.0
    536    516    517    518   5     0.00000    30.33400     0.00000  0.0
    536    516    517    537   5     0.00000    30.33400     0.00000  0.0
    516    517    518    512   5     0.00000    30.33400     0.00000  0.0
    516    517    518    519   5     0.00000    30.33400     0.00000  0.0
    537    517    518    512   5     0.00000    30.33400     0.00000  0.0
    537    517    518    519   5     0.00000    30.33400     0.00000  0.0
    512    518    519    520   5     0.00000     8.78640     0.00000  0.0
    512    518    519    521   5     0.00000     4.73629     0.00000  0.0
    517    518    519    520   5     0.00000     8.78640     0.00000  0.0
    517    518    519    521   5     0.00000     4.73629     0.00000  0.0
    518    519    521    522   5     0.00000     4.73629     0.00000  0.0
    518    519    521    533   5     0.00000     4.73629     0.00000  0.0
    520    519    521    522   5     0.00000     8.78640     0.00000  0.0
    520    519    521    533   5     0.00000     8.78640     0.00000  0.0
    519    521    522    523   5     0.00000    30.33400     0.00000  0.0
    519    521    522    538   5     0.00000    30.33400     0.00000  0.0
    533    521    522    523   5     0.00000    30.33400     0.00000  0.0
    533    521    522    538   5     0.00000    30.33400     0.00000  0.0
    519    521    533    532   5     0.00000    30.33400     0.00000  0.0
    519    521    533    545   5     0.00000    30.33400     0.00000  0.0
    522    521    533    532   5     0.00000    30.33400     0.00000  0.0
    522    521    533    545   5     0.00000    30.33400     0.00000  0.0
    521    522    523    524   5     0.00000    30.33400     0.00000  0.0
    521    522    523    539   5     0.00000    30.33400     0.00000  0.0
    538    522    523    524   5     0.00000    30.33400     0.00000  0.0
    538    522    523    539   5     0.00000    30.33400     0.00000  0.0
    522    523    524    525   5     0.00000    30.33400     0.00000  0.0
    522    523    524    532   5     0.00000    30.33400     0.00000  0.0
    539    523    524    525   5     0.00000    30.33400     0.00000  0.0
    539    523    524    532   5     0.00000    30.33400     0.00000  0.0
    523    524    525    526   5     0.00000     3.94551     0.00000  0.0
    532    524    525    526   5     0.00000     3.94551     0.00000  0.0
    523    524    532    533   5     0.00000    30.33400     0.00000  0.0
    523    524    532    544   5     0.00000    30.33400     0.00000  0.0
    525    524    532    533   5     0.00000    30.33400     0.00000  0.0
    525    524    532    544   5     0.00000    30.33400     0.00000  0.0
    524    525    526    527   5     0.00000     3.94551     0.00000  0.0
    524    525    526    531   5     0.00000     3.94551     0.00000  0.0
    525    526    527    528   5     0.00000    30.33400     0.00000  0.0
    525    526    527    540   5     0.00000    30.33400     0.00000  0.0
    531    526    527    528   5     0.00000    30.33400     0.00000  0.0
    531    526    527    540   5     0.00000    30.33400     0.00000  0.0
    525    526    531    530   5     0.00000    30.33400     0.00000  0.0
    525    526    531    543   5     0.00000    30.33400     0.00000  0.0
    527    526    531    530   5     0.00000    30.33400     0.00000  0.0
    527    526    531    543   5     0.00000    30.33400     0.00000  0.0
    526    527    528    529   5     0.00000    30.33400     0.00000  0.0
    526    527    528    541   5     0.00000    30.33400     0.00000  0.0
    540    527    528    529   5     0.00000    30.33400     0.00000  0.0
    540    527    528    541   5     0.00000    30.33400     0.00000  0.0
    527    528    529    530   5     0.00000    30.33400     0.00000  0.0
    527    528    529    549   5     0.00000    30.33400     0.00000  0.0
    541    528    529    530   5     0.00000    30.33400     0.00000  0.0
    541    528    529    549   5     0.00000    30.33400     0.00000  0.0
    528    529    530    531   5     0.00000    30.33400     0.00000  0.0
    528    529    530    542   5     0.00000    30.33400     0.00000  0.0
    549    529    530    531   5     0.00000    30.33400     0.00000  0.0
    549    529    530    542   5     0.00000    30.33400     0.00000  0.0
    528    529    549    548   5     0.00000     3.94551     0.00000  0.0
    530    529    549    548   5     0.00000     3.94551     0.00000  0.0
    529    530    531    526   5     0.00000    30.33400     0.00000  0.0
    529    530    531    543   5     0.00000    30.33400     0.00000  0.0
    542    530    531    526   5     0.00000    30.33400     0.00000  0.0
    542    530    531    543   5     0.00000    30.33400     0.00000  0.0
    524    532    533    521   5     0.00000    30.33400     0.00000  0.0
    524    532    533    545   5     0.00000    30.33400     0.00000  0.0
    544    532    533    521   5     0.00000    30.33400     0.00000  0.0
    544    532    533    545   5     0.00000    30.33400     0.00000  0.0
    552    546    547    548   5     0.00000    30.33400     0.00000  0.0
    552    546    547    569   5     0.00000    30.33400     0.00000  0.0
    568    546    547    548   5     0.00000    30.33400     0.00000  0.0
    568    546    547    569   5     0.00000    30.33400     0.00000  0.0
    547    546    552    551   5     0.00000    30.33400     0.00000  0.0
    547    546    552    553   5     0.00000    30.33400     0.00000  0.0
    568    546    552    551   5     0.00000    30.33400     0.00000  0.0
    568    546    552    553   5     0.00000    30.33400     0.00000  0.0
    546    547    548    549   5     0.00000    30.33400     0.00000  0.0
    546    547    548    550   5     0.00000    30.33400     0.00000  0.0
    569    547    548    549   5     0.00000    30.33400     0.00000  0.0
    569    547    548    550   5     0.00000    30.33400     0.00000  0.0
    547    548    549    529   5     0.00000     3.94551     0.00000  0.0
    550    548    549    529   5     0.00000     3.94551     0.00000  0.0
    547    548    550    551   5     0.00000    30.33400     0.00000  0.0
    547    548    550    570   5     0.00000    30.33400     0.00000  0.0
    549    548    550    551   5     0.00000    30.33400     0.00000  0.0
    549    548    550    570   5     0.00000    30.33400     0.00000  0.0
    548    550    551    552   5     0.00000    30.33400     0.00000  0.0
    548    550    551    571   5     0.00000    30.33400     0.00000  0.0
    570    550    551    552   5     0.00000    30.33400     0.00000  0.0
    570    550    551    571   5     0.00000    30.33400     0.00000  0.0
    550    551    552    546   5     0.00000    30.33400     0.00000  0.0
    550    551    552    553   5     0.00000    30.33400     0.00000  0.0
    571    551    552    546   5     0.00000    30.33400     0.00000  0.0
    571    551    552    553   5     0.00000    30.33400     0.00000  0.0
    546    552    553    554   5     0.00000     8.78640     0.00000  0.0
    546    552    553    555   5     0.00000     4.73629     0.00000  0.0
    551    552    553    554   5     0.00000     8.78640     0.00000  0.0
    551    552    553    555   5     0.00000     4.73629     0.00000  0.0
    552    553    555    556   5     0.00000     4.73629     0.00000  0.0
    552    553    555    567   5     0.00000     4.73629     0.00000  0.0
    554    553    555    556   5     0.00000     8.78640     0.00000  0.0
    554    553    555    567   5     0.00000     8.78640     0.00000  0.0
    553    555    556    557   5     0.00000    30.33400     0.00000  0.0
    553    555    556    572   5     0.00000    30.33400     0.00000  0.0
    567    555    556    557   5     0.00000    30.33400     0.00000  0.0
    567    555    556    572   5     0.00000    30.33400     0.00000  0.0
    553    555    567    566   5     0.00000    30.33400     0.00000  0.0
    553    555    567    579   5     0.00000    30.33400     0.00000  0.0
    556    555    567    566   5     0.00000    30.33400     0.00000  0.0
    556    555    567    579   5     0.00000    30.33400     0.00000  0.0
    555    556    557    558   5     0.00000    30.33400     0.00000  0.0
    555    556    557    573   5     0.00000    30.33400     0.00000  0.0
    572    556    557    558   5     0.00000    30.33400     0.00000  0.0
    572    556    557    573   5     0.00000    30.33400     0.00000  0.0
    556    557    558    559   5     0.00000    30.33400     0.00000  0.0
    556    557    558    566   5     0.00000    30.33400     0.00000  0.0
    573    557    558    559   5     0.00000    30.33400     0.00000  0.0
    573    557    558    566   5     0.00000    30.33400     0.00000  0.0
    557    558    559    560   5     0.00000     3.94551     0.00000  0.0
    566    558    559    560   5     0.00000     3.94551     0.00000  0.0
    557    558    566    567   5     0.00000    30.33400     0.00000  0.0
    557    558    566    578   5     0.00000    30.33400     0.00000  0.0
    559    558    566    567   5     0.00000    30.33400     0.00000  0.0
    559    558    566    578   5     0.00000    30.33400     0.00000  0.0
    558    559    560    561   5     0.00000     3.94551     0.00000  0.0
    558    559    560    565   5     0.00000     3.94551     0.00000  0.0
    559    560    561    562   5     0.00000    30.33400     0.00000  0.0
    559    560    561    574   5     0.00000    30.33400     0.00000  0.0
    565    560    561    562   5     0.00000    30.33400     0.00000  0.0
    565    560    561    574   5     0.00000    30.33400     0.00000  0.0
    559    560    565    564   5     0.00000    30.33400     0.00000  0.0
    559    560    565    577   5     0.00000    30.33400     0.00000  0.0
    561    560    565    564   5     0.00000    30.33400     0.00000  0.0
    561    560    565    577   5     0.00000    30.33400     0.00000  0.0
    560    561    562    563   5     0.00000    30.33400     0.00000  0.0
    560    561    562    575   5     0.00000    30.33400     0.00000  0.0
    574    561    562    563   5     0.00000    30.33400     0.00000  0.0
    574    561    562    575   5     0.00000    30.33400     0.00000  0.0
    561    562    563    564   5     0.00000    30.33400     0.00000  0.0
    561    562    563    583   5     0.00000    30.33400     0.00000  0.0
    575    562    563    564   5     0.00000    30.33400     0.00000  0.0
    575    562    563    583   5     0.00000    30.33400     0.00000  0.0
    562    563    564    565   5     0.00000    30.33400     0.00000  0.0
    562    563    564    576   5     0.00000    30.33400     0.00000  0.0
    583    563    564    565   5     0.00000    30.33400     0.00000  0.0
    583    563    564    576   5     0.00000    30.33400     0.00000  0.0
    562    563    583    582   5     0.00000     3.94551     0.00000  0.0
    564    563    583    582   5     0.00000     3.94551     0.00000  0.0
    563    564    565    560   5     0.00000    30.33400     0.00000  0.0
    563    564    565    577   5     0.00000    30.33400     0.00000  0.0
    576    564    565    560   5     0.00000    30.33400     0.00000  0.0
    576    564    565    577   5     0.00000    30.33400     0.00000  0.0
    558    566    567    555   5     0.00000    30.33400     0.00000  0.0
    558    566    567    579   5     0.00000    30.33400     0.00000  0.0
    578    566    567    555   5     0.00000    30.33400     0.00000  0.0
    578    566    567    579   5     0.00000    30.33400     0.00000  0.0
    586    580    581    582   5     0.00000    30.33400     0.00000  0.0
    586    580    581    603   5     0.00000    30.33400     0.00000  0.0
    602    580    581    582   5     0.00000    30.33400     0.00000  0.0
    602    580    581    603   5     0.00000    30.33400     0.00000  0.0
    581    580    586    585   5     0.00000    30.33400     0.00000  0.0
    581    580    586    587   5     0.00000    30.33400     0.00000  0.0
    602    580    586    585   5     0.00000    30.33400     0.00000  0.0
    602    580    586    587   5     0.00000    30.33400     0.00000  0.0
    580    581    582    583   5     0.00000    30.33400     0.00000  0.0
    580    581    582    584   5     0.00000    30.33400     0.00000  0.0
    603    581    582    583   5     0.00000    30.33400     0.00000  0.0
    603    581    582    584   5     0.00000    30.33400     0.00000  0.0
    581    582    583    563   5     0.00000     3.94551     0.00000  0.0
    584    582    583    563   5     0.00000     3.94551     0.00000  0.0
    581    582    584    585   5     0.00000    30.33400     0.00000  0.0
    581    582    584    604   5     0.00000    30.33400     0.00000  0.0
    583    582    584    585   5     0.00000    30.33400     0.00000  0.0
    583    582    584    604   5     0.00000    30.33400     0.00000  0.0
    582    584    585    586   5     0.00000    30.33400     0.00000  0.0
    582    584    585    605   5     0.00000    30.33400     0.00000  0.0
    604    584    585    586   5     0.00000    30.33400     0.00000  0.0
    604    584    585    605   5     0.00000    30.33400     0.00000  0.0
    584    585    586    580   5     0.00000    30.33400     0.00000  0.0
    584    585    586    587   5     0.00000    30.33400     0.00000  0.0
    605    585    586    580   5     0.00000    30.33400     0.00000  0.0
    605    585    586    587   5     0.00000    30.33400     0.00000  0.0
    580    586    587    588   5     0.00000     8.78640     0.00000  0.0
    580    586    587    589   5     0.00000     4.73629     0.00000  0.0
    585    586    587    588   5     0.00000     8.78640     0.00000  0.0
    585    586    587    589   5     0.00000     4.73629     0.00000  0.0
    586    587    589    590   5     0.00000     4.73629     0.00000  0.0
    586    587    589    601   5     0.00000     4.73629     0.00000  0.0
    588    587    589    590   5     0.00000     8.78640     0.00000  0.0
    588    587    589    601   5     0.00000     8.78640     0.00000  0.0
    587    589    590    591   5     0.00000    30.33400     0.00000  0.0
    587    589    590    606   5     0.00000    30.33400     0.00000  0.0
    601    589    590    591   5     0.00000    30.33400     0.00000  0.0
    601    589    590    606   5     0.00000    30.33400     0.00000  0.0
    587    589    601    600   5     0.00000    30.33400     0.00000  0.0
    587    589    601    613   5     0.00000    30.33400     0.00000  0.0
    590    589    601    600   5     0.00000    30.33400     0.00000  0.0
    590    589    601    613   5     0.00000    30.33400     0.00000  0.0
    589    590    591    592   5     0.00000    30.33400     0.00000  0.0
    589    590    591    607   5     0.00000    30.33400     0.00000  0.0
    606    590    591    592   5     0.00000    30.33400     0.00000  0.0
    606    590    591    607   5     0.00000    30.33400     0.00000  0.0
    590    591    592    593   5     0.00000    30.33400     0.00000  0.0
    590    591    592    600   5     0.00000    30.33400     0.00000  0.0
    607    591    592    593   5     0.00000    30.33400     0.00000  0.0
    607    591    592    600   5     0.00000    30.33400     0.00000  0.0
    591    592    593    594   5     0.00000     3.94551     0.00000  0.0
    600    592    593    594   5     0.00000     3.94551     0.00000  0.0
    591    592    600    601   5     0.00000    30.33400     0.00000  0.0
    591    592    600    612   5     0.00000    30.33400     0.00000  0.0
    593    592    600    601   5     0.00000    30.33400     0.00000  0.0
    593    592    600    612   5     0.00000    30.33400     0.00000  0.0
    592    593    594    595   5     0.00000     3.94551     0.00000  0.0
    592    593    594    599   5     0.00000     3.94551     0.00000  0.0
    593    594    595    596   5     0.00000    30.33400     0.00000  0.0
    593    594    595    608   5     0.00000    30.33400     0.00000  0.0
    599    594    595    596   5     0.00000    30.33400     0.00000  0.0
    599    594    595    608   5     0.00000    30.33400     0.00000  0.0
    593    594    599    598   5     0.00000    30.33400     0.00000  0.0
    593    594    599    611   5     0.00000    30.33400     0.00000  0.0
    595    594    599    598   5     0.00000    30.33400     0.00000  0.0
    595    594    599    611   5     0.00000    30.33400     0.00000  0.0
    594    595    596    597   5     0.00000    30.33400     0.00000  0.0
    594    595    596    609   5     0.00000    30.33400     0.00000  0.0
    608    595    596    597   5     0.00000    30.33400     0.00000  0.0
    608    595    596    609   5     0.00000    30.33400     0.00000  0.0
    595    596    597    598   5     0.00000    30.33400     0.00000  0.0
    595    596    597    617   5     0.00000    30.33400     0.00000  0.0
    609    596    597    598   5     0.00000    30.33400     0.00000  0.0
    609    596    597    617   5     0.00000    30.33400     0.00000  0.0
    596    597    598    599   5     0.00000    30.33400     0.00000  0.0
    596    597    598    610   5     0.00000    30.33400     0.00000  0.0
    617    597    598    599   5     0.00000    30.33400     0.00000  0.0
    617    597    598    610   5     0.00000    30.33400     0.00000  0.0
    596    597    617    616   5     0.00000     3.94551     0.00000  0.0
    598    597    617    616   5     0.00000     3.94551     0.00000  0.0
    597    598    599    594   5     0.00000    30.33400     0.00000  0.0
    597    598    599    611   5     0.00000    30.33400     0.00000  0.0
    610    598    599    594   5     0.00000    30.33400     0.00000  0.0
    610    598    599    611   5     0.00000    30.33400     0.00000  0.0
    592    600    601    589   5     0.00000    30.33400     0.00000  0.0
    592    600    601    613   5     0.00000    30.33400     0.00000  0.0
    612    600    601    589   5     0.00000    30.33400     0.00000  0.0
    612    600    601    613   5     0.00000    30.33400     0.00000  0.0
    620    614    615    616   5     0.00000    30.33400     0.00000  0.0
    620    614    615    637   5     0.00000    30.33400     0.00000  0.0
    636    614    615    616   5     0.00000    30.33400     0.00000  0.0
    636    614    615    637   5     0.00000    30.33400     0.00000  0.0
    615    614    620    619   5     0.00000    30.33400     0.00000  0.0
    615    614    620    621   5     0.00000    30.33400     0.00000  0.0
    636    614    620    619   5     0.00000    30.33400     0.00000  0.0
    636    614    620    621   5     0.00000    30.33400     0.00000  0.0
    614    615    616    617   5     0.00000    30.33400     0.00000  0.0
    614    615    616    618   5     0.00000    30.33400     0.00000  0.0
    637    615    616    617   5     0.00000    30.33400     0.00000  0.0
    637    615    616    618   5     0.00000    30.33400     0.00000  0.0
    615    616    617    597   5     0.00000     3.94551     0.00000  0.0
    618    616    617    597   5     0.00000     3.94551     0.00000  0.0
    615    616    618    619   5     0.00000    30.33400     0.00000  0.0
    615    616    618    638   5     0.00000    30.33400     0.00000  0.0
    617    616    618    619   5     0.00000    30.33400     0.00000  0.0
    617    616    618    638   5     0.00000    30.33400     0.00000  0.0
    616    618    619    620   5     0.00000    30.33400     0.00000  0.0
    616    618    619    639   5     0.00000    30.33400     0.00000  0.0
    638    618    619    620   5     0.00000    30.33400     0.00000  0.0
    638    618    619    639   5     0.00000    30.33400     0.00000  0.0
    618    619    620    614   5     0.00000    30.33400     0.00000  0.0
    618    619    620    621   5     0.00000    30.33400     0.00000  0.0
    639    619    620    614   5     0.00000    30.33400     0.00000  0.0
    639    619    620    621   5     0.00000    30.33400     0.00000  0.0
    614    620    621    622   5     0.00000     8.78640     0.00000  0.0
    614    620    621    623   5     0.00000     4.73629     0.00000  0.0
    619    620    621    622   5     0.00000     8.78640     0.00000  0.0
    619    620    621    623   5     0.00000     4.73629     0.00000  0.0
    620    621    623    624   5     0.00000     4.73629     0.00000  0.0
    620    621    623    635   5     0.00000     4.73629     0.00000  0.0
    622    621    623    624   5     0.00000     8.78640     0.00000  0.0
    622    621    623    635   5     0.00000     8.78640     0.00000  0.0
    621    623    624    625   5     0.00000    30.33400     0.00000  0.0
    621    623    624    640   5     0.00000    30.33400     0.00000  0.0
    635    623    624    625   5     0.00000    30.33400     0.00000  0.0
    635    623    624    640   5     0.00000    30.33400     0.00000  0.0
    621    623    635    634   5     0.00000    30.33400     0.00000  0.0
    621    623    635    647   5     0.00000    30.33400     0.00000  0.0
    624    623    635    634   5     0.00000    30.33400     0.00000  0.0
    624    623    635    647   5     0.00000    30.33400     0.00000  0.0
    623    624    625    626   5     0.00000    30.33400     0.00000  0.0
    623    624    625    641   5     0.00000    30.33400     0.00000  0.0
    640    624    625    626   5     0.00000    30.33400     0.00000  0.0
    640    624    625    641   5     0.00000    30.33400     0.00000  0.0
    624    625    626    627   5     0.00000    30.33400     0.00000  0.0
    624    625    626    634   5     0.00000    30.33400     0.00000  0.0
    641    625    626    627   5     0.00000    30.33400     0.00000  0.0
    641    625    626    634   5     0.00000    30.33400     0.00000  0.0
    625    626    627    628   5     0.00000     3.94551     0.00000  0.0
    634    626    627    628   5     0.00000     3.94551     0.00000  0.0
    625    626    634    635   5     0.00000    30.33400     0.00000  0.0
    625    626    634    646   5     0.00000    30.33400     0.00000  0.0
    627    626    634    635   5     0.00000    30.33400     0.00000  0.0
    627    626    634    646   5     0.00000    30.33400     0.00000  0.0
    626    627    628    629   5     0.00000     3.94551     0.00000  0.0
    626    627    628    633   5     0.00000     3.94551     0.00000  0.0
    627    628    629    630   5     0.00000    30.33400     0.00000  0.0
    627    628    629    642   5     0.00000    30.33400     0.00000  0.0
    633    628    629    630   5     0.00000    30.33400     0.00000  0.0
    633    628    629    642   5     0.00000    30.33400     0.00000  0.0
    627    628    633    632   5     0.00000    30.33400     0.00000  0.0
    627    628    633    645   5     0.00000    30.33400     0.00000  0.0
    629    628    633    632   5     0.00000    30.33400     0.00000  0.0
    629    628    633    645   5     0.00000    30.33400     0.00000  0.0
    628    629    630    631   5     0.00000    30.33400     0.00000  0.0
    628    629    630    643   5     0.00000    30.33400     0.00000  0.0
    642    629    630    631   5     0.00000    30.33400     0.00000  0.0
    642    629    630    643   5     0.00000    30.33400     0.00000  0.0
    629    630    631    632   5     0.00000    30.33400     0.00000  0.0
    629    630    631    651   5     0.00000    30.33400     0.00000  0.0
    643    630    631    632   5     0.00000    30.33400     0.00000  0.0
    643    630    631    651   5     0.00000    30.33400     0.00000  0.0
    630    631    632    633   5     0.00000    30.33400     0.00000  0.0
    630    631    632    644   5     0.00000    30.33400     0.00000  0.0
    651    631    632    633   5     0.00000    30.33400     0.00000  0.0
    651    631    632    644   5     0.00000    30.33400     0.00000  0.0
    630    631    651    650   5     0.00000     3.94551     0.00000  0.0
    632    631    651    650   5     0.00000     3.94551     0.00000  0.0
    631    632    633    628   5     0.00000    30.33400     0.00000  0.0
    631    632    633    645   5     0.00000    30.33400     0.00000  0.0
    644    632    633    628   5     0.00000    30.33400     0.00000  0.0
    644    632    633    645   5     0.00000    30.33400     0.00000  0.0
    626    634    635    623   5     0.00000    30.33400     0.00000  0.0
    626    634    635    647   5     0.00000    30.33400     0.00000  0.0
    646    634    635    623   5     0.00000    30.33400     0.00000  0.0
    646    634    635    647   5     0.00000    30.33400     0.00000  0.0
    654    648    649    650   5     0.00000    30.33400     0.00000  0.0
    654    648    649    671   5     0.00000    30.33400     0.00000  0.0
    670    648    649    650   5     0.00000    30.33400     0.00000  0.0
    670    648    649    671   5     0.00000    30.33400     0.00000  0.0
    649    648    654    653   5     0.00000    30.33400     0.00000  0.0
    649    648    654    655   5     0.00000    30.33400     0.00000  0.0
    670    648    654    653   5     0.00000    30.33400     0.00000  0.0
    670    648    654    655   5     0.00000    30.33400     0.00000  0.0
    648    649    650    651   5     0.00000    30.33400     0.00000  0.0
    648    649    650    652   5     0.00000    30.33400     0.00000  0.0
    671    649    650    651   5     0.00000    30.33400     0.00000  0.0
    671    649    650    652   5     0.00000    30.33400     0.00000  0.0
    649    650    651    631   5     0.00000     3.94551     0.00000  0.0
    652    650    651    631   5     0.00000     3.94551     0.00000  0.0
    649    650    652    653   5     0.00000    30.33400     0.00000  0.0
    649    650    652    672   5     0.00000    30.33400     0.00000  0.0
    651    650    652    653   5     0.00000    30.33400     0.00000  0.0
    651    650    652    672   5     0.00000    30.33400     0.00000  0.0
    650    652    653    654   5     0.00000    30.33400     0.00000  0.0
    650    652    653    673   5     0.00000    30.33400     0.00000  0.0
    672    652    653    654   5     0.00000    30.33400     0.00000  0.0
    672    652    653    673   5     0.00000    30.33400     0.00000  0.0
    652    653    654    648   5     0.00000    30.33400     0.00000  0.0
    652    653    654    655   5     0.00000    30.33400     0.00000  0.0
    673    653    654    648   5     0.00000    30.33400     0.00000  0.0
    673    653    654    655   5     0.00000    30.33400     0.00000  0.0
    648    654    655    656   5     0.00000     8.78640     0.00000  0.0
    648    654    655    657   5     0.00000     4.73629     0.00000  0.0
    653    654    655    656   5     0.00000     8.78640     0.00000  0.0
    653    654    655    657   5     0.00000     4.73629     0.00000  0.0
    654    655    657    658   5     0.00000     4.73629     0.00000  0.0
    654    655    657    669   5     0.00000     4.73629     0.00000  0.0
    656    655    657    658   5     0.00000     8.78640     0.00000  0.0
    656    655    657    669   5     0.00000     8.78640     0.00000  0.0
    655    657    658    659   5     0.00000    30.33400     0.00000  0.0
    655    657    658    674   5     0.00000    30.33400     0.00000  0.0
    669    657    658    659   5     0.00000    30.33400     0.00000  0.0
    669    657    658    674   5     0.00000    30.33400     0.00000  0.0
    655    657    669    668   5     0.00000    30.33400     0.00000  0.0
    655    657    669    681   5     0.00000    30.33400     0.00000  0.0
    658    657    669    668   5     0.00000    30.33400     0.00000  0.0
    658    657    669    681   5     0.00000    30.33400     0.00000  0.0
    657    658    659    660   5     0.00000    30.33400     0.00000  0.0
    657    658    659    675   5     0.00000    30.33400     0.00000  0.0
    674    658    659    660   5     0.00000    30.33400     0.00000  0.0
    674    658    659    675   5     0.00000    30.33400     0.00000  0.0
    658    659    660    661   5     0.00000    30.33400     0.00000  0.0
    658    659    660    668   5     0.00000    30.33400     0.00000  0.0
    675    659    660    661   5     0.00000    30.33400     0.00000  0.0
    675    659    660    668   5     0.00000    30.33400     0.00000  0.0
    659    660    661    662   5     0.00000     3.94551     0.00000  0.0
    668    660    661    662   5     0.00000     3.94551     0.00000  0.0
    659    660    668    669   5     0.00000    30.33400     0.00000  0.0
    659    660    668    680   5     0.00000    30.33400     0.00000  0.0
    661    660    668    669   5     0.00000    30.33400     0.00000  0.0
    661    660    668    680   5     0.00000    30.33400     0.00000  0.0
    660    661    662    663   5     0.00000     3.94551     0.00000  0.0
    660    661    662    667   5     0.00000     3.94551     0.00000  0.0
    661    662    663    664   5     0.00000    30.33400     0.00000  0.0
    661    662    663    676   5     0.00000    30.33400     0.00000  0.0
    667    662    663    664   5     0.00000    30.33400     0.00000  0.0
    667    662    663    676   5     0.00000    30.33400     0.00000  0.0
    661    662    667    666   5     0.00000    30.33400     0.00000  0.0
    661    662    667    679   5     0.00000    30.33400     0.00000  0.0
    663    662    667    666   5     0.00000    30.33400     0.00000  0.0
    663    662    667    679   5     0.00000    30.33400     0.00000  0.0
    662    663    664    665   5     0.00000    30.33400     0.00000  0.0
    662    663    664    677   5     0.00000    30.33400     0.00000  0.0
    676    663    664    665   5     0.00000    30.33400     0.00000  0.0
    676    663    664    677   5     0.00000    30.33400     0.00000  0.0
    663    664    665    666   5     0.00000    30.33400     0.00000  0.0
    663    664    665    682   5     0.00000    30.33400     0.00000  0.0
    677    664    665    666   5     0.00000    30.33400     0.00000  0.0
    677    664    665    682   5     0.00000    30.33400     0.00000  0.0
    664    665    666    667   5     0.00000    30.33400     0.00000  0.0
    664    665    666    678   5     0.00000    30.33400     0.00000  0.0
    682    665    666    667   5     0.00000    30.33400     0.00000  0.0
    682    665    666    678   5     0.00000    30.33400     0.00000  0.0
    665    666    667    662   5     0.00000    30.33400     0.00000  0.0
    665    666    667    679   5     0.00000    30.33400     0.00000  0.0
    678    666    667    662   5     0.00000    30.33400     0.00000  0.0
    678    666    667    679   5     0.00000    30.33400     0.00000  0.0
    660    668    669    657   5     0.00000    30.33400     0.00000  0.0
    660    668    669    681   5     0.00000    30.33400     0.00000  0.0
    680    668    669    657   5     0.00000    30.33400     0.00000  0.0
    680    668    669    681   5     0.00000    30.33400     0.00000  0.0

[ dihedrals ]
; Improper dihedrals
; h   i   j   k   funct
      2      7      1     23   5     0.00000     9.20480     0.00000  0.0
      1      3      2     24   5     0.00000     9.20480     0.00000  0.0
      2      4      3      5   5     0.00000    33.47200     0.00000  0.0
      3      6      5     25   5     0.00000     9.20480     0.00000  0.0
      5      7      6     26   5     0.00000     9.20480     0.00000  0.0
      1      6      7      8   5     0.00000    33.47200     0.00000  0.0
      7      9      8     10   5     0.00000    87.86400     0.00000  0.0
      8     11     10     22   5     0.00000    33.47200     0.00000  0.0
     10     12     11     27   5     0.00000     9.20480     0.00000  0.0
     11     13     12     28   5     0.00000     9.20480     0.00000  0.0
     12     14     13     21   5     0.00000    33.47200     0.00000  0.0
     14     16     15     20   5     0.00000    33.47200     0.00000  0.0
     15     17     16     29   5     0.00000     9.20480     0.00000  0.0
     16     18     17     30   5     0.00000     9.20480     0.00000  0.0
     17     19     18     39   5     0.00000    33.47200     0.00000  0.0
     18     20     19     31   5     0.00000     9.20480     0.00000  0.0
     15     19     20     32   5     0.00000     9.20480     0.00000  0.0
     13     22     21     33   5     0.00000     9.20480     0.00000  0.0
     10     21     22     34   5     0.00000     9.20480     0.00000  0.0
     37     42     36     58   5     0.00000     9.20480     0.00000  0.0
     36     38     37     59   5     0.00000     9.20480     0.00000  0.0
     37     39     38     40   5     0.00000    33.47200     0.00000  0.0
     38     41     40     60   5     0.00000     9.20480     0.00000  0.0
     40     42     41     61   5     0.00000     9.20480     0.00000  0.0
     36     41     42     43   5     0.00000    33.47200     0.00000  0.0
     42     44     43     45   5     0.00000    87.86400     0.00000  0.0
     43     46     45     57   5     0.00000    33.47200     0.00000  0.0
     45     47     46     62   5     0.00000     9.20480     0.00000  0.0
     46     48     47     63   5     0.00000     9.20480     0.00000  0.0
     47     49     48     56   5     0.00000    33.47200     0.00000  0.0
     49     51     50     55   5     0.00000    33.47200     0.00000  0.0
     50     52     51     64   5     0.00000     9.20480     0.00000  0.0
     51     53     52     65   5     0.00000     9.20480     0.00000  0.0
     52     54     53     73   5     0.00000    33.47200     0.00000  0.0
     53     55     54     66   5     0.00000     9.20480     0.00000  0.0
     50     54     55     67   5     0.00000     9.20480     0.00000  0.0
     48     57     56     68   5     0.00000     9.20480     0.00000  0.0
     45     56     57     69   5     0.00000     9.20480     0.00000  0.0
     71     76     70     92   5     0.00000     9.20480     0.00000  0.0
     70     72     71     93   5     0.00000     9.20480     0.00000  0.0
     71     73     72     74   5     0.00000    33.47200     0.00000  0.0
     72     75     74     94   5     0.00000     9.20480     0.00000  0.0
     74     76     75     95   5     0.00000     9.20480     0.00000  0.0
     70     75     76     77   5     0.00000    33.47200     0.00000  0.0
     76     78     77     79   5     0.00000    87.86400     0.00000  0.0
     77     80     79     91   5     0.00000    33.47200     0.00000  0.0
     79     81     80     96   5     0.00000     9.20480     0.00000  0.0
     80     82     81     97   5     0.00000     9.20480     0.00000  0.0
     81     83     82     90   5     0.00000    33.47200     0.00000  0.0
     83     85     84     89   5     0.00000    33.47200     0.00000  0.0
     84     86     85     98   5     0.00000     9.20480     0.00000  0.0
     85     87     86     99   5     0.00000     9.20480     0.00000  0.0
     86     88     87    107   5     0.00000    33.47200     0.00000  0.0
     87     89     88    100   5     0.00000     9.20480     0.00000  0.0
     84     88     89    101   5     0.00000     9.20480     0.00000  0.0
     82     91     90    102   5     0.00000     9.20480     0.00000  0.0
     79     90     91    103   5     0.00000     9.20480     0.00000  0.0
    105    110    104    126   5     0.00000     9.20480     0.00000  0.0
    104    106    105    127   5     0.00000     9.20480     0.00000  0.0
    105    107    106    108   5     0.00000    33.47200     0.00000  0.0
    106    109    108    128   5     0.00000     9.20480     0.00000  0.0
    108    110    109    129   5     0.00000     9.20480     0.00000  0.0
    104    109    110    111   5     0.00000    33.47200     0.00000  0.0
    110    112    111    113   5     0.00000    87.86400     0.00000  0.0
    111    114    113    125   5     0.00000    33.47200     0.00000  0.0
    113    115    114    130   5     0.00000     9.20480     0.00000  0.0
    114    116    115    131   5     0.00000     9.20480     0.00000  0.0
    115    117    116    124   5     0.00000    33.47200     0.00000  0.0
    117    119    118    123   5     0.00000    33.47200     0.00000  0.0
    118    120    119    132   5     0.00000     9.20480     0.00000  0.0
    119    121    120    133   5     0.00000     9.20480     0.00000  0.0
    120    122    121    141   5     0.00000    33.47200     0.00000  0.0
    121    123    122    134   5     0.00000     9.20480     0.00000  0.0
    118    122    123    135   5     0.00000     9.20480     0.00000  0.0
    116    125    124    136   5     0.00000     9.20480     0.00000  0.0
    113    124    125    137   5     0.00000     9.20480     0.00000  0.0
    139    144    138    160   5     0.00000     9.20480     0.00000  0.0
    138    140    139    161   5     0.00000     9.20480     0.00000  0.0
    139    141    140    142   5     0.00000    33.47200     0.00000  0.0
    140    143    142    162   5     0.00000     9.20480     0.00000  0.0
    142    144    143    163   5     0.00000     9.20480     0.00000  0.0
    138    143    144    145   5     0.00000    33.47200     0.00000  0.0
    144    146    145    147   5     0.00000    87.86400     0.00000  0.0
    145    148    147    159   5     0.00000    33.47200     0.00000  0.0
    147    149    148    164   5     0.00000     9.20480     0.00000  0.0
    148    150    149    165   5     0.00000     9.20480     0.00000  0.0
    149    151    150    158   5     0.00000    33.47200     0.00000  0.0
    151    153    152    157   5     0.00000    33.47200     0.00000  0.0
    152    154    153    166   5     0.00000     9.20480     0.00000  0.0
    153    155    154    167   5     0.00000     9.20480     0.00000  0.0
    154    156    155    175   5     0.00000    33.47200     0.00000  0.0
    155    157    156    168   5     0.00000     9.20480     0.00000  0.0
    152    156    157    169   5     0.00000     9.20480     0.00000  0.0
    150    159    158    170   5     0.00000     9.20480     0.00000  0.0
    147    158    159    171   5     0.00000     9.20480     0.00000  0.0
    173    178    172    194   5     0.00000     9.20480     0.00000  0.0
    172    174    173    195   5     0.00000     9.20480     0.00000  0.0
    173    175    174    176   5     0.00000    33.47200     0.00000  0.0
    174    177    176    196   5     0.00000     9.20480     0.00000  0.0
    176    178    177    197   5     0.00000     9.20480     0.00000  0.0
    172    177    178    179   5     0.00000    33.47200     0.00000  0.0
    178    180    179    181   5     0.00000    87.86400     0.00000  0.0
    179    182    181    193   5     0.00000    33.47200     0.00000  0.0
    181    183    182    198   5     0.00000     9.20480     0.00000  0.0
    182    184    183    199   5     0.00000     9.20480     0.00000  0.0
    183    185    184    192   5     0.00000    33.47200     0.00000  0.0
    185    187    186    191   5     0.00000    33.47200     0.00000  0.0
    186    188    187    200   5     0.00000     9.20480     0.00000  0.0
    187    189    188    201   5     0.00000     9.20480     0.00000  0.0
    188    190    189    209   5     0.00000    33.47200     0.00000  0.0
    189    191    190    202   5     0.00000     9.20480     0.00000  0.0
    186    190    191    203   5     0.00000     9.20480     0.00000  0.0
    184    193    192    204   5     0.00000     9.20480     0.00000  0.0
    181    192    193    205   5     0.00000     9.20480     0.00000  0.0
    207    212    206    228   5     0.00000     9.20480     0.00000  0.0
    206    208    207    229   5     0.00000     9.20480     0.00000  0.0
    207    209    208    210   5     0.00000    33.47200     0.00000  0.0
    208    211    210    230   5     0.00000     9.20480     0.00000  0.0
    210    212    211    231   5     0.00000     9.20480     0.00000  0.0
    206    211    212    213   5     0.00000    33.47200     0.00000  0.0
    212    214    213    215   5     0.00000    87.86400     0.00000  0.0
    213    216    215    227   5     0.00000    33.47200     0.00000  0.0
    215    217    216    232   5     0.00000     9.20480     0.00000  0.0
    216    218    217    233   5     0.00000     9.20480     0.00000  0.0
    217    219    218    226   5     0.00000    33.47200     0.00000  0.0
    219    221    220    225   5     0.00000    33.47200     0.00000  0.0
    220    222    221    234   5     0.00000     9.20480     0.00000  0.0
    221    223    222    235   5     0.00000     9.20480     0.00000  0.0
    222    224    223    243   5     0.00000    33.47200     0.00000  0.0
    223    225    224    236   5     0.00000     9.20480     0.00000  0.0
    220    224    225    237   5     0.00000     9.20480     0.00000  0.0
    218    227    226    238   5     0.00000     9.20480     0.00000  0.0
    215    226    227    239   5     0.00000     9.20480     0.00000  0.0
    241    246    240    262   5     0.00000     9.20480     0.00000  0.0
    240    242    241    263   5     0.00000     9.20480     0.00000  0.0
    241    243    242    244   5     0.00000    33.47200     0.00000  0.0
    242    245    244    264   5     0.00000     9.20480     0.00000  0.0
    244    246    245    265   5     0.00000     9.20480     0.00000  0.0
    240    245    246    247   5     0.00000    33.47200     0.00000  0.0
    246    248    247    249   5     0.00000    87.86400     0.00000  0.0
    247    250    249    261   5     0.00000    33.47200     0.00000  0.0
    249    251    250    266   5     0.00000     9.20480     0.00000  0.0
    250    252    251    267   5     0.00000     9.20480     0.00000  0.0
    251    253    252    260   5     0.00000    33.47200     0.00000  0.0
    253    255    254    259   5     0.00000    33.47200     0.00000  0.0
    254    256    255    268   5     0.00000     9.20480     0.00000  0.0
    255    257    256    269   5     0.00000     9.20480     0.00000  0.0
    256    258    257    277   5     0.00000    33.47200     0.00000  0.0
    257    259    258    270   5     0.00000     9.20480     0.00000  0.0
    254    258    259    271   5     0.00000     9.20480     0.00000  0.0
    252    261    260    272   5     0.00000     9.20480     0.00000  0.0
    249    260    261    273   5     0.00000     9.20480     0.00000  0.0
    275    280    274    296   5     0.00000     9.20480     0.00000  0.0
    274    276    275    297   5     0.00000     9.20480     0.00000  0.0
    275    277    276    278   5     0.00000    33.47200     0.00000  0.0
    276    279    278    298   5     0.00000     9.20480     0.00000  0.0
    278    280    279    299   5     0.00000     9.20480     0.00000  0.0
    274    279    280    281   5     0.00000    33.47200     0.00000  0.0
    280    282    281    283   5     0.00000    87.86400     0.00000  0.0
    281    284    283    295   5     0.00000    33.47200     0.00000  0.0
    283    285    284    300   5     0.00000     9.20480     0.00000  0.0
    284    286    285    301   5     0.00000     9.20480     0.00000  0.0
    285    287    286    294   5     0.00000    33.47200     0.00000  0.0
    287    289    288    293   5     0.00000    33.47200     0.00000  0.0
    288    290    289    302   5     0.00000     9.20480     0.00000  0.0
    289    291    290    303   5     0.00000     9.20480     0.00000  0.0
    290    292    291    311   5     0.00000    33.47200     0.00000  0.0
    291    293    292    304   5     0.00000     9.20480     0.00000  0.0
    288    292    293    305   5     0.00000     9.20480     0.00000  0.0
    286    295    294    306   5     0.00000     9.20480     0.00000  0.0
    283    294    295    307   5     0.00000     9.20480     0.00000  0.0
    309    314    308    330   5     0.00000     9.20480     0.00000  0.0
    308    310    309    331   5     0.00000     9.20480     0.00000  0.0
    309    311    310    312   5     0.00000    33.47200     0.00000  0.0
    310    313    312    332   5     0.00000     9.20480     0.00000  0.0
    312    314    313    333   5     0.00000     9.20480     0.00000  0.0
    308    313    314    315   5     0.00000    33.47200     0.00000  0.0
    314    316    315    317   5     0.00000    87.86400     0.00000  0.0
    315    318    317    329   5     0.00000    33.47200     0.00000  0.0
    317    319    318    334   5     0.00000     9.20480     0.00000  0.0
    318    320    319    335   5     0.00000     9.20480     0.00000  0.0
    319    321    320    328   5     0.00000    33.47200     0.00000  0.0
    321    323    322    327   5     0.00000    33.47200     0.00000  0.0
    322    324    323    336   5     0.00000     9.20480     0.00000  0.0
    323    325    324    337   5     0.00000     9.20480     0.00000  0.0
    324    326    325    345   5     0.00000    33.47200     0.00000  0.0
    325    327    326    338   5     0.00000     9.20480     0.00000  0.0
    322    326    327    339   5     0.00000     9.20480     0.00000  0.0
    320    329    328    340   5     0.00000     9.20480     0.00000  0.0
    317    328    329    341   5     0.00000     9.20480     0.00000  0.0
    343    348    342    364   5     0.00000     9.20480     0.00000  0.0
    342    344    343    365   5     0.00000     9.20480     0.00000  0.0
    343    345    344    346   5     0.00000    33.47200     0.00000  0.0
    344    347    346    366   5     0.00000     9.20480     0.00000  0.0
    346    348    347    367   5     0.00000     9.20480     0.00000  0.0
    342    347    348    349   5     0.00000    33.47200     0.00000  0.0
    348    350    349    351   5     0.00000    87.86400     0.00000  0.0
    349    352    351    363   5     0.00000    33.47200     0.00000  0.0
    351    353    352    368   5     0.00000     9.20480     0.00000  0.0
    352    354    353    369   5     0.00000     9.20480     0.00000  0.0
    353    355    354    362   5     0.00000    33.47200     0.00000  0.0
    355    357    356    361   5     0.00000    33.47200     0.00000  0.0
    356    358    357    370   5     0.00000     9.20480     0.00000  0.0
    357    359    358    371   5     0.00000     9.20480     0.00000  0.0
    358    360    359    379   5     0.00000    33.47200     0.00000  0.0
    359    361    360    372   5     0.00000     9.20480     0.00000  0.0
    356    360    361    373   5     0.00000     9.20480     0.00000  0.0
    354    363    362    374   5     0.00000     9.20480     0.00000  0.0
    351    362    363    375   5     0.00000     9.20480     0.00000  0.0
    377    382    376    398   5     0.00000     9.20480     0.00000  0.0
    376    378    377    399   5     0.00000     9.20480     0.00000  0.0
    377    379    378    380   5     0.00000    33.47200     0.00000  0.0
    378    381    380    400   5     0.00000     9.20480     0.00000  0.0
    380    382    381    401   5     0.00000     9.20480     0.00000  0.0
    376    381    382    383   5     0.00000    33.47200     0.00000  0.0
    382    384    383    385   5     0.00000    87.86400     0.00000  0.0
    383    386    385    397   5     0.00000    33.47200     0.00000  0.0
    385    387    386    402   5     0.00000     9.20480     0.00000  0.0
    386    388    387    403   5     0.00000     9.20480     0.00000  0.0
    387    389    388    396   5     0.00000    33.47200     0.00000  0.0
    389    391    390    395   5     0.00000    33.47200     0.00000  0.0
    390    392    391    404   5     0.00000     9.20480     0.00000  0.0
    391    393    392    405   5     0.00000     9.20480     0.00000  0.0
    392    394    393    413   5     0.00000    33.47200     0.00000  0.0
    393    395    394    406   5     0.00000     9.20480     0.00000  0.0
    390    394    395    407   5     0.00000     9.20480     0.00000  0.0
    388    397    396    408   5     0.00000     9.20480     0.00000  0.0
    385    396    397    409   5     0.00000     9.20480     0.00000  0.0
    411    416    410    432   5     0.00000     9.20480     0.00000  0.0
    410    412    411    433   5     0.00000     9.20480     0.00000  0.0
    411    413    412    414   5     0.00000    33.47200     0.00000  0.0
    412    415    414    434   5     0.00000     9.20480     0.00000  0.0
    414    416    415    435   5     0.00000     9.20480     0.00000  0.0
    410    415    416    417   5     0.00000    33.47200     0.00000  0.0
    416    418    417    419   5     0.00000    87.86400     0.00000  0.0
    417    420    419    431   5     0.00000    33.47200     0.00000  0.0
    419    421    420    436   5     0.00000     9.20480     0.00000  0.0
    420    422    421    437   5     0.00000     9.20480     0.00000  0.0
    421    423    422    430   5     0.00000    33.47200     0.00000  0.0
    423    425    424    429   5     0.00000    33.47200     0.00000  0.0
    424    426    425    438   5     0.00000     9.20480     0.00000  0.0
    425    427    426    439   5     0.00000     9.20480     0.00000  0.0
    426    428    427    447   5     0.00000    33.47200     0.00000  0.0
    427    429    428    440   5     0.00000     9.20480     0.00000  0.0
    424    428    429    441   5     0.00000     9.20480     0.00000  0.0
    422    431    430    442   5     0.00000     9.20480     0.00000  0.0
    419    430    431    443   5     0.00000     9.20480     0.00000  0.0
    445    450    444    466   5     0.00000     9.20480     0.00000  0.0
    444    446    445    467   5     0.00000     9.20480     0.00000  0.0
    445    447    446    448   5     0.00000    33.47200     0.00000  0.0
    446    449    448    468   5     0.00000     9.20480     0.00000  0.0
    448    450    449    469   5     0.00000     9.20480     0.00000  0.0
    444    449    450    451   5     0.00000    33.47200     0.00000  0.0
    450    452    451    453   5     0.00000    87.86400     0.00000  0.0
    451    454    453    465   5     0.00000    33.47200     0.00000  0.0
    453    455    454    470   5     0.00000     9.20480     0.00000  0.0
    454    456    455    471   5     0.00000     9.20480     0.00000  0.0
    455    457    456    464   5     0.00000    33.47200     0.00000  0.0
    457    459    458    463   5     0.00000    33.47200     0.00000  0.0
    458    460    459    472   5     0.00000     9.20480     0.00000  0.0
    459    461    460    473   5     0.00000     9.20480     0.00000  0.0
    460    462    461    481   5     0.00000    33.47200     0.00000  0.0
    461    463    462    474   5     0.00000     9.20480     0.00000  0.0
    458    462    463    475   5     0.00000     9.20480     0.00000  0.0
    456    465    464    476   5     0.00000     9.20480     0.00000  0.0
    453    464    465    477   5     0.00000     9.20480     0.00000  0.0
    479    484    478    500   5     0.00000     9.20480     0.00000  0.0
    478    480    479    501   5     0.00000     9.20480     0.00000  0.0
    479    481    480    482   5     0.00000    33.47200     0.00000  0.0
    480    483    482    502   5     0.00000     9.20480     0.00000  0.0
    482    484    483    503   5     0.00000     9.20480     0.00000  0.0
    478    483    484    485   5     0.00000    33.47200     0.00000  0.0
    484    486    485    487   5     0.00000    87.86400     0.00000  0.0
    485    488    487    499   5     0.00000    33.47200     0.00000  0.0
    487    489    488    504   5     0.00000     9.20480     0.00000  0.0
    488    490    489    505   5     0.00000     9.20480     0.00000  0.0
    489    491    490    498   5     0.00000    33.47200     0.00000  0.0
    491    493    492    497   5     0.00000    33.47200     0.00000  0.0
    492    494    493    506   5     0.00000     9.20480     0.00000  0.0
    493    495    494    507   5     0.00000     9.20480     0.00000  0.0
    494    496    495    515   5     0.00000    33.47200     0.00000  0.0
    495    497    496    508   5     0.00000     9.20480     0.00000  0.0
    492    496    497    509   5     0.00000     9.20480     0.00000  0.0
    490    499    498    510   5     0.00000     9.20480     0.00000  0.0
    487    498    499    511   5     0.00000     9.20480     0.00000  0.0
    513    518    512    534   5     0.00000     9.20480     0.00000  0.0
    512    514    513    535   5     0.00000     9.20480     0.00000  0.0
    513    515    514    516   5     0.00000    33.47200     0.00000  0.0
    514    517    516    536   5     0.00000     9.20480     0.00000  0.0
    516    518    517    537   5     0.00000     9.20480     0.00000  0.0
    512    517    518    519   5     0.00000    33.47200     0.00000  0.0
    518    520    519    521   5     0.00000    87.86400     0.00000  0.0
    519    522    521    533   5     0.00000    33.47200     0.00000  0.0
    521    523    522    538   5     0.00000     9.20480     0.00000  0.0
    522    524    523    539   5     0.00000     9.20480     0.00000  0.0
    523    525    524    532   5     0.00000    33.47200     0.00000  0.0
    525    527    526    531   5     0.00000    33.47200     0.00000  0.0
    526    528    527    540   5     0.00000     9.20480     0.00000  0.0
    527    529    528    541   5     0.00000     9.20480     0.00000  0.0
    528    530    529    549   5     0.00000    33.47200     0.00000  0.0
    529    531    530    542   5     0.00000     9.20480     0.00000  0.0
    526    530    531    543   5     0.00000     9.20480     0.00000  0.0
    524    533    532    544   5     0.00000     9.20480     0.00000  0.0
    521    532    533    545   5     0.00000     9.20480     0.00000  0.0
    547    552    546    568   5     0.00000     9.20480     0.00000  0.0
    546    548    547    569   5     0.00000     9.20480     0.00000  0.0
    547    549    548    550   5     0.00000    33.47200     0.00000  0.0
    548    551    550    570   5     0.00000     9.20480     0.00000  0.0
    550    552    551    571   5     0.00000     9.20480     0.00000  0.0
    546    551    552    553   5     0.00000    33.47200     0.00000  0.0
    552    554    553    555   5     0.00000    87.86400     0.00000  0.0
    553    556    555    567   5     0.00000    33.47200     0.00000  0.0
    555    557    556    572   5     0.00000     9.20480     0.00000  0.0
    556    558    557    573   5     0.00000     9.20480     0.00000  0.0
    557    559    558    566   5     0.00000    33.47200     0.00000  0.0
    559    561    560    565   5     0.00000    33.47200     0.00000  0.0
    560    562    561    574   5     0.00000     9.20480     0.00000  0.0
    561    563    562    575   5     0.00000     9.20480     0.00000  0.0
    562    564    563    583   5     0.00000    33.47200     0.00000  0.0
    563    565    564    576   5     0.00000     9.20480     0.00000  0.0
    560    564    565    577   5     0.00000     9.20480     0.00000  0.0
    558    567    566    578   5     0.00000     9.20480     0.00000  0.0
    555    566    567    579   5     0.00000     9.20480     0.00000  0.0
    581    586    580    602   5     0.00000     9.20480     0.00000  0.0
    580    582    581    603   5     0.00000     9.20480     0.00000  0.0
    581    583    582    584   5     0.00000    33.47200     0.00000  0.0
    582    585    584    604   5     0.00000     9.20480     0.00000  0.0
    584    586    585    605   5     0.00000     9.20480     0.00000  0.0
    580    585    586    587   5     0.00000    33.47200     0.00000  0.0
    586    588    587    589   5     0.00000    87.86400     0.00000  0.0
    587    590    589    601   5     0.00000    33.47200     0.00000  0.0
    589    591    590    606   5     0.00000     9.20480     0.00000  0.0
    590    592    591    607   5     0.00000     9.20480     0.00000  0.0
    591    593    592    600   5     0.00000    33.47200     0.00000  0.0
    593    595    594    599   5     0.00000    33.47200     0.00000  0.0
    594    596    595    608   5     0.00000     9.20480     0.00000  0.0
    595    597    596    609   5     0.00000     9.20480     0.00000  0.0
    596    598    597    617   5     0.00000    33.47200     0.00000  0.0
    597    599    598    610   5     0.00000     9.20480     0.00000  0.0
    594    598    599    611   5     0.00000     9.20480     0.00000  0.0
    592    601    600    612   5     0.00000     9.20480     0.00000  0.0
    589    600    601    613   5     0.00000     9.20480     0.00000  0.0
    615    620    614    636   5     0.00000     9.20480     0.00000  0.0
    614    616    615    637   5     0.00000     9.20480     0.00000  0.0
    615    617    616    618   5     0.00000    33.47200     0.00000  0.0
    616    619    618    638   5     0.00000     9.20480     0.00000  0.0
    618    620    619    639   5     0.00000     9.20480     0.00000  0.0
    614    619    620    621   5     0.00000    33.47200     0.00000  0.0
    620    622    621    623   5     0.00000    87.86400     0.00000  0.0
    621    624    623    635   5     0.00000    33.47200     0.00000  0.0
    623    625    624    640   5     0.00000     9.20480     0.00000  0.0
    624    626    625    641   5     0.00000     9.20480     0.00000  0.0
    625    627    626    634   5     0.00000    33.47200     0.00000  0.0
    627    629    628    633   5     0.00000    33.47200     0.00000  0.0
    628    630    629    642   5     0.00000     9.20480     0.00000  0.0
    629    631    630    643   5     0.00000     9.20480     0.00000  0.0
    630    632    631    651   5     0.00000    33.47200     0.00000  0.0
    631    633    632    644   5     0.00000     9.20480     0.00000  0.0
    628    632    633    645   5     0.00000     9.20480     0.00000  0.0
    626    635    634    646   5     0.00000     9.20480     0.00000  0.0
    623    634    635    647   5     0.00000     9.20480     0.00000  0.0
    649    654    648    670   5     0.00000     9.20480     0.00000  0.0
    648    650    649    671   5     0.00000     9.20480     0.00000  0.0
    649    651    650    652   5     0.00000    33.47200     0.00000  0.0
    650    653    652    672   5     0.00000     9.20480     0.00000  0.0
    652    654    653    673   5     0.00000     9.20480     0.00000  0.0
    648    653    654    655   5     0.00000    33.47200     0.00000  0.0
    654    656    655    657   5     0.00000    87.86400     0.00000  0.0
    655    658    657    669   5     0.00000    33.47200     0.00000  0.0
    657    659    658    674   5     0.00000     9.20480     0.00000  0.0
    658    660    659    675   5     0.00000     9.20480     0.00000  0.0
    659    661    660    668   5     0.00000    33.47200     0.00000  0.0
    661    663    662    667   5     0.00000    33.47200     0.00000  0.0
    662    664    663    676   5     0.00000     9.20480     0.00000  0.0
    663    665    664    677   5     0.00000     9.20480     0.00000  0.0
    664    666    665    682   5     0.00000     9.20480     0.00000  0.0
    665    667    666    678   5     0.00000     9.20480     0.00000  0.0
    662    666    667    679   5     0.00000     9.20480     0.00000  0.0
    660    669    668    680   5     0.00000     9.20480     0.00000  0.0
    657    668    669    681   5     0.00000     9.20480     0.00000  0.0
